Title
82277
    1SAPS     N    1   0.892   0.748  11.256 -0.0954  0.3931 -0.5341
    1SAPS   HN1    2   0.835   0.679  11.202  1.5118 -1.7588  0.4661
    1SAPS   HN2    3   0.906   0.706  11.350 -2.6491 -1.2320 -0.8460
    1SAPS   HN3    4   0.835   0.834  11.271 -0.9380 -0.2506 -0.0122
    1SAPS   C12    5   1.021   0.772  11.179  0.0173 -0.1998 -0.9294
    1SAPS  H12A    6   1.008   0.871  11.137 -1.9356 -0.0916 -0.1259
    1SAPS   C13    7   1.146   0.771  11.271 -1.2776  0.8165 -0.1118
    1SAPS  O13A    8   1.133   0.733  11.389  0.5589  0.5145  0.1300
    1SAPS  O13B    9   1.257   0.786  11.221 -0.4876 -0.0522 -0.1098
    1SAPS   C11   10   1.024   0.665  11.066 -0.5071  0.3202  0.0051
    1SAPS  H11A   11   1.125   0.675  11.022 -0.0743 -1.6014  0.5305
    1SAPS  H11B   12   0.942   0.686  10.994 -0.4990 -0.9532 -0.3907
    1SAPS     P   13   1.060   0.400  11.052 -0.3541 -0.2602  0.0769
    1SAPS   O13   14   1.155   0.437  10.947  0.3959  0.9374 -0.4337
    1SAPS   O14   15   1.102   0.316  11.160  0.4116  0.1776  0.0646
    1SAPS   O12   16   1.010   0.534  11.126 -0.0586  0.3666 -0.8658
    1SAPS   O11   17   0.928   0.340  10.982  0.3075  0.0520  0.3120
    1SAPS    C1   18   0.868   0.408  10.870 -0.6823 -1.0135 -0.4006
    1SAPS    HA   19   0.760   0.405  10.895 -0.6342  0.3319 -0.0308
    1SAPS    HB   20   0.894   0.516  10.870 -1.4492 -0.8032  1.6339
    1SAPS    C2   21   0.890   0.324  10.741 -0.0541  0.5970 -0.1682
    1SAPS    HS   22   0.793   0.323  10.686  0.6315 -0.2143 -1.3909
    1SAPS   O21   23   0.929   0.184  10.771 -0.3707 -0.2239  0.5112
    1SAPS   C21   24   0.826   0.106  10.791  0.0462  0.1621  0.7828
    1SAPS   O22   25   0.716   0.143  10.837  0.7344 -0.2151  0.5753
    1SAPS   C22   26   0.863  -0.037  10.771  0.3050  0.5047  1.1881
    1SAPS   H2R   27   0.910  -0.075  10.864 -1.4576  0.0000  1.8995
    1SAPS   H2S   28   0.768  -0.094  10.765  0.4213  0.2824  1.4615
    1SAPS    C3   29   1.003   0.386  10.649 -0.5571  0.5361 -0.1660
    1SAPS    HX   30   1.099   0.365  10.700  0.0584  1.2150 -1.0252
    1SAPS    HY   31   0.982   0.495  10.654  1.1785  0.9100 -0.6788
    1SAPS   O31   32   0.987   0.350  10.506 -0.1167  0.0669 -0.1034
    1SAPS   C31   33   1.106   0.363  10.438 -0.1394  0.4840 -0.3463
    1SAPS   O32   34   1.211   0.395  10.488  0.3396  0.2651 -0.0790
    1SAPS   C32   35   1.081   0.343  10.290  0.2881 -0.4963 -0.1377
    1SAPS   H2X   36   1.056   0.441  10.245  0.0683 -0.5160 -0.0619
    1SAPS   H2Y   37   0.999   0.269  10.277 -2.2695  2.2679 -0.3330
    1SAPS   C23   38   0.964  -0.056  10.656 -0.1170 -0.2291 -1.0943
    1SAPS   H3R   39   1.066  -0.035  10.696 -0.0672 -1.9804 -0.2245
    1SAPS   H3S   40   0.953   0.020  10.575  0.8486  1.1343  0.0339
    1SAPS   C24   41   0.968  -0.193  10.594  0.1428  0.2494 -0.2726
    1SAPS   H4R   42   0.871  -0.213  10.542 -0.7835  0.0192  1.4866
    1SAPS   H4S   43   0.964  -0.266  10.679 -0.4938 -1.3481 -1.6413
    1SAPS   C25   44   1.089  -0.216  10.510 -0.0938 -0.0064  0.2115
    1SAPS   H5R   45   1.178  -0.256  10.561  0.8005  2.4750  0.6689
    1SAPS   C26   46   1.086  -0.189  10.379 -0.5874  0.6195 -0.2595
    1SAPS   H6R   47   1.182  -0.215  10.332 -0.7710 -1.8142  0.6101
    1SAPS   C27   48   0.972  -0.135  10.294 -0.7188 -0.2472 -0.3756
    1SAPS   H7R   49   0.901  -0.066  10.344 -0.1264 -0.1859  0.3790
    1SAPS   H7S   50   0.907  -0.216  10.254 -0.6779 -0.7340  0.5527
    1SAPS   C28   51   1.025  -0.056  10.184 -0.7122  0.2867  0.2066
    1SAPS   H8R   52   1.041   0.052  10.190 -1.3450  0.4234 -0.5128
    1SAPS   C29   53   1.043  -0.104  10.062  0.1174 -0.0145 -0.2833
    1SAPS   H9R   54   1.081  -0.038   9.982  0.4311 -0.7496 -0.7437
    1SAPS  C210   55   1.016  -0.244  10.011  1.1955 -0.9553 -0.0887
    1SAPS  H10R   56   0.975  -0.305  10.094 -0.4215 -0.7257 -0.7075
    1SAPS  H10S   57   1.108  -0.298   9.982  0.1499 -3.0728  0.4700
    1SAPS  C211   58   0.913  -0.245   9.895  0.7526 -0.2848  0.0932
    1SAPS  H11R   59   0.836  -0.166   9.901  0.1429 -0.9097  0.4685
    1SAPS  C212   60   0.915  -0.335   9.801 -0.0574 -0.1203  0.4953
    1SAPS  H12R   61   0.849  -0.320   9.714 -1.4558  1.2903  1.7601
    1SAPS  C213   62   1.007  -0.453   9.785 -0.4214  0.0016 -0.2829
    1SAPS  H13R   63   1.030  -0.482   9.890 -3.4190 -0.6697  0.2524
    1SAPS  H13S   64   1.101  -0.425   9.735 -0.0948 -2.7556 -1.2841
    1SAPS  C214   65   0.937  -0.572   9.722  0.0356 -0.5186 -0.1838
    1SAPS  H14R   66   0.901  -0.642   9.798 -1.4882  1.4842  0.9842
    1SAPS  C215   67   0.928  -0.590   9.583  0.2604 -0.2364  0.6198
    1SAPS  H15R   68   0.867  -0.666   9.533 -2.8901  2.0189  0.8166
    1SAPS  C216   69   0.985  -0.497   9.482  0.9700  0.0709  0.0254
    1SAPS  H16R   70   1.094  -0.512   9.464  1.2836 -0.4032  2.1638
    1SAPS  H16S   71   0.972  -0.389   9.505  1.1238 -0.1830  1.3233
    1SAPS  C217   72   0.900  -0.519   9.354 -0.3546 -0.3367 -0.1557
    1SAPS  H17R   73   0.791  -0.500   9.366  0.4065  3.4766  1.6498
    1SAPS  H17S   74   0.923  -0.622   9.319 -0.0229 -0.3451  0.0835
    1SAPS  C218   75   0.953  -0.423   9.251 -0.1151 -0.5728  0.3765
    1SAPS  H18R   76   1.048  -0.472   9.223 -1.3453 -2.3929 -0.6858
    1SAPS  H18S   77   0.966  -0.320   9.291  1.0733  0.3544 -2.3180
    1SAPS  C219   78   0.861  -0.409   9.128 -0.6279 -0.2341 -0.3458
    1SAPS  H19R   79   0.770  -0.354   9.158 -0.1569 -0.2737  1.2201
    1SAPS  H19S   80   0.837  -0.510   9.088 -0.6152  0.3790 -1.9664
    1SAPS  C220   81   0.931  -0.328   9.011  0.3803 -0.0225  1.1063
    1SAPS  H20R   82   1.036  -0.363   9.004 -0.1185 -1.1552 -1.7462
    1SAPS  H20S   83   0.926  -0.221   9.041 -0.7671  0.1336  0.4005
    1SAPS  H20T   84   0.873  -0.347   8.918 -0.8349 -2.0897  2.2674
    1SAPS   C33   85   1.216   0.293  10.217  0.7110 -0.1670 -0.2585
    1SAPS   H3X   86   1.251   0.199  10.264  0.0943 -0.8517 -1.1483
    1SAPS   H3Y   87   1.295   0.367  10.238  1.0391 -0.2884 -1.0564
    1SAPS   C34   88   1.208   0.302  10.063 -0.1581 -0.3400  0.0131
    1SAPS   H4X   89   1.182   0.404  10.027  1.2449 -0.9583 -2.9306
    1SAPS   H4Y   90   1.137   0.227  10.023  0.0081  0.4904 -1.9015
    1SAPS   C35   91   1.345   0.274  10.005  0.6899  0.2703 -0.5221
    1SAPS   H5X   92   1.367   0.169  10.033 -1.6159  0.1289  0.9166
    1SAPS   H5Y   93   1.422   0.332  10.060  2.1001 -0.1440 -2.0170
    1SAPS   C36   94   1.364   0.304   9.852  0.0903 -0.0090 -0.3683
    1SAPS   H6X   95   1.465   0.275   9.817  0.7582  1.7280  0.0569
    1SAPS   H6Y   96   1.359   0.415   9.847 -0.6532  0.0778  1.9667
    1SAPS   C37   97   1.283   0.214   9.761  0.5315 -0.2913  0.6502
    1SAPS   H7X   98   1.188   0.271   9.752  0.0513 -1.0898  0.6106
    1SAPS   H7Y   99   1.263   0.112   9.801  0.0453  0.0950  1.3990
    1SAPS   C38  100   1.348   0.219   9.619  0.2341 -0.4348  0.3794
    1SAPS   H8X  101   1.458   0.208   9.620  0.4148  1.3398  1.7259
    1SAPS   H8Y  102   1.329   0.325   9.593  0.8700 -0.5872 -0.7589
    1SAPS   C39  103   1.302   0.126   9.512  0.1693  0.3626  0.1168
    1SAPS   H9X  104   1.193   0.150   9.508 -0.3373 -1.9939 -0.8665
    1SAPS   H9Y  105   1.307   0.018   9.537  0.2401  0.3742  0.1521
    1SAPS  C310  106   1.353   0.147   9.368  0.2247 -0.3845 -0.8409
    1SAPS  H10X  107   1.463   0.150   9.351 -0.1285  0.5903 -3.1915
    1SAPS  H10Y  108   1.313   0.250   9.351 -0.9598 -0.3371  1.9322
    1SAPS  C311  109   1.272   0.069   9.272  0.1372 -0.4967 -0.0064
    1SAPS  H11X  110   1.169   0.067   9.313 -0.9331 -1.8617 -2.6733
    1SAPS  H11Y  111   1.326  -0.029   9.277  1.5133  0.2828  0.8313
    1SAPS  C312  112   1.273   0.116   9.123  0.7925  0.7024 -0.1584
    1SAPS  H12X  113   1.375   0.092   9.086  0.4729 -0.5393 -0.2334
    1SAPS  H12Y  114   1.267   0.227   9.112  0.0526  0.5292 -1.5781
    1SAPS  C313  115   1.167   0.031   9.047  0.3655 -0.6240  0.2230
    1SAPS  H13X  116   1.068   0.078   9.062  0.9337  1.0952 -1.2172
    1SAPS  H13Y  117   1.158  -0.069   9.094 -0.8268  0.3228  2.0384
    1SAPS  C314  118   1.201   0.027   8.896 -0.3172  0.6085  0.2959
    1SAPS  H14X  119   1.151  -0.066   8.859  1.3156 -0.6401  1.1371
    1SAPS  H14Y  120   1.311   0.018   8.885 -0.4103  0.5064 -0.6037
    1SAPS  C315  121   1.158   0.152   8.816  0.5181 -0.5011  0.0619
    1SAPS  H15X  122   1.242   0.221   8.836 -1.6903  2.4585 -0.5211
    1SAPS  H15Y  123   1.059   0.191   8.849  0.9937  1.7951 -1.2014
    1SAPS  C316  124   1.163   0.139   8.662  0.1700 -0.2900  0.3298
    1SAPS  H16X  125   1.068   0.095   8.624  0.1298  1.4796 -1.7069
    1SAPS  H16Y  126   1.245   0.066   8.643 -1.8070 -2.0373 -1.7806
    1SAPS  C317  127   1.212   0.266   8.587 -0.2508  0.0746  0.6836
    1SAPS  H17X  128   1.313   0.294   8.624  1.4072 -2.4330 -1.7848
    1SAPS  H17Y  129   1.151   0.357   8.607 -1.2100 -0.2925 -0.4680
    1SAPS  C318  130   1.223   0.243   8.442  0.5438 -0.3743  0.9946
    1SAPS  H18X  131   1.148   0.167   8.412  0.6662 -0.2299  0.3200
    1SAPS  H18Y  132   1.321   0.204   8.405  0.5043  0.9555 -0.5238
    1SAPS  H18Z  133   1.221   0.343   8.394  2.0781 -0.2034  1.2630
    2SAPS     N  134   5.959   0.793  10.942  0.1195  0.0244  0.8382
    2SAPS   HN1  135   5.892   0.824  11.016 -0.3485 -0.5963  0.6773
    2SAPS   HN2  136   6.056   0.831  10.951  0.0678 -0.0133  1.6168
    2SAPS   HN3  137   5.927   0.808  10.845 -2.4738 -1.3770  1.4382
    2SAPS   C12  138   5.970   0.641  10.958 -0.0869  0.2952  1.1455
    2SAPS  H12A  139   6.039   0.604  10.883 -1.4014 -0.9433  0.5287
    2SAPS   C13  140   6.016   0.588  11.101  0.6456  0.3866  0.8058
    2SAPS  O13A  141   6.045   0.676  11.180  0.3908 -0.1290 -0.0782
    2SAPS  O13B  142   6.045   0.466  11.112  0.1280 -0.1106 -0.0533
    2SAPS   C11  143   5.844   0.569  10.908  0.0371  0.1635 -0.6252
    2SAPS  H11A  144   5.760   0.599  10.975 -0.9472  0.0820 -1.8130
    2SAPS  H11B  145   5.844   0.459  10.925 -0.0553  0.5085  1.8285
    2SAPS     P  146   5.715   0.507  10.696 -0.3952 -0.2900 -0.5766
    2SAPS   O13  147   5.789   0.376  10.695  0.6472  0.5059 -0.3540
    2SAPS   O14  148   5.583   0.510  10.756  0.3785 -0.2286  0.3571
    2SAPS   O12  149   5.814   0.605  10.777  0.5248  0.4250  0.6384
    2SAPS   O11  150   5.715   0.561  10.552  1.1372 -0.2372 -0.3167
    2SAPS    C1  151   5.829   0.628  10.485  0.1285 -0.3155 -0.1469
    2SAPS    HA  152   5.811   0.738  10.480  0.4471 -0.3186 -1.3466
    2SAPS    HB  153   5.917   0.622  10.553 -0.8405 -1.1386  1.0791
    2SAPS    C2  154   5.871   0.568  10.350  0.1337  0.2228 -0.0985
    2SAPS    HS  155   5.979   0.592  10.342 -0.2975  1.8791 -1.0051
    2SAPS   O21  156   5.797   0.630  10.247  0.3759 -0.4519 -0.2365
    2SAPS   C21  157   5.835   0.754  10.217  0.2292 -0.3570  0.2837
    2SAPS   O22  158   5.928   0.816  10.261 -0.0829  0.2970 -0.3459
    2SAPS   C22  159   5.747   0.800  10.104 -0.0224  0.7007 -0.2449
    2SAPS   H2R  160   5.647   0.819  10.148 -0.6649 -1.0600 -0.8891
    2SAPS   H2S  161   5.792   0.892  10.062  1.4587  1.0174  1.9577
    2SAPS    C3  162   5.843   0.417  10.343  0.3861 -0.2628 -0.7657
    2SAPS    HX  163   5.733   0.410  10.362  0.3052  0.6919 -0.8807
    2SAPS    HY  164   5.889   0.361  10.428 -0.9460 -1.4424 -0.7936
    2SAPS   O31  165   5.859   0.354  10.220 -0.2623 -0.4172  0.3210
    2SAPS   C31  166   5.985   0.342  10.175  0.6091 -0.0462 -0.4259
    2SAPS   O32  167   6.086   0.383  10.234 -0.0973 -0.0195  0.0838
    2SAPS   C32  168   5.984   0.266  10.050  0.3279 -0.4999 -0.0464
    2SAPS   H2X  169   5.901   0.310   9.989  0.6668  1.0602  0.5943
    2SAPS   H2Y  170   5.949   0.164  10.077 -2.1105  0.6560  1.3128
    2SAPS   C23  171   5.724   0.703   9.981  0.3039 -0.8729  0.3240
    2SAPS   H3R  172   5.620   0.715   9.944  0.3600 -2.0205 -0.2209
    2SAPS   H3S  173   5.735   0.597  10.013  0.3351 -0.7199  0.8277
    2SAPS   C24  174   5.812   0.741   9.867 -0.2709 -0.7424 -0.0111
    2SAPS   H4R  175   5.833   0.850   9.868  0.0433 -0.7801 -1.6814
    2SAPS   H4S  176   5.762   0.713   9.772 -0.7302 -1.3798  0.4172
    2SAPS   C25  177   5.948   0.679   9.870  0.2747  0.0503 -0.2699
    2SAPS   H5R  178   5.998   0.671   9.967 -1.3738 -2.1491  0.4476
    2SAPS   C26  179   6.014   0.632   9.759 -0.0294 -0.1050 -0.7042
    2SAPS   H6R  180   6.114   0.589   9.773  0.1540  1.4410  3.5873
    2SAPS   C27  181   5.984   0.636   9.610  0.3301  0.7233  0.6491
    2SAPS   H7R  182   6.078   0.625   9.552 -0.1373  0.6472 -0.1053
    2SAPS   H7S  183   5.935   0.731   9.578  1.8340  1.6039  0.9217
    2SAPS   C28  184   5.893   0.521   9.581  0.3469 -0.4359  0.2692
    2SAPS   H8R  185   5.841   0.465   9.660  2.0380 -2.6532 -0.1252
    2SAPS   C29  186   5.865   0.483   9.457 -0.4086  0.4163  0.7203
    2SAPS   H9R  187   5.798   0.397   9.444 -2.1759  1.5457  2.0501
    2SAPS  C210  188   5.912   0.550   9.328  0.3406  0.0414  0.3650
    2SAPS  H10R  189   5.958   0.474   9.262  3.2088  2.8273 -0.9495
    2SAPS  H10S  190   6.005   0.609   9.342  1.8979 -2.3558  0.2726
    2SAPS  C211  191   5.811   0.623   9.245  0.3766 -0.4032 -0.0009
    2SAPS  H11R  192   5.779   0.717   9.292  2.1494  0.7727 -1.0956
    2SAPS  C212  193   5.750   0.580   9.131 -0.1394  0.2284 -0.0930
    2SAPS  H12R  194   5.692   0.652   9.072 -0.0369  0.9756  0.7088
    2SAPS  C213  195   5.786   0.458   9.046 -0.5626 -0.3353  0.2210
    2SAPS  H13R  196   5.826   0.374   9.108 -2.4742 -0.3334  1.4804
    2SAPS  H13S  197   5.878   0.476   8.986  1.1543 -1.7060  2.3312
    2SAPS  C214  198   5.677   0.420   8.950  0.1565 -0.8779 -0.1254
    2SAPS  H14R  199   5.579   0.466   8.970  0.1919  0.0551 -2.0046
    2SAPS  C215  200   5.688   0.319   8.858 -0.4219  0.0820 -0.6752
    2SAPS  H15R  201   5.602   0.293   8.794 -0.4610 -1.5738  0.0252
    2SAPS  C216  202   5.807   0.233   8.832 -0.1473  0.0214 -0.2284
    2SAPS  H16R  203   5.811   0.136   8.886  0.1416 -1.5650 -3.0342
    2SAPS  H16S  204   5.895   0.276   8.885  1.6055 -3.1444 -0.4762
    2SAPS  C217  205   5.828   0.220   8.682 -0.6909  0.2859 -0.3416
    2SAPS  H17R  206   5.828   0.320   8.634 -0.0330  1.2571  1.6468
    2SAPS  H17S  207   5.760   0.145   8.637 -1.7711  0.5392  0.8494
    2SAPS  C218  208   5.972   0.174   8.655 -0.0233 -0.0155 -0.7808
    2SAPS  H18R  209   5.991   0.090   8.725 -1.5847  0.1167 -0.1801
    2SAPS  H18S  210   6.034   0.263   8.676  1.2318 -0.1506 -3.6793
    2SAPS  C219  211   5.996   0.123   8.506  0.4122  0.3575  0.0235
    2SAPS  H19R  212   5.966   0.201   8.431  4.2949  1.3708 -0.5767
    2SAPS  H19S  213   5.930   0.036   8.485  1.7081 -0.3821 -1.0710
    2SAPS  C220  214   6.142   0.090   8.469 -0.3249  0.7200 -0.6084
    2SAPS  H20R  215   6.143   0.046   8.366  0.1550 -0.0673 -0.2703
    2SAPS  H20S  216   6.186   0.013   8.536  0.9537  1.2292 -0.8403
    2SAPS  H20T  217   6.213   0.176   8.471  0.5997 -0.0495 -0.3083
    2SAPS   C33  218   6.127   0.256   9.978  0.1442 -0.9702  0.6387
    2SAPS   H3X  219   6.210   0.227  10.046  1.1544  0.0198 -0.1635
    2SAPS   H3Y  220   6.143   0.357   9.933  0.8785 -1.8157 -1.0350
    2SAPS   C34  221   6.129   0.161   9.855 -0.1476  0.7286  0.3659
    2SAPS   H4X  222   6.126   0.055   9.888  1.9604  1.1596  2.0685
    2SAPS   H4Y  223   6.226   0.179   9.803 -0.9428 -0.0855 -1.4340
    2SAPS   C35  224   6.021   0.182   9.760  0.4294  0.1806  0.6265
    2SAPS   H5X  225   6.013   0.286   9.721 -4.1081  0.2241  1.3686
    2SAPS   H5Y  226   5.925   0.153   9.807  0.1213  1.0638  0.5566
    2SAPS   C36  227   6.040   0.099   9.631 -0.6176 -0.3872 -0.0470
    2SAPS   H6X  228   5.942   0.092   9.579  0.6429 -1.8506 -2.3003
    2SAPS   H6Y  229   6.084  -0.002   9.651 -0.9561 -0.6051 -0.4027
    2SAPS   C37  230   6.127   0.170   9.529 -0.1172  0.4084 -0.0439
    2SAPS   H7X  231   6.187   0.245   9.585  1.6034  1.4316 -3.2035
    2SAPS   H7Y  232   6.058   0.233   9.469  1.1178  1.2113 -0.6123
    2SAPS   C38  233   6.225   0.084   9.461 -0.9056  0.1785  0.0862
    2SAPS   H8X  234   6.275   0.020   9.537  0.2475  0.5481 -0.3407
    2SAPS   H8Y  235   6.309   0.145   9.420 -1.2805  2.4552  2.5178
    2SAPS   C39  236   6.164  -0.009   9.355  0.4539 -0.0278  0.2739
    2SAPS   H9X  237   6.092   0.054   9.299  0.1674 -1.1260 -0.5963
    2SAPS   H9Y  238   6.103  -0.078   9.418  0.7905  0.0485  0.6873
    2SAPS  C310  239   6.265  -0.071   9.264 -0.1631  0.4831 -0.2687
    2SAPS  H10X  240   6.333  -0.142   9.316  0.0337  0.9821  0.1611
    2SAPS  H10Y  241   6.335   0.002   9.218  0.8653 -0.8121 -0.7925
    2SAPS  C311  242   6.191  -0.157   9.163 -0.8725 -0.4177 -0.1218
    2SAPS  H11X  243   6.143  -0.100   9.081 -1.7446 -2.7243 -1.2758
    2SAPS  H11Y  244   6.103  -0.205   9.210 -0.3971 -0.8531  0.3375
    2SAPS  C312  245   6.281  -0.270   9.116  0.2286 -0.1070 -0.3033
    2SAPS  H12X  246   6.214  -0.346   9.069 -0.0430 -0.8615  1.2637
    2SAPS  H12Y  247   6.326  -0.320   9.204 -0.9837  0.9695  0.9509
    2SAPS  C313  248   6.389  -0.229   9.009  0.0379  0.1551 -0.3631
    2SAPS  H13X  249   6.340  -0.148   8.952 -0.1394 -0.2011 -0.7214
    2SAPS  H13Y  250   6.414  -0.307   8.934 -1.1219  2.1643 -2.8732
    2SAPS  C314  251   6.524  -0.183   9.063  0.0924  0.9766 -0.4099
    2SAPS  H14X  252   6.562  -0.261   9.132 -0.8039  0.5835 -0.3524
    2SAPS  H14Y  253   6.531  -0.092   9.125  0.0582  0.5248  0.2550
    2SAPS  C315  254   6.633  -0.168   8.954 -0.8763 -0.3354 -0.5909
    2SAPS  H15X  255   6.578  -0.114   8.874 -0.0230 -0.5741 -1.3377
    2SAPS  H15Y  256   6.657  -0.267   8.910 -0.2055 -0.8058  0.7932
    2SAPS  C316  257   6.753  -0.084   8.994 -0.1250 -0.0319  0.4204
    2SAPS  H16X  258   6.822  -0.152   9.048 -0.4612 -0.0481  0.8285
    2SAPS  H16Y  259   6.727   0.001   9.061 -0.0590 -0.2293  0.6934
    2SAPS  C317  260   6.820  -0.025   8.864 -0.0982 -0.1999 -0.7029
    2SAPS  H17X  261   6.861  -0.114   8.810 -0.1007  0.3256 -1.5766
    2SAPS  H17Y  262   6.912   0.033   8.888  0.4904 -1.1126 -0.6940
    2SAPS  C318  263   6.734   0.057   8.768 -0.9237 -0.5987 -0.1344
    2SAPS  H18X  264   6.660  -0.011   8.722 -1.5954 -0.2165  0.3702
    2SAPS  H18Y  265   6.801   0.089   8.685 -0.5069 -0.1949  0.3519
    2SAPS  H18Z  266   6.692   0.150   8.812 -1.6229 -1.2844  0.6815
    3SAPS     N  267   6.385   1.794  11.296 -0.4244  0.2264 -0.0895
    3SAPS   HN1  268   6.392   1.783  11.399 -0.0356 -0.9677 -0.2332
    3SAPS   HN2  269   6.394   1.895  11.275 -1.4905  0.3258 -0.0889
    3SAPS   HN3  270   6.287   1.770  11.269 -0.2426 -0.5781 -0.0623
    3SAPS   C12  271   6.476   1.718  11.213  0.1794  0.7384  0.7760
    3SAPS  H12A  272   6.558   1.785  11.191 -1.4031  2.2135 -0.8106
    3SAPS   C13  273   6.536   1.596  11.285  0.3499 -0.0285  0.1718
    3SAPS  O13A  274   6.503   1.582  11.406 -0.8113  0.7058 -0.0328
    3SAPS  O13B  275   6.590   1.506  11.222  1.0193 -0.1051 -0.4579
    3SAPS   C11  276   6.405   1.684  11.069  0.5095  0.0152 -0.2672
    3SAPS  H11A  277   6.308   1.632  11.080  1.1679 -1.7418 -2.3702
    3SAPS  H11B  278   6.477   1.614  11.021  0.8865  1.4173 -1.8339
    3SAPS     P  279   6.255   1.880  10.978  0.2369 -0.0784  0.0008
    3SAPS   O13  280   6.185   1.876  11.104  0.9064 -0.3119  0.1244
    3SAPS   O14  281   6.290   2.012  10.919 -0.0113  0.2477 -0.0921
    3SAPS   O12  282   6.388   1.789  10.978 -0.3193 -0.7587  0.2914
    3SAPS   O11  283   6.171   1.817  10.849 -0.1730 -0.0044 -0.0798
    3SAPS    C1  284   6.235   1.734  10.755 -0.1600  0.0328 -0.1115
    3SAPS    HA  285   6.340   1.767  10.740 -0.7582  2.1158  0.1676
    3SAPS    HB  286   6.226   1.630  10.794 -2.0933 -0.8081 -2.6223
    3SAPS    C2  287   6.165   1.748  10.618 -0.0174 -0.2270  0.2702
    3SAPS    HS  288   6.228   1.692  10.546 -0.4742  0.9775 -1.0793
    3SAPS   O21  289   6.134   1.879  10.583  0.4004 -0.2958 -0.3691
    3SAPS   C21  290   6.235   1.956  10.539  0.6436 -0.6799  0.7884
    3SAPS   O22  291   6.346   1.917  10.526  0.0416 -0.2582  0.8061
    3SAPS   C22  292   6.189   2.105  10.539  0.6292  0.1731 -0.4218
    3SAPS   H2R  293   6.078   2.097  10.539  0.8006 -2.8937 -1.6159
    3SAPS   H2S  294   6.223   2.155  10.632  0.6560 -0.5602 -0.0324
    3SAPS    C3  295   6.028   1.682  10.632  0.4943 -0.0205 -0.1947
    3SAPS    HX  296   5.956   1.751  10.680  0.4696 -0.1633 -0.0264
    3SAPS    HY  297   6.033   1.589  10.692 -3.4029 -0.1531  0.0523
    3SAPS   O31  298   5.975   1.641  10.501 -0.8675 -0.0342 -0.3803
    3SAPS   C31  299   5.891   1.724  10.444  0.6240  0.6654 -0.6444
    3SAPS   O32  300   5.847   1.829  10.487 -0.1369  0.0320 -0.3181
    3SAPS   C32  301   5.854   1.677  10.303  0.0402 -0.5324  0.0026
    3SAPS   H2X  302   5.744   1.670  10.311 -0.0536  0.9288  0.1863
    3SAPS   H2Y  303   5.893   1.578  10.272  1.4661 -0.3309  1.0978
    3SAPS   C23  304   6.236   2.184  10.417 -0.3862 -0.1880 -0.1893
    3SAPS   H3R  305   6.347   2.188  10.425 -0.6034  1.0713  3.0800
    3SAPS   H3S  306   6.204   2.290  10.417 -0.8112 -0.3180 -0.8416
    3SAPS   C24  307   6.199   2.121  10.276 -0.7232 -0.4037 -0.4368
    3SAPS   H4R  308   6.231   2.015  10.287  0.0892 -0.2329 -1.0484
    3SAPS   H4S  309   6.270   2.156  10.198  1.3227 -2.9043  0.2261
    3SAPS   C25  310   6.053   2.133  10.242 -0.1008  0.0015  0.3268
    3SAPS   H5R  311   5.987   2.145  10.329 -1.0790 -0.0442 -0.3931
    3SAPS   C26  312   6.006   2.124  10.114 -0.0233 -0.2028 -0.7016
    3SAPS   H6R  313   5.898   2.141  10.100 -0.4531 -0.0959  2.3105
    3SAPS   C27  314   6.087   2.118   9.989 -0.2203 -0.3210 -1.0066
    3SAPS   H7R  315   6.012   2.105   9.907 -0.7383  1.3122 -0.8205
    3SAPS   H7S  316   6.137   2.019   9.987  0.8355  0.1987 -0.5572
    3SAPS   C28  317   6.180   2.224   9.955 -0.5139 -0.4644  0.0581
    3SAPS   H8R  318   6.229   2.262  10.046  0.1859 -2.0244  0.3436
    3SAPS   C29  319   6.198   2.269   9.827 -0.3829 -0.5846  0.5473
    3SAPS   H9R  320   6.258   2.358   9.802 -1.3385  0.1617  0.8810
    3SAPS  C210  321   6.124   2.218   9.708  0.6255 -0.5620  0.5477
    3SAPS  H10R  322   6.013   2.217   9.720  0.7342 -2.0096  1.7615
    3SAPS  H10S  323   6.165   2.114   9.702  2.1056 -0.0934  2.1375
    3SAPS  C211  324   6.146   2.292   9.580 -0.3296 -0.4070 -0.4346
    3SAPS  H11R  325   6.187   2.394   9.585 -1.6653  0.1050  0.8210
    3SAPS  C212  326   6.119   2.234   9.461 -0.5994 -0.1351  0.3611
    3SAPS  H12R  327   6.156   2.290   9.373 -0.7401 -0.0594  0.3497
    3SAPS  C213  328   6.067   2.098   9.423  0.2375 -0.1342  0.4046
    3SAPS  H13R  329   5.975   2.106   9.363  1.8326  0.0458 -2.0954
    3SAPS  H13S  330   6.032   2.031   9.505  2.2341 -0.6252  0.8963
    3SAPS  C214  331   6.169   2.034   9.333 -0.0787  0.5353 -0.1793
    3SAPS  H14R  332   6.274   2.066   9.346 -0.4445  3.4082 -3.4327
    3SAPS  C215  333   6.145   1.952   9.227 -0.1899  0.5748 -0.4181
    3SAPS  H15R  334   6.233   1.906   9.180  1.7267  0.5960  2.9758
    3SAPS  C216  335   6.009   1.893   9.191  0.4801  0.6957 -0.2873
    3SAPS  H16R  336   5.937   1.892   9.276 -0.2212 -1.9980 -0.8727
    3SAPS  H16S  337   6.024   1.785   9.167 -0.2853 -0.4664  3.9254
    3SAPS  C217  338   5.936   1.976   9.086 -0.5309  0.8512  0.1551
    3SAPS  H17R  339   5.941   2.081   9.121 -0.0147  0.6671  0.6525
    3SAPS  H17S  340   5.833   1.934   9.083 -0.6412  1.0882  0.6164
    3SAPS  C218  341   6.009   1.948   8.950 -0.2424  0.7953  0.1459
    3SAPS  H18R  342   6.009   1.839   8.930  2.4500  1.1400 -2.1886
    3SAPS  H18S  343   6.115   1.979   8.967 -0.4065  0.3599  2.0609
    3SAPS  C219  344   5.945   2.022   8.830 -0.9466 -0.2609 -0.1036
    3SAPS  H19R  345   5.930   2.129   8.853  1.9290  0.4048 -1.1528
    3SAPS  H19S  346   5.843   1.983   8.808 -1.2790  0.9955 -0.8019
    3SAPS  C220  347   6.034   1.998   8.705 -0.2613  0.1041 -0.5054
    3SAPS  H20R  348   6.107   1.916   8.724  0.5356  1.2412  1.4801
    3SAPS  H20S  349   6.101   2.086   8.692 -1.2238  1.0402  0.6806
    3SAPS  H20T  350   5.982   1.987   8.608  1.0265 -1.0912 -1.0859
    3SAPS   C33  351   5.860   1.777  10.183 -0.1362 -0.2990  0.4329
    3SAPS   H3X  352   5.958   1.828  10.184 -0.5655  0.5191  0.9710
    3SAPS   H3Y  353   5.783   1.855  10.202  0.2618  0.0905  0.4461
    3SAPS   C34  354   5.821   1.707  10.054  0.4978  0.1646  0.0713
    3SAPS   H4X  355   5.714   1.678  10.060 -0.1947  2.2291 -1.6973
    3SAPS   H4Y  356   5.888   1.620  10.038 -3.0783 -2.4438 -1.3058
    3SAPS   C35  357   5.833   1.805   9.940 -0.0847 -0.0527  0.2289
    3SAPS   H5X  358   5.924   1.867   9.951 -0.4669  0.4750  0.4089
    3SAPS   H5Y  359   5.760   1.889   9.934  0.9661  0.7634 -1.4893
    3SAPS   C36  360   5.835   1.725   9.808  0.0264  0.3652  0.0629
    3SAPS   H6X  361   5.745   1.660   9.801  0.7188 -0.6219  0.2244
    3SAPS   H6Y  362   5.925   1.661   9.799  0.3852  0.9228 -0.4261
    3SAPS   C37  363   5.823   1.802   9.679  0.2804 -0.2862  0.4450
    3SAPS   H7X  364   5.897   1.883   9.667  2.0793 -2.0338 -0.5444
    3SAPS   H7Y  365   5.718   1.840   9.679  0.6306  0.7176 -1.6874
    3SAPS   C38  366   5.842   1.708   9.554 -0.4974 -0.4743 -0.1867
    3SAPS   H8X  367   5.940   1.656   9.548  1.9719  3.7074  1.7104
    3SAPS   H8Y  368   5.847   1.776   9.467 -0.6198 -1.0003 -0.6113
    3SAPS   C39  369   5.731   1.593   9.535 -0.4652  0.0795  0.0554
    3SAPS   H9X  370   5.636   1.646   9.561  0.5548  0.3704  3.4494
    3SAPS   H9Y  371   5.751   1.510   9.606  2.8674 -0.5912 -1.5626
    3SAPS  C310  372   5.715   1.532   9.397 -0.5809  0.8030 -1.0079
    3SAPS  H10X  373   5.619   1.480   9.380 -0.1388 -0.4572  0.2369
    3SAPS  H10Y  374   5.802   1.466   9.377 -0.1906  1.0035 -0.0468
    3SAPS  C311  375   5.712   1.642   9.288 -0.5868  0.5922 -0.4348
    3SAPS  H11X  376   5.815   1.674   9.262 -0.3842  0.3136  0.0203
    3SAPS  H11Y  377   5.673   1.734   9.337  1.5859  0.5113  1.5225
    3SAPS  C312  378   5.641   1.597   9.159  0.0259  0.1565 -0.7042
    3SAPS  H12X  379   5.536   1.568   9.178  0.4955 -0.5309  1.0246
    3SAPS  H12Y  380   5.700   1.512   9.119  0.3550  1.1464 -2.3262
    3SAPS  C313  381   5.630   1.705   9.053 -0.4956  0.1530  0.8172
    3SAPS  H13X  382   5.731   1.748   9.031 -1.1613  0.0595 -2.7353
    3SAPS  H13Y  383   5.574   1.793   9.090  0.6805  1.0075  0.5961
    3SAPS  C314  384   5.553   1.648   8.929  0.7774  0.2856 -0.4755
    3SAPS  H14X  385   5.452   1.644   8.974  0.2671  0.3868 -1.5853
    3SAPS  H14Y  386   5.590   1.554   8.882  2.4425  0.0189  1.2988
    3SAPS  C315  387   5.539   1.754   8.814 -0.2792 -0.3408 -0.8040
    3SAPS  H15X  388   5.509   1.853   8.854  1.4900 -0.0217 -0.1926
    3SAPS  H15Y  389   5.456   1.727   8.746 -0.8594  1.3741 -0.8048
    3SAPS  C316  390   5.672   1.780   8.749  0.0883 -0.1110 -0.2601
    3SAPS  H16X  391   5.753   1.786   8.825 -0.9670  0.7133  0.8344
    3SAPS  H16Y  392   5.664   1.880   8.701  1.5342  0.1488  0.0154
    3SAPS  C317  393   5.700   1.671   8.645 -0.4454  0.6900  0.5020
    3SAPS  H17X  394   5.605   1.640   8.596  0.0870 -1.6569  0.8727
    3SAPS  H17Y  395   5.732   1.577   8.694 -2.6492 -0.4327 -0.1339
    3SAPS  C318  396   5.809   1.713   8.536  0.7424 -0.4311 -0.0803
    3SAPS  H18X  397   5.901   1.743   8.590  1.5119  2.0730 -2.6921
    3SAPS  H18Y  398   5.766   1.797   8.477 -0.4167 -0.7667  0.2694
    3SAPS  H18Z  399   5.840   1.628   8.471  1.2832 -1.2711  1.2705
    4SAPS     N  400   1.993   3.830  10.392  0.0980 -0.4214  1.0808
    4SAPS   HN1  401   1.899   3.865  10.419  0.3942 -1.4657  3.6102
    4SAPS   HN2  402   2.040   3.907  10.341 -2.0978  0.6722  0.6229
    4SAPS   HN3  403   1.982   3.747  10.330  2.9671 -0.1612  0.1828
    4SAPS   C12  404   2.069   3.793  10.521 -0.2965 -0.6597 -0.3304
    4SAPS  H12A  405   2.151   3.729  10.491  1.2719  0.6248  1.1506
    4SAPS   C13  406   2.120   3.902  10.612  0.0722 -0.3642 -0.2889
    4SAPS  O13A  407   2.091   4.020  10.586  0.3072 -0.1798 -0.7332
    4SAPS  O13B  408   2.184   3.863  10.715 -0.5019  0.6996  0.6586
    4SAPS   C11  409   1.971   3.703  10.604 -0.4043 -0.0487  0.0733
    4SAPS  H11A  410   1.877   3.756  10.631 -0.2504 -0.9470  2.4843
    4SAPS  H11B  411   2.023   3.680  10.700 -1.0989 -1.6866  0.0822
    4SAPS     P  412   1.935   3.443  10.597  0.2437 -0.3757  0.0109
    4SAPS   O13  413   2.049   3.414  10.686 -0.2350 -0.2006 -1.0158
    4SAPS   O14  414   1.795   3.430  10.645  0.7380  0.1173  0.1873
    4SAPS   O12  415   1.936   3.584  10.531  0.5691 -0.5309 -0.0593
    4SAPS   O11  416   1.950   3.347  10.473 -0.8505  0.4294 -0.2521
    4SAPS    C1  417   2.079   3.356  10.405 -0.0564 -0.5845 -0.9721
    4SAPS    HA  418   2.124   3.457  10.414 -3.1910  1.1527 -3.6323
    4SAPS    HB  419   2.150   3.278  10.440 -0.9748 -0.5192  1.0900
    4SAPS    C2  420   2.059   3.345  10.258 -0.9436  0.1917  0.6449
    4SAPS    HS  421   2.132   3.401  10.196 -1.3435  2.2409  1.9647
    4SAPS   O21  422   1.926   3.375  10.214 -0.5380  0.2263  0.6952
    4SAPS   C21  423   1.895   3.497  10.203 -1.0544  0.0566 -0.0388
    4SAPS   O22  424   1.971   3.594  10.225  0.1567  0.1390  0.3418
    4SAPS   C22  425   1.741   3.514  10.169 -0.4808 -0.0796 -0.2613
    4SAPS   H2R  426   1.683   3.460  10.247 -0.2305 -1.9918 -1.3499
    4SAPS   H2S  427   1.711   3.621  10.165 -0.5698 -0.1606 -2.6411
    4SAPS    C3  428   2.079   3.199  10.219  0.1277  0.3655  0.0321
    4SAPS    HX  429   2.011   3.130  10.273 -0.4101  1.2483  0.5015
    4SAPS    HY  430   2.179   3.173  10.260  0.0039  0.2885  0.2807
    4SAPS   O31  431   2.085   3.176  10.074  0.4590  0.9149 -0.5016
    4SAPS   C31  432   1.964   3.142  10.023  0.3001 -0.2178  0.3869
    4SAPS   O32  433   1.862   3.121  10.085  0.4599 -0.4794  0.0149
    4SAPS   C32  434   1.963   3.154   9.866  0.1606  0.2462 -0.3854
    4SAPS   H2X  435   2.033   3.078   9.824  0.4158  0.8210 -1.0143
    4SAPS   H2Y  436   1.985   3.259   9.837  0.3251  0.2762 -0.1547
    4SAPS   C23  437   1.694   3.427  10.048  0.0378  0.0705 -0.7350
    4SAPS   H3R  438   1.584   3.426  10.058  0.0232  2.0208 -0.5290
    4SAPS   H3S  439   1.736   3.326  10.030  0.4781  0.2420 -0.6827
    4SAPS   C24  440   1.709   3.502   9.915 -0.0275  0.1935 -0.2466
    4SAPS   H4R  441   1.658   3.600   9.923 -0.8233 -0.1143 -1.5564
    4SAPS   H4S  442   1.649   3.434   9.852 -1.1637 -0.6103  1.6658
    4SAPS   C25  443   1.846   3.529   9.870 -1.1415 -0.4638  0.1281
    4SAPS   H5R  444   1.929   3.536   9.941 -1.5279 -1.6964  0.7189
    4SAPS   C26  445   1.878   3.547   9.739 -0.4989 -0.2190  0.2000
    4SAPS   H6R  446   1.981   3.552   9.701 -1.7098  0.7535 -3.0522
    4SAPS   C27  447   1.783   3.544   9.625  0.5274  0.8468 -0.5102
    4SAPS   H7R  448   1.679   3.530   9.663  0.3873 -0.7974 -1.4313
    4SAPS   H7S  449   1.812   3.450   9.574  1.6074  0.3986  0.8925
    4SAPS   C28  450   1.786   3.655   9.526  0.2025 -0.1731  0.3697
    4SAPS   H8R  451   1.788   3.754   9.573  1.1445 -0.2743  0.5376
    4SAPS   C29  452   1.789   3.642   9.392 -0.7076 -0.2998 -0.2815
    4SAPS   H9R  453   1.793   3.730   9.327  0.5853  0.0479  0.2437
    4SAPS  C210  454   1.782   3.516   9.318  0.2322  0.3268  0.0870
    4SAPS  H10R  455   1.675   3.496   9.294  0.8890 -1.6532 -1.3215
    4SAPS  H10S  456   1.813   3.424   9.373  2.6145  0.2724 -1.3010
    4SAPS  C211  457   1.872   3.519   9.200  0.3795 -0.1608  0.0993
    4SAPS  H11R  458   1.979   3.511   9.224  0.4033  0.2226  0.1191
    4SAPS  C212  459   1.830   3.526   9.072 -0.3800 -0.5053 -0.7462
    4SAPS  H12R  460   1.909   3.531   8.997 -0.5266  0.3240 -0.8503
    4SAPS  C213  461   1.689   3.529   9.017  0.1644 -0.7941  0.3576
    4SAPS  H13R  462   1.620   3.595   9.074 -0.1474 -2.1419  1.5362
    4SAPS  H13S  463   1.635   3.433   9.024 -0.9818 -0.0504  1.9985
    4SAPS  C214  464   1.701   3.598   8.879 -0.3036 -0.0241 -0.4234
    4SAPS  H14R  465   1.707   3.708   8.875  0.7109 -0.0197  0.7405
    4SAPS  C215  466   1.712   3.531   8.762  0.2747  0.3973 -0.5497
    4SAPS  H15R  467   1.725   3.593   8.672  0.4065 -0.6726 -1.2775
    4SAPS  C216  468   1.720   3.385   8.745 -0.5877 -0.5307  0.2374
    4SAPS  H16R  469   1.720   3.334   8.844  0.9546 -3.0093 -1.0130
    4SAPS  H16S  470   1.824   3.369   8.710 -1.3160  0.0678 -2.2773
    4SAPS  C217  471   1.619   3.321   8.651  0.1941 -0.2760  0.3921
    4SAPS  H17R  472   1.520   3.308   8.699  1.2188 -5.1542  1.3951
    4SAPS  H17S  473   1.656   3.220   8.626 -0.9810 -0.7140  0.4305
    4SAPS  C218  474   1.619   3.388   8.515  0.1220  0.6576  0.2610
    4SAPS  H18R  475   1.717   3.422   8.476  1.6076 -4.2748 -0.5838
    4SAPS  H18S  476   1.551   3.476   8.522 -0.7565 -0.0233  0.4493
    4SAPS  C219  477   1.546   3.300   8.408  0.7728  0.1242  1.0398
    4SAPS  H19R  478   1.608   3.219   8.365  1.5165 -0.9515  3.9929
    4SAPS  H19S  479   1.500   3.360   8.327  0.4672  2.3652  2.7924
    4SAPS  C220  480   1.415   3.237   8.456 -0.2380  0.7502  0.9511
    4SAPS  H20R  481   1.360   3.179   8.379  0.8310  1.4452 -0.3515
    4SAPS  H20S  482   1.352   3.313   8.507  1.6262  2.3936  0.8404
    4SAPS  H20T  483   1.446   3.158   8.528  0.6584  1.3695  1.2423
    4SAPS   C33  484   1.820   3.118   9.804 -0.2884 -0.0117 -0.1923
    4SAPS   H3X  485   1.747   3.194   9.840 -0.0436 -0.2197  0.7594
    4SAPS   H3Y  486   1.772   3.028   9.847 -0.1048  0.9674  2.1300
    4SAPS   C34  487   1.810   3.122   9.645  0.2063  0.0553  0.4884
    4SAPS   H4X  488   1.856   3.034   9.595  0.0689  1.0831 -1.4765
    4SAPS   H4Y  489   1.857   3.214   9.605  3.7021 -1.6853  0.4331
    4SAPS   C35  490   1.663   3.115   9.599  0.2829 -0.5134  0.4328
    4SAPS   H5X  491   1.606   3.205   9.630 -0.4625 -0.6396 -0.5759
    4SAPS   H5Y  492   1.606   3.038   9.655 -1.3873  0.1271 -0.3695
    4SAPS   C36  493   1.644   3.103   9.446  0.4728  0.2541  0.0734
    4SAPS   H6X  494   1.724   3.176   9.418 -0.5021  2.5328  2.9444
    4SAPS   H6Y  495   1.543   3.147   9.432  0.0757  0.1943  2.4776
    4SAPS   C37  496   1.669   2.963   9.384 -0.3899 -0.3609 -0.0644
    4SAPS   H7X  497   1.587   2.900   9.424  0.1315 -1.6775 -1.0227
    4SAPS   H7Y  498   1.763   2.929   9.432  0.0381 -0.5444 -1.0232
    4SAPS   C38  499   1.654   2.944   9.231 -0.3646  0.2347 -0.9832
    4SAPS   H8X  500   1.562   2.992   9.190 -0.4291 -0.3693 -1.5623
    4SAPS   H8Y  501   1.652   2.838   9.198  0.0984  0.7776 -2.8537
    4SAPS   C39  502   1.774   3.007   9.158  0.3309 -0.3946 -0.2978
    4SAPS   H9X  503   1.858   2.938   9.137  1.5571  1.4340 -1.5988
    4SAPS   H9Y  504   1.807   3.096   9.216 -1.2553 -0.6564  1.0535
    4SAPS  C310  505   1.727   3.067   9.031  0.1346  0.4526 -0.5794
    4SAPS  H10X  506   1.818   3.101   8.977 -0.8078  0.2359 -2.3342
    4SAPS  H10Y  507   1.666   3.157   9.054 -0.1461  0.2140 -0.3869
    4SAPS  C311  508   1.657   2.963   8.943  0.4082 -0.3349 -0.7248
    4SAPS  H11X  509   1.566   2.935   9.000  2.0480  3.7132  4.2146
    4SAPS  H11Y  510   1.723   2.873   8.940  1.6997  0.5159  1.1011
    4SAPS  C312  511   1.638   3.004   8.797  0.2681  0.4536  0.2921
    4SAPS  H12X  512   1.734   3.051   8.765  0.4574  0.2656  0.5854
    4SAPS  H12Y  513   1.568   3.089   8.782  0.3787  0.1038 -2.4411
    4SAPS  C313  514   1.603   2.884   8.705 -0.2237 -0.0006  0.1942
    4SAPS  H13X  515   1.687   2.812   8.706 -1.3224 -1.2942  0.9922
    4SAPS  H13Y  516   1.587   2.920   8.601  1.5338  2.6771  0.8027
    4SAPS  C314  517   1.477   2.807   8.743 -0.5032 -0.5256  0.1669
    4SAPS  H14X  518   1.494   2.739   8.830 -1.7086 -0.7430  0.2384
    4SAPS  H14Y  519   1.453   2.742   8.656  2.1953 -0.3551 -0.7404
    4SAPS  C315  520   1.351   2.895   8.775 -1.4021  0.2748 -0.8676
    4SAPS  H15X  521   1.346   2.969   8.693 -1.8243  1.8573  0.5503
    4SAPS  H15Y  522   1.367   2.950   8.870 -2.9994 -0.9583  0.1610
    4SAPS  C316  523   1.224   2.814   8.794 -0.8018  0.4529  0.8132
    4SAPS  H16X  524   1.143   2.879   8.834  0.3157  2.8660 -0.7479
    4SAPS  H16Y  525   1.248   2.726   8.858 -0.6551  0.6317  1.0018
    4SAPS  C317  526   1.176   2.761   8.653 -0.1129 -0.6302  0.6694
    4SAPS  H17X  527   1.268   2.711   8.615  1.1518  0.9584  1.6140
    4SAPS  H17Y  528   1.157   2.848   8.586 -2.3282 -0.6283  1.2701
    4SAPS  C318  529   1.047   2.683   8.654  0.1456 -0.4677  0.4895
    4SAPS  H18X  530   0.967   2.753   8.686  1.6478  0.6136  1.9045
    4SAPS  H18Y  531   1.041   2.593   8.719  1.5367 -0.2367  0.9427
    4SAPS  H18Z  532   1.011   2.655   8.552 -1.9659 -0.6980  1.2712
    5SAPS     N  533   5.469   2.929  10.956 -0.2586 -0.5000 -0.4575
    5SAPS   HN1  534   5.387   2.957  10.897 -0.0396  1.4821  0.1558
    5SAPS   HN2  535   5.442   2.973  11.046 -2.4561 -0.5037 -1.0700
    5SAPS   HN3  536   5.556   2.979  10.927 -0.0176 -0.8998 -0.4242
    5SAPS   C12  537   5.490   2.778  10.987 -0.0947 -0.1194  0.4580
    5SAPS  H12A  538   5.489   2.724  10.894  0.4300 -0.2734  0.5383
    5SAPS   C13  539   5.614   2.740  11.069 -0.2665 -0.0281  0.3544
    5SAPS  O13A  540   5.683   2.834  11.113  0.0677 -0.3855  0.1804
    5SAPS  O13B  541   5.631   2.620  11.096  0.2334 -0.2879 -0.5456
    5SAPS   C11  542   5.373   2.724  11.086 -0.0843  0.0080  0.4558
    5SAPS  H11A  543   5.383   2.774  11.185 -2.6326  1.7484 -0.1028
    5SAPS  H11B  544   5.383   2.615  11.102 -0.2176  0.3326  3.0067
    5SAPS     P  545   5.146   2.649  10.972 -0.0088 -0.1525 -0.3170
    5SAPS   O13  546   5.123   2.538  11.066 -0.1681  0.3133  0.0136
    5SAPS   O14  547   5.025   2.716  10.920 -0.0182  0.2910  0.6504
    5SAPS   O12  548   5.242   2.758  11.039 -0.3018  0.1912 -0.7294
    5SAPS   O11  549   5.230   2.593  10.855 -0.0584 -0.1050 -0.0356
    5SAPS    C1  550   5.185   2.503  10.762 -0.3899 -0.0950 -0.0680
    5SAPS    HA  551   5.188   2.402  10.809 -0.4232  0.0882  0.3360
    5SAPS    HB  552   5.083   2.526  10.726 -1.3121 -2.7323  0.7128
    5SAPS    C2  553   5.262   2.493  10.625 -0.3742  0.3696  0.2052
    5SAPS    HS  554   5.368   2.484  10.655 -0.2977 -0.9280 -0.4242
    5SAPS   O21  555   5.237   2.617  10.553  0.7347  0.0993 -0.4232
    5SAPS   C21  556   5.324   2.649  10.470 -0.0803  0.3100 -0.4139
    5SAPS   O22  557   5.445   2.612  10.463 -0.5710  1.0103 -0.0591
    5SAPS   C22  558   5.256   2.737  10.365  0.5942 -0.4122 -0.0780
    5SAPS   H2R  559   5.163   2.692  10.323 -0.9946  3.0016 -0.3352
    5SAPS   H2S  560   5.232   2.834  10.414  3.5814 -0.0779  0.7953
    5SAPS    C3  561   5.241   2.362  10.540  0.7962 -0.0327  0.2369
    5SAPS    HX  562   5.132   2.349  10.521  0.7305 -1.0796  1.2645
    5SAPS    HY  563   5.272   2.280  10.608 -0.5569 -1.0646 -0.3659
    5SAPS   O31  564   5.310   2.358  10.411  0.1809 -0.1992 -0.0566
    5SAPS   C31  565   5.431   2.293  10.412  0.8405  0.0473 -0.4271
    5SAPS   O32  566   5.480   2.247  10.515 -0.6145  0.0040  0.2532
    5SAPS   C32  567   5.498   2.287  10.275 -0.0771  0.3653 -0.3180
    5SAPS   H2X  568   5.584   2.217  10.278  2.0597  2.9688  2.4970
    5SAPS   H2Y  569   5.545   2.387  10.265  0.7347  0.2802  2.2094
    5SAPS   C23  570   5.346   2.781  10.246  0.6033  0.8277 -0.3874
    5SAPS   H3R  571   5.445   2.819  10.282  0.1666  1.3437  0.2813
    5SAPS   H3S  572   5.303   2.869  10.194  0.1068  0.6906 -0.2107
    5SAPS   C24  573   5.379   2.670  10.144  0.4590 -0.1231  0.1470
    5SAPS   H4R  574   5.295   2.610  10.102 -0.5519  0.5385  1.2165
    5SAPS   H4S  575   5.448   2.602  10.198  2.3451  2.6155  1.3104
    5SAPS   C25  576   5.448   2.728  10.023 -0.8390  0.0282  0.8097
    5SAPS   H5R  577   5.513   2.813  10.051 -1.3384  0.8824 -0.6049
    5SAPS   C26  578   5.435   2.697   9.893 -0.2595  0.3085 -0.2513
    5SAPS   H6R  579   5.514   2.741   9.830 -1.4268  0.2989 -1.7487
    5SAPS   C27  580   5.344   2.588   9.833  0.0538 -0.4859  0.1808
    5SAPS   H7R  581   5.244   2.623   9.798  0.8904 -0.4742 -2.3066
    5SAPS   H7S  582   5.314   2.528   9.921 -1.2104 -2.1096 -1.3200
    5SAPS   C28  583   5.396   2.499   9.727  0.2419 -0.9078  0.4353
    5SAPS   H8R  584   5.406   2.397   9.766 -0.0014 -0.9422  0.4108
    5SAPS   C29  585   5.420   2.535   9.599 -0.1682  0.4915 -0.0622
    5SAPS   H9R  586   5.454   2.455   9.531  0.0191 -0.7822  1.5062
    5SAPS  C210  587   5.398   2.670   9.548  0.0338 -0.7054 -0.7363
    5SAPS  H10R  588   5.402   2.749   9.627 -1.6005 -0.3232 -1.0282
    5SAPS  H10S  589   5.292   2.671   9.516 -0.5956  1.2493  1.2120
    5SAPS  C211  590   5.493   2.706   9.431  0.7372 -0.4673  0.1496
    5SAPS  H11R  591   5.590   2.738   9.472  0.8101  0.2901 -0.6094
    5SAPS  C212  592   5.478   2.694   9.298 -0.0071  0.2140 -0.6137
    5SAPS  H12R  593   5.562   2.728   9.236  0.7637  0.4297  0.5598
    5SAPS  C213  594   5.358   2.627   9.226 -0.2210  0.3841 -0.2411
    5SAPS  H13R  595   5.279   2.706   9.226 -1.0249 -0.3896  1.6111
    5SAPS  H13S  596   5.326   2.547   9.295  1.6553 -1.3297 -1.3267
    5SAPS  C214  597   5.389   2.586   9.084 -0.2080 -0.6739 -0.5248
    5SAPS  H14R  598   5.441   2.490   9.072  0.5842 -0.4572  1.1322
    5SAPS  C215  599   5.377   2.658   8.970 -0.4258 -0.1329 -0.6669
    5SAPS  H15R  600   5.388   2.603   8.875  1.0685 -1.1296  0.0720
    5SAPS  C216  601   5.324   2.804   8.953  0.2088  0.0476 -0.1820
    5SAPS  H16R  602   5.277   2.841   9.047 -0.5647  0.1956 -0.6218
    5SAPS  H16S  603   5.236   2.792   8.887 -0.9049 -0.4954  1.3565
    5SAPS  C217  604   5.427   2.909   8.905  0.3783 -0.1857 -0.6129
    5SAPS  H17R  605   5.489   2.871   8.821  0.5227  0.0580 -0.6159
    5SAPS  H17S  606   5.498   2.924   8.988 -1.0344  0.4387  0.5057
    5SAPS  C218  607   5.358   3.041   8.880 -0.5462 -0.1372 -0.0076
    5SAPS  H18R  608   5.297   3.036   8.787  1.4253  0.7159 -1.3933
    5SAPS  H18S  609   5.306   3.066   8.975 -0.4716 -1.4125  0.3762
    5SAPS  C219  610   5.466   3.152   8.850 -0.5219 -1.1245  0.4198
    5SAPS  H19R  611   5.517   3.185   8.944 -1.2507  0.7379  0.1749
    5SAPS  H19S  612   5.406   3.234   8.805 -3.0728 -2.0698  1.9634
    5SAPS  C220  613   5.572   3.115   8.748  0.6424  0.1063  0.5414
    5SAPS  H20R  614   5.525   3.048   8.673 -0.7016  1.7031 -0.0741
    5SAPS  H20S  615   5.658   3.062   8.796  1.1824  1.8882  1.5910
    5SAPS  H20T  616   5.613   3.203   8.694  2.1779  0.7008  2.6004
    5SAPS   C33  617   5.399   2.260  10.162  0.4857 -0.1350  0.6063
    5SAPS   H3X  618   5.307   2.322  10.171  0.0662 -0.7812  0.8097
    5SAPS   H3Y  619   5.362   2.156  10.171  0.9049 -0.2542  0.9820
    5SAPS   C34  620   5.463   2.304  10.023 -0.5992 -0.1163  0.4850
    5SAPS   H4X  621   5.506   2.404  10.042 -0.4731 -0.0296 -0.2404
    5SAPS   H4Y  622   5.382   2.304   9.947  0.1398  1.2510 -0.3210
    5SAPS   C35  623   5.567   2.199   9.977  0.2216  0.8665  0.1301
    5SAPS   H5X  624   5.527   2.096   9.983  2.1396 -0.0263 -1.7629
    5SAPS   H5Y  625   5.660   2.201  10.038 -0.3666 -0.5037  1.0821
    5SAPS   C36  626   5.608   2.229   9.831  0.0402  0.2397 -0.2840
    5SAPS   H6X  627   5.638   2.336   9.826  0.0442  0.3606  1.9396
    5SAPS   H6Y  628   5.517   2.213   9.770  0.1288 -1.3306 -0.0278
    5SAPS   C37  629   5.718   2.136   9.782 -0.1709  0.2701 -0.2872
    5SAPS   H7X  630   5.682   2.033   9.804 -0.6848  0.4914 -0.0671
    5SAPS   H7Y  631   5.815   2.142   9.836 -0.2304  3.7960 -0.5091
    5SAPS   C38  632   5.763   2.169   9.637  0.3214 -0.4354  0.3516
    5SAPS   H8X  633   5.839   2.091   9.614  0.4969 -1.0199  2.7918
    5SAPS   H8Y  634   5.797   2.275   9.628 -1.0163 -0.1307 -1.4871
    5SAPS   C39  635   5.643   2.154   9.541  0.4929 -0.1943 -0.2179
    5SAPS   H9X  636   5.568   2.235   9.550  0.4631 -0.2871  0.3772
    5SAPS   H9Y  637   5.587   2.062   9.569  0.2205 -0.5283 -1.8376
    5SAPS  C310  638   5.682   2.132   9.394  0.2514  0.3036  0.1641
    5SAPS  H10X  639   5.714   2.027   9.377 -1.2102 -0.5034  2.1095
    5SAPS  H10Y  640   5.764   2.199   9.364 -2.1169  3.5963  0.7266
    5SAPS  C311  641   5.567   2.159   9.293  0.7523  0.4398 -0.0255
    5SAPS  H11X  642   5.523   2.261   9.296  0.1911  0.2270 -1.1471
    5SAPS  H11Y  643   5.486   2.086   9.313  0.3224  0.9722  0.2214
    5SAPS  C312  644   5.619   2.137   9.141 -1.2010  0.2112  0.5939
    5SAPS  H12X  645   5.655   2.032   9.141 -2.8073 -0.3517  0.6447
    5SAPS  H12Y  646   5.709   2.201   9.128 -1.1236  0.0283  0.2383
    5SAPS  C313  647   5.502   2.176   9.044  0.1182 -0.1819 -0.0689
    5SAPS  H13X  648   5.469   2.280   9.066  0.5918 -0.2417  0.9351
    5SAPS  H13Y  649   5.413   2.119   9.076 -1.2023  1.7405 -0.2570
    5SAPS  C314  650   5.544   2.153   8.903  1.8327  0.7877  0.7988
    5SAPS  H14X  651   5.588   2.051   8.895  0.1232  0.1715 -1.1135
    5SAPS  H14Y  652   5.621   2.229   8.878  1.5467  0.1562 -2.2024
    5SAPS  C315  653   5.426   2.175   8.806 -0.4341  0.3353 -0.2612
    5SAPS  H15X  654   5.386   2.278   8.823  1.7467  1.2505 -0.5641
    5SAPS  H15Y  655   5.337   2.113   8.831  0.6906  0.0957  3.3293
    5SAPS  C316  656   5.449   2.152   8.656 -0.3351  0.6531  0.2697
    5SAPS  H16X  657   5.483   2.047   8.643 -0.7499  0.2943  1.9728
    5SAPS  H16Y  658   5.532   2.217   8.620  0.9473 -2.5283 -2.7862
    5SAPS  C317  659   5.338   2.190   8.560 -0.7824 -0.4628  0.5857
    5SAPS  H17X  660   5.318   2.300   8.561  0.3184 -0.2624  2.0198
    5SAPS  H17Y  661   5.246   2.134   8.587 -1.0595  0.3439  1.3590
    5SAPS  C318  662   5.374   2.147   8.422  0.3558  0.2208 -0.7834
    5SAPS  H18X  663   5.300   2.174   8.343 -0.5046 -0.8673 -0.3584
    5SAPS  H18Y  664   5.380   2.037   8.414 -0.7137  0.1562 -0.7660
    5SAPS  H18Z  665   5.472   2.192   8.395  1.9084 -1.8414  1.2172
    6SAPS     N  666   4.827   1.711  10.989 -0.0193  0.7490 -0.5320
    6SAPS   HN1  667   4.787   1.742  11.079 -0.1606 -2.8579  0.7607
    6SAPS   HN2  668   4.862   1.792  10.935  0.6046 -0.9846 -2.8525
    6SAPS   HN3  669   4.753   1.664  10.933  1.2323  2.0446 -3.3698
    6SAPS   C12  670   4.944   1.612  11.001  0.0294  0.4401 -0.6260
    6SAPS  H12A  671   5.026   1.662  11.050  2.1877 -2.7367 -0.8596
    6SAPS   C13  672   4.918   1.475  11.080 -0.1545  0.6102  0.0310
    6SAPS  O13A  673   4.800   1.452  11.121 -0.6143  0.4723 -0.6428
    6SAPS  O13B  674   5.007   1.385  11.079 -0.2717  0.0918 -0.0470
    6SAPS   C11  675   4.984   1.579  10.855  0.1023 -0.1398 -0.2265
    6SAPS  H11A  676   4.943   1.491  10.801  0.2384 -0.0952 -0.4053
    6SAPS  H11B  677   5.091   1.548  10.861  0.7341  1.5405 -2.4060
    6SAPS     P  678   5.062   1.756  10.667  0.5010 -0.1131 -0.0937
    6SAPS   O13  679   5.165   1.800  10.765  0.7928 -0.3304  0.1637
    6SAPS   O14  680   5.093   1.660  10.559 -0.0035 -0.0613  0.1627
    6SAPS   O12  681   4.957   1.688  10.766  0.3002  0.2255 -0.4060
    6SAPS   O11  682   4.985   1.881  10.605 -0.0172  0.3916  1.0776
    6SAPS    C1  683   4.846   1.888  10.602 -0.4042  0.8530 -0.5114
    6SAPS    HA  684   4.795   1.851  10.692 -0.6386  1.7275 -0.2796
    6SAPS    HB  685   4.817   1.994  10.587  1.0300  1.4158  0.5542
    6SAPS    C2  686   4.790   1.799  10.484 -0.2044 -0.2132  0.3540
    6SAPS    HS  687   4.813   1.697  10.522 -0.9571 -0.6822 -0.4166
    6SAPS   O21  688   4.865   1.835  10.366  0.6743 -0.2380  0.3141
    6SAPS   C21  689   4.876   1.746  10.274  0.3287 -0.4501 -0.3528
    6SAPS   O22  690   4.851   1.626  10.289 -0.4990  0.7198 -0.4554
    6SAPS   C22  691   4.928   1.804  10.139 -0.6047 -0.5632  0.3819
    6SAPS   H2R  692   4.856   1.884  10.112  0.8906  1.0543  1.1220
    6SAPS   H2S  693   5.025   1.855  10.158 -0.9650 -0.0289  0.7879
    6SAPS    C3  694   4.634   1.811  10.463  0.1081  0.0362  0.6342
    6SAPS    HX  695   4.600   1.901  10.407  0.6296  0.1744  0.5299
    6SAPS    HY  696   4.585   1.808  10.562  2.7454  0.9015  2.0014
    6SAPS   O31  697   4.600   1.693  10.394 -0.0504  0.1008 -0.1229
    6SAPS   C31  698   4.527   1.596  10.451  0.0112  0.1522 -0.3281
    6SAPS   O32  699   4.487   1.594  10.567 -0.1414 -0.4688 -0.4125
    6SAPS   C32  700   4.495   1.495  10.335 -0.3281  0.1944 -0.3281
    6SAPS   H2X  701   4.584   1.499  10.269 -0.3937 -0.4029 -0.4563
    6SAPS   H2Y  702   4.416   1.542  10.272  0.9110  1.3514 -1.0640
    6SAPS   C23  703   4.946   1.695  10.033 -0.1526  0.3416 -0.8958
    6SAPS   H3R  704   4.853   1.636  10.019 -1.1968  2.0197 -1.2555
    6SAPS   H3S  705   5.032   1.630  10.058  1.8357  2.3061 -2.4302
    6SAPS   C24  706   4.960   1.748   9.884 -0.1975 -0.1742 -0.1144
    6SAPS   H4R  707   4.994   1.656   9.831  1.3359 -0.1078  0.7094
    6SAPS   H4S  708   5.041   1.823   9.878  0.1128 -0.5209 -0.3338
    6SAPS   C25  709   4.832   1.797   9.820 -0.1755 -0.3729  0.3260
    6SAPS   H5R  710   4.750   1.822   9.889  1.4412  2.2254  1.3865
    6SAPS   C26  711   4.800   1.795   9.692 -0.5363 -0.4553 -0.0819
    6SAPS   H6R  712   4.708   1.849   9.665 -1.0149 -0.2666  1.8113
    6SAPS   C27  713   4.890   1.766   9.575 -0.3139  0.6255 -0.0648
    6SAPS   H7R  714   4.846   1.685   9.512  1.6017  0.3130 -1.0493
    6SAPS   H7S  715   4.987   1.729   9.615 -0.0484  1.0652 -0.3076
    6SAPS   C28  716   4.913   1.896   9.503 -0.5203  0.6608 -0.9268
    6SAPS   H8R  717   4.958   1.975   9.564 -1.1754 -0.6233  1.2605
    6SAPS   C29  718   4.892   1.915   9.375  0.0591 -0.3256 -0.6469
    6SAPS   H9R  719   4.922   2.010   9.328  0.5767 -0.4797 -0.6370
    6SAPS  C210  720   4.834   1.814   9.278 -0.8798  0.6353 -0.0502
    6SAPS  H10R  721   4.860   1.712   9.313  1.5671  1.2370 -0.0573
    6SAPS  H10S  722   4.895   1.835   9.188  2.6626  0.0209  2.1031
    6SAPS  C211  723   4.688   1.822   9.256  0.8258  0.4728  0.5157
    6SAPS  H11R  724   4.625   1.856   9.340 -0.3154  0.6729 -0.3976
    6SAPS  C212  725   4.623   1.792   9.138  0.1735 -0.0869 -0.2073
    6SAPS  H12R  726   4.513   1.794   9.146  0.1448 -0.2163 -0.5702
    6SAPS  C213  727   4.691   1.759   9.001  0.1833 -0.4288 -0.2442
    6SAPS  H13R  728   4.655   1.663   8.958  1.1190  0.2634 -2.6539
    6SAPS  H13S  729   4.797   1.732   9.023 -0.2291 -2.0777 -0.2050
    6SAPS  C214  730   4.687   1.880   8.912 -0.2362  0.5374 -0.3016
    6SAPS  H14R  731   4.770   1.951   8.928  1.7544 -2.6411  4.6968
    6SAPS  C215  732   4.589   1.902   8.825  0.3282 -0.0252 -0.6422
    6SAPS  H15R  733   4.585   1.991   8.760 -2.6990  1.8173  1.9202
    6SAPS  C216  734   4.468   1.808   8.800  0.2564 -0.2969  0.0574
    6SAPS  H16R  735   4.413   1.787   8.894 -0.5446 -1.1905 -0.5994
    6SAPS  H16S  736   4.510   1.711   8.767  0.2917  0.0564 -0.9697
    6SAPS  C217  737   4.369   1.854   8.689  0.2605 -0.0950 -0.1947
    6SAPS  H17R  738   4.292   1.774   8.682  1.1110 -1.0419  0.9879
    6SAPS  H17S  739   4.426   1.852   8.593  1.0878  0.4796  0.2857
    6SAPS  C218  740   4.287   1.977   8.721 -0.7434  0.2952 -0.4205
    6SAPS  H18R  741   4.356   2.060   8.745  1.3202 -1.3275 -0.5455
    6SAPS  H18S  742   4.226   1.952   8.810  0.3448 -2.1220 -0.3035
    6SAPS  C219  743   4.187   2.018   8.611  0.5347 -0.0297 -0.3279
    6SAPS  H19R  744   4.117   2.084   8.667  1.1043  0.0789  0.2604
    6SAPS  H19S  745   4.135   1.927   8.575  0.4434 -0.1712  0.1600
    6SAPS  C220  746   4.258   2.085   8.493 -0.1998 -0.4152  0.8969
    6SAPS  H20R  747   4.311   2.180   8.519  1.3569 -0.5714 -1.4437
    6SAPS  H20S  748   4.185   2.112   8.413  1.1564  0.6412 -0.0198
    6SAPS  H20T  749   4.321   2.008   8.444 -0.7038 -0.7136  0.7160
    6SAPS   C33  750   4.437   1.359  10.373 -0.2431  0.2651  0.1137
    6SAPS   H3X  751   4.376   1.381  10.463  1.3726 -0.5013  1.4251
    6SAPS   H3Y  752   4.509   1.280  10.403  1.0135  1.3404 -0.0743
    6SAPS   C34  753   4.340   1.308  10.266 -0.4883 -0.3068 -0.1794
    6SAPS   H4X  754   4.262   1.384  10.243 -0.7979 -0.6409 -0.2456
    6SAPS   H4Y  755   4.291   1.217  10.307 -1.4933 -0.6895 -2.1577
    6SAPS   C35  756   4.415   1.272  10.139  0.5370 -0.1663  0.4184
    6SAPS   H5X  757   4.519   1.239  10.162  0.1800 -1.5548  0.1283
    6SAPS   H5Y  758   4.436   1.365  10.083 -0.0398 -0.0213  0.4460
    6SAPS   C36  759   4.339   1.167  10.055 -0.8572  0.2289 -0.1832
    6SAPS   H6X  760   4.242   1.216  10.033 -0.0209  2.3005  0.5565
    6SAPS   H6Y  761   4.318   1.067  10.098 -0.1611 -0.5484 -1.5972
    6SAPS   C37  762   4.396   1.147   9.913 -0.4237  0.6452 -0.3488
    6SAPS   H7X  763   4.495   1.097   9.921  0.2868  1.6512 -2.5468
    6SAPS   H7Y  764   4.413   1.247   9.868 -1.7639  0.6446 -0.8744
    6SAPS   C38  765   4.307   1.069   9.820 -0.3946 -0.1238  0.1798
    6SAPS   H8X  766   4.212   1.125   9.809  0.8408  1.7303 -1.3687
    6SAPS   H8Y  767   4.277   0.971   9.862  1.0461 -0.8464 -0.4490
    6SAPS   C39  768   4.360   1.072   9.676 -0.1041 -0.1105  1.2037
    6SAPS   H9X  769   4.454   1.013   9.683  0.9461  1.3304 -0.3141
    6SAPS   H9Y  770   4.390   1.175   9.649  0.6872  0.1235  2.9377
    6SAPS  C310  771   4.270   1.018   9.568  0.9464  0.3375 -0.0778
    6SAPS  H10X  772   4.176   1.078   9.566  0.5773 -0.1880  0.7534
    6SAPS  H10Y  773   4.236   0.920   9.609  0.6102  1.6412  2.9226
    6SAPS  C311  774   4.339   1.009   9.436 -0.3999 -0.0046  0.6549
    6SAPS  H11X  775   4.422   0.934   9.442  1.0910  1.6257  0.7471
    6SAPS  H11Y  776   4.396   1.101   9.411  1.4935 -1.7185 -1.5906
    6SAPS  C312  777   4.260   0.969   9.315 -0.3854  0.2416  0.1018
    6SAPS  H12X  778   4.182   1.047   9.305  0.3364  1.7001  4.5735
    6SAPS  H12Y  779   4.204   0.873   9.326  0.1944 -0.3386 -1.8693
    6SAPS  C313  780   4.337   0.962   9.185 -0.5988  0.4576  0.1805
    6SAPS  H13X  781   4.410   0.879   9.181 -1.5174 -0.3283 -0.2559
    6SAPS  H13Y  782   4.398   1.055   9.177  0.2142 -0.2222 -1.5551
    6SAPS  C314  783   4.250   0.931   9.066 -0.4186 -0.4134  0.6639
    6SAPS  H14X  784   4.153   0.984   9.080  0.1547  1.0151 -0.5672
    6SAPS  H14Y  785   4.226   0.822   9.068 -0.1086 -0.5826 -2.0775
    6SAPS  C315  786   4.327   0.960   8.934  1.1622 -0.3338 -0.1348
    6SAPS  H15X  787   4.432   0.926   8.921  0.8032 -1.0399 -1.2900
    6SAPS  H15Y  788   4.338   1.071   8.935  1.5811 -0.3761  0.6059
    6SAPS  C316  789   4.248   0.909   8.817 -0.0509  0.2092  0.7145
    6SAPS  H16X  790   4.140   0.926   8.834 -0.5041  0.2686 -2.0527
    6SAPS  H16Y  791   4.257   0.799   8.814 -1.6293  0.1332 -1.9170
    6SAPS  C317  792   4.300   0.971   8.688  1.3881  0.0845 -0.1037
    6SAPS  H17X  793   4.281   1.079   8.702  1.1516 -0.1219  1.3177
    6SAPS  H17Y  794   4.245   0.939   8.597  1.6361 -3.2328  0.8312
    6SAPS  C318  795   4.453   0.960   8.662  0.3169  0.5620 -0.1438
    6SAPS  H18X  796   4.487   0.857   8.684 -1.0648 -0.7570 -3.7869
    6SAPS  H18Y  797   4.508   1.039   8.718 -0.4294  1.8090 -1.1296
    6SAPS  H18Z  798   4.459   0.991   8.555 -2.4564 -0.3077 -0.5888
    7SAPS     N  799   6.707   2.378  11.003  0.1509  0.6247 -0.0934
    7SAPS   HN1  800   6.745   2.292  10.960 -1.5782 -0.2030  0.0317
    7SAPS   HN2  801   6.710   2.358  11.105 -0.0395  3.1323  0.4389
    7SAPS   HN3  802   6.609   2.380  10.970 -0.1367  1.0690  0.7672
    7SAPS   C12  803   6.791   2.498  10.971  0.2438  1.0751 -0.5919
    7SAPS  H12A  804   6.744   2.580  11.023 -2.0426 -0.5338 -0.0464
    7SAPS   C13  805   6.938   2.495  11.023 -0.0788  0.4392 -0.2982
    7SAPS  O13A  806   6.982   2.391  11.080  0.2049  0.0374  0.3912
    7SAPS  O13B  807   7.000   2.604  11.023  0.3662  0.1079 -0.5327
    7SAPS   C11  808   6.776   2.510  10.818  0.2294 -0.1037  0.4633
    7SAPS  H11A  809   6.839   2.434  10.768 -0.6935  0.7704 -2.1273
    7SAPS  H11B  810   6.806   2.611  10.781  0.7249 -0.5713 -0.4247
    7SAPS     P  811   6.540   2.587  10.746  0.0938 -0.0611 -0.0414
    7SAPS   O13  812   6.405   2.535  10.784  0.3066 -0.0878  0.1213
    7SAPS   O14  813   6.581   2.715  10.809  0.0288 -0.5916 -0.6192
    7SAPS   O12  814   6.646   2.473  10.772  0.1068  0.3151 -0.2739
    7SAPS   O11  815   6.543   2.606  10.586  0.8263 -0.3644  0.1068
    7SAPS    C1  816   6.584   2.499  10.498 -0.6813 -0.4609 -0.4673
    7SAPS    HA  817   6.688   2.473  10.526 -1.0880 -1.2245  0.3553
    7SAPS    HB  818   6.517   2.415  10.524 -1.0779 -0.3661 -1.1792
    7SAPS    C2  819   6.581   2.534  10.354  0.1694  0.5296  0.6715
    7SAPS    HS  820   6.668   2.596  10.323  0.5880 -0.4454 -0.1313
    7SAPS   O21  821   6.468   2.614  10.314 -0.3679 -0.4510  0.3225
    7SAPS   C21  822   6.475   2.736  10.358 -0.6008 -0.5035 -0.2037
    7SAPS   O22  823   6.577   2.799  10.377 -0.2699 -0.5704 -0.3344
    7SAPS   C22  824   6.333   2.772  10.375  1.4000 -0.1842  0.3587
    7SAPS   H2R  825   6.266   2.730  10.298 -1.0059  0.9519  1.7729
    7SAPS   H2S  826   6.291   2.735  10.471  1.0029 -0.0482  0.2394
    7SAPS    C3  827   6.580   2.413  10.252 -0.1567 -0.5130 -0.6390
    7SAPS    HX  828   6.489   2.365  10.295  0.4448  0.1845  1.4527
    7SAPS    HY  829   6.662   2.339  10.266 -0.2857 -1.0391 -2.4961
    7SAPS   O31  830   6.568   2.448  10.109  0.7115  0.9588  0.8155
    7SAPS   C31  831   6.682   2.491  10.060  0.1630 -0.7033  0.9430
    7SAPS   O32  832   6.784   2.515  10.124  0.0908 -0.0703  0.0130
    7SAPS   C32  833   6.648   2.523   9.913  0.2489  0.2392 -0.2730
    7SAPS   H2X  834   6.596   2.621   9.910 -0.0351  0.2894  3.4969
    7SAPS   H2Y  835   6.581   2.446   9.869  1.5000 -0.8326 -0.3264
    7SAPS   C23  836   6.324   2.928  10.370 -0.5802  0.0355 -1.0322
    7SAPS   H3R  837   6.390   2.971  10.449 -1.2475 -2.2338  0.8067
    7SAPS   H3S  838   6.218   2.946  10.399 -0.8832 -1.1406 -1.3833
    7SAPS   C24  839   6.359   3.000  10.236 -0.0644 -0.3003 -0.1433
    7SAPS   H4R  840   6.465   2.986  10.207  0.3636 -0.7395  1.5353
    7SAPS   H4S  841   6.363   3.109  10.261  2.7131 -0.5808  0.7850
    7SAPS   C25  842   6.262   2.970  10.124  0.4505 -0.6487 -0.1287
    7SAPS   H5R  843   6.158   3.000  10.146  0.4894 -0.9837  0.5301
    7SAPS   C26  844   6.291   2.905  10.002 -0.7522 -0.3516  0.1320
    7SAPS   H6R  845   6.213   2.922   9.926  0.4065 -0.1696 -1.0332
    7SAPS   C27  846   6.423   2.852   9.958  0.3820  0.0375  0.0512
    7SAPS   H7R  847   6.405   2.743   9.944  1.9941 -0.1880 -0.3227
    7SAPS   H7S  848   6.504   2.872  10.031  1.6677  1.3644 -1.6941
    7SAPS   C28  849   6.471   2.907   9.830 -0.1171  0.5598 -0.0751
    7SAPS   H8R  850   6.556   2.976   9.831 -0.4635  0.9879  0.4097
    7SAPS   C29  851   6.426   2.878   9.706  0.0863 -0.2200  0.6837
    7SAPS   H9R  852   6.472   2.942   9.629 -0.6236  1.2468  1.4644
    7SAPS  C210  853   6.321   2.782   9.656 -0.6549 -0.4403  0.2023
    7SAPS  H10R  854   6.267   2.829   9.571 -2.6275 -1.2827  0.9564
    7SAPS  H10S  855   6.241   2.765   9.731  0.5743  1.8793  2.0927
    7SAPS  C211  856   6.388   2.646   9.627  0.4571 -0.1966  0.6502
    7SAPS  H11R  857   6.384   2.578   9.713 -1.1555  0.0759  0.8072
    7SAPS  C212  858   6.424   2.598   9.510  0.3192 -0.2544 -0.3553
    7SAPS  H12R  859   6.483   2.505   9.508  0.3115 -0.3228  1.3678
    7SAPS  C213  860   6.402   2.673   9.378  0.5033 -0.2775 -0.6041
    7SAPS  H13R  861   6.373   2.778   9.400  0.9792 -0.1380 -0.6284
    7SAPS  H13S  862   6.322   2.618   9.325 -0.6781  0.1712  0.6949
    7SAPS  C214  863   6.523   2.661   9.289 -0.1760  0.4028  0.0154
    7SAPS  H14R  864   6.620   2.671   9.340  0.2250  1.4891 -0.9390
    7SAPS  C215  865   6.529   2.661   9.155  0.3747 -0.3756 -0.6870
    7SAPS  H15R  866   6.624   2.683   9.103 -0.1256 -0.2512 -1.5634
    7SAPS  C216  867   6.413   2.670   9.054 -0.0536  0.5275 -0.6480
    7SAPS  H16R  868   6.443   2.746   8.978 -0.9982  1.4548 -0.1112
    7SAPS  H16S  869   6.321   2.711   9.102  0.8653  2.2835 -0.3353
    7SAPS  C217  870   6.376   2.541   8.979 -0.0261  0.4896  0.3583
    7SAPS  H17R  871   6.461   2.502   8.920 -1.5966  0.1979 -1.7696
    7SAPS  H17S  872   6.298   2.570   8.905 -1.4520  1.5967  2.2467
    7SAPS  C218  873   6.313   2.421   9.062 -0.1411 -0.0338  0.6648
    7SAPS  H18R  874   6.211   2.450   9.093 -0.9565 -2.3806  0.2809
    7SAPS  H18S  875   6.371   2.393   9.153 -1.5308 -0.7796  1.3412
    7SAPS  C219  876   6.294   2.299   8.973 -0.4715 -0.1527  0.0993
    7SAPS  H19R  877   6.271   2.206   9.030 -0.8510  0.0727  0.3131
    7SAPS  H19S  878   6.386   2.286   8.911  0.1174  1.0098  0.7207
    7SAPS  C220  879   6.178   2.327   8.875 -0.0677  1.0441 -0.2808
    7SAPS  H20R  880   6.209   2.412   8.812 -1.4750  1.6313 -0.2101
    7SAPS  H20S  881   6.104   2.368   8.947  0.9505  4.0294 -0.8665
    7SAPS  H20T  882   6.138   2.243   8.813  0.5331  0.1059  0.5767
    7SAPS   C33  883   6.779   2.531   9.831 -0.2556  0.0582 -0.0386
    7SAPS   H3X  884   6.826   2.433   9.853  0.6641  0.5409  0.1757
    7SAPS   H3Y  885   6.844   2.615   9.863  0.1838 -0.5561  0.6846
    7SAPS   C34  886   6.747   2.544   9.682 -0.1856  0.4513  0.2404
    7SAPS   H4X  887   6.712   2.647   9.662 -1.1769 -0.0775 -0.7979
    7SAPS   H4Y  888   6.662   2.484   9.643  0.4494  0.3712 -1.0386
    7SAPS   C35  889   6.876   2.518   9.598 -0.3919 -0.6253 -0.6214
    7SAPS   H5X  890   6.912   2.413   9.610 -0.9810 -0.8622 -0.8863
    7SAPS   H5Y  891   6.958   2.586   9.628 -0.0572 -1.1249 -0.4018
    7SAPS   C36  892   6.839   2.536   9.451 -0.5129 -0.6425 -0.5511
    7SAPS   H6X  893   6.788   2.634   9.440 -1.0156 -0.9102 -0.6082
    7SAPS   H6Y  894   6.768   2.467   9.401 -1.3467  0.1804 -0.5096
    7SAPS   C37  895   6.963   2.535   9.363 -0.2144  0.5036 -0.0499
    7SAPS   H7X  896   7.002   2.431   9.377  0.1361  0.6424  0.0094
    7SAPS   H7Y  897   7.039   2.608   9.397  0.5229 -0.6277  0.8128
    7SAPS   C38  898   6.931   2.546   9.211  0.4444  0.3272 -0.9869
    7SAPS   H8X  899   7.024   2.528   9.152  0.4535  0.3592 -0.9821
    7SAPS   H8Y  900   6.885   2.645   9.191 -0.4097 -0.0566 -0.9335
    7SAPS   C39  901   6.822   2.448   9.150  0.3356  0.1985 -0.3101
    7SAPS   H9X  902   6.718   2.452   9.189  0.8688 -1.5506  1.3770
    7SAPS   H9Y  903   6.876   2.352   9.168 -0.9160 -0.5416 -0.4506
    7SAPS  C310  904   6.818   2.462   8.996 -0.8804 -0.5950  0.6748
    7SAPS  H10X  905   6.917   2.451   8.947 -0.9399  0.4367  0.3068
    7SAPS  H10Y  906   6.795   2.564   8.958 -0.7945 -1.0082 -0.4933
    7SAPS  C311  907   6.733   2.362   8.921  0.0055  0.4717 -0.4277
    7SAPS  H11X  908   6.628   2.366   8.955  0.4859 -0.5582  1.2828
    7SAPS  H11Y  909   6.771   2.262   8.953 -0.9588  0.5448  1.0049
    7SAPS  C312  910   6.755   2.373   8.768 -0.3024  0.2886 -0.3467
    7SAPS  H12X  911   6.864   2.355   8.750 -0.1978  0.4852  0.0949
    7SAPS  H12Y  912   6.728   2.475   8.736  0.2703  0.9326  1.1638
    7SAPS  C313  913   6.681   2.273   8.682  0.0708 -0.1165 -0.1524
    7SAPS  H13X  914   6.575   2.288   8.712  0.5583  3.7845 -0.1818
    7SAPS  H13Y  915   6.718   2.169   8.696  0.1732 -0.2921 -1.6378
    7SAPS  C314  916   6.687   2.310   8.530  0.0356  0.0408 -0.8719
    7SAPS  H14X  917   6.791   2.323   8.492  0.4920 -0.0421  0.3164
    7SAPS  H14Y  918   6.640   2.409   8.512  0.1179 -0.0457 -1.5717
    7SAPS  C315  919   6.598   2.205   8.456 -0.6396  0.3233  0.1331
    7SAPS  H15X  920   6.492   2.222   8.485 -0.7507  2.4121 -1.3762
    7SAPS  H15Y  921   6.620   2.106   8.501 -2.7391  0.3832  1.3361
    7SAPS  C316  922   6.617   2.194   8.298  0.3878 -0.2174 -0.3432
    7SAPS  H16X  923   6.570   2.101   8.259  1.6998 -0.7446 -0.6882
    7SAPS  H16Y  924   6.726   2.176   8.289  0.3232 -1.0106  0.3995
    7SAPS  C317  925   6.576   2.320   8.219  0.0443 -0.0281 -0.4581
    7SAPS  H17X  926   6.608   2.297   8.115  1.8796 -0.7731  0.2391
    7SAPS  H17Y  927   6.637   2.408   8.251  0.2750 -0.5853  0.6518
    7SAPS  C318  928   6.435   2.354   8.235 -0.1108  0.5925 -0.5529
    7SAPS  H18X  929   6.417   2.379   8.342  0.4685 -0.9901 -0.0690
    7SAPS  H18Y  930   6.368   2.267   8.218 -1.7529  1.6055  0.5530
    7SAPS  H18Z  931   6.392   2.432   8.169  0.9795 -0.7772 -2.9433
    8SAPS     N  932   4.303   4.220  10.849  0.3621  0.4225  0.2171
    8SAPS   HN1  933   4.201   4.224  10.832  0.1395  1.5569  1.7124
    8SAPS   HN2  934   4.338   4.308  10.806  0.2720  0.4045  0.1084
    8SAPS   HN3  935   4.333   4.134  10.799 -0.0128  2.5951 -3.9810
    8SAPS   C12  936   4.347   4.206  10.990 -0.7393  0.2103 -0.9110
    8SAPS  H12A  937   4.324   4.297  11.044  1.0714 -1.4746  2.8846
    8SAPS   C13  938   4.288   4.074  11.057 -0.1801  0.1994 -0.2708
    8SAPS  O13A  939   4.216   4.001  10.994  0.1715  0.0197 -0.1700
    8SAPS  O13B  940   4.319   4.049  11.176  0.1095 -0.3247  0.0923
    8SAPS   C11  941   4.507   4.200  10.998  0.2854  0.2321  0.0521
    8SAPS  H11A  942   4.537   4.097  10.968 -1.3199 -1.3036  3.3798
    8SAPS  H11B  943   4.534   4.211  11.106 -0.2322  0.0352  0.2039
    8SAPS     P  944   4.728   4.292  10.902 -0.0226  0.1998  0.3965
    8SAPS   O13  945   4.771   4.429  10.866 -0.5790  0.2068 -0.6539
    8SAPS   O14  946   4.781   4.231  11.024  0.3066  0.0120 -0.8759
    8SAPS   O12  947   4.566   4.304  10.918  0.0861  0.6632  0.4883
    8SAPS   O11  948   4.753   4.193  10.780  0.6462 -0.4076 -0.4910
    8SAPS    C1  949   4.692   4.204  10.649  0.4687  0.3390 -0.2603
    8SAPS    HA  950   4.706   4.104  10.604 -0.8810 -0.3077  0.7067
    8SAPS    HB  951   4.582   4.222  10.652  0.7180  2.4537 -2.2418
    8SAPS    C2  952   4.768   4.312  10.564 -0.4648  0.2085 -0.1327
    8SAPS    HS  953   4.746   4.415  10.598  1.3905  0.2841  0.9076
    8SAPS   O21  954   4.750   4.301  10.424  0.2867  0.3268 -0.2040
    8SAPS   C21  955   4.628   4.309  10.384  0.5156 -0.2914  0.3070
    8SAPS   O22  956   4.529   4.337  10.455 -0.6264  0.6723  0.4640
    8SAPS   C22  957   4.625   4.281  10.237 -0.5062  0.8156 -0.7636
    8SAPS   H2R  958   4.539   4.338  10.196 -1.7382 -0.8099 -0.5467
    8SAPS   H2S  959   4.713   4.324  10.186 -1.5626  1.4762 -2.0453
    8SAPS    C3  960   4.925   4.303  10.579  0.1452 -0.0987 -0.8795
    8SAPS    HX  961   4.944   4.194  10.575 -0.2503 -0.2194  0.2121
    8SAPS    HY  962   4.959   4.330  10.682  0.0458 -1.4976 -0.4627
    8SAPS   O31  963   4.996   4.378  10.476  0.0800  0.5894 -0.0593
    8SAPS   C31  964   4.989   4.507  10.485  0.8924  0.0784 -0.6044
    8SAPS   O32  965   4.943   4.574  10.577  0.2171 -0.3084  0.6086
    8SAPS   C32  966   5.035   4.571  10.357 -0.1766 -0.3822 -0.4216
    8SAPS   H2X  967   5.145   4.564  10.372 -0.2576  0.4842  0.6745
    8SAPS   H2Y  968   4.993   4.674  10.351 -0.2615 -0.4607 -1.1786
    8SAPS   C23  969   4.605   4.125  10.206 -0.7342 -0.1858 -0.1954
    8SAPS   H3R  970   4.511   4.092  10.256 -0.6286  0.0722  0.1800
    8SAPS   H3S  971   4.678   4.067  10.266 -1.7889  1.7063  3.0474
    8SAPS   C24  972   4.599   4.085  10.065  0.2338 -0.4443 -0.6426
    8SAPS   H4R  973   4.527   4.152  10.013 -1.6253 -0.5656  1.6725
    8SAPS   H4S  974   4.553   3.984  10.054 -3.6828  1.2730 -0.7814
    8SAPS   C25  975   4.738   4.095  10.003 -0.7060  0.0155  0.1978
    8SAPS   H5R  976   4.811   4.022  10.042 -0.3303  0.1818 -0.1816
    8SAPS   C26  977   4.774   4.191   9.911 -0.0734  0.1403 -0.1804
    8SAPS   H6R  978   4.874   4.189   9.865  0.0365 -0.4882  0.0755
    8SAPS   C27  979   4.685   4.295   9.850 -0.4794 -0.1063  0.1141
    8SAPS   H7R  980   4.700   4.382   9.918  1.2749 -1.8576  2.0194
    8SAPS   H7S  981   4.577   4.272   9.865 -0.6011  0.6529  0.4290
    8SAPS   C28  982   4.707   4.327   9.706 -0.5869  0.3298 -0.4329
    8SAPS   H8R  983   4.760   4.257   9.641 -0.2861  0.1950 -0.0462
    8SAPS   C29  984   4.641   4.430   9.639  0.5947 -0.4126  1.3789
    8SAPS   H9R  985   4.648   4.440   9.529 -0.3141  3.7041  1.6152
    8SAPS  C210  986   4.533   4.519   9.704 -0.6062  0.0085 -0.1551
    8SAPS  H10R  987   4.571   4.545   9.805 -2.5896  0.9876  0.3596
    8SAPS  H10S  988   4.441   4.460   9.721 -0.1020 -0.6751  0.2214
    8SAPS  C211  989   4.509   4.658   9.647 -0.0686 -0.2993 -0.0422
    8SAPS  H11R  990   4.543   4.753   9.690  0.4031  0.8048 -2.7431
    8SAPS  C212  991   4.435   4.662   9.534 -0.4387 -0.0064 -0.0085
    8SAPS  H12R  992   4.399   4.762   9.505  0.7076 -0.2313 -2.3148
    8SAPS  C213  993   4.369   4.551   9.461  0.4287  0.8251  0.8306
    8SAPS  H13R  994   4.295   4.501   9.527  2.5953 -2.4130  0.9323
    8SAPS  H13S  995   4.443   4.470   9.444 -1.9470 -1.0520 -0.9418
    8SAPS  C214  996   4.313   4.582   9.324  0.2095 -0.2718 -0.0775
    8SAPS  H14R  997   4.314   4.687   9.291 -1.2527 -0.6993 -1.5619
    8SAPS  C215  998   4.262   4.490   9.237  0.1229 -0.8273 -0.4953
    8SAPS  H15R  999   4.217   4.522   9.142 -0.4680  0.2849  0.1389
    8SAPS  C216 1000   4.248   4.343   9.275  0.1218  0.0720 -0.1489
    8SAPS  H16R 1001   4.140   4.322   9.261  0.1403  0.9668 -1.7989
    8SAPS  H16S 1002   4.274   4.331   9.382 -0.7152  0.6726  0.1184
    8SAPS  C217 1003   4.347   4.247   9.208 -0.1492  0.2484  0.5437
    8SAPS  H17R 1004   4.452   4.278   9.226 -0.1523  0.7397 -0.2576
    8SAPS  H17S 1005   4.329   4.252   9.098  0.2050 -1.2407  0.3944
    8SAPS  C218 1006   4.334   4.105   9.255  0.9357 -0.0308 -0.3181
    8SAPS  H18R 1007   4.276   4.102   9.351 -0.0598  2.4340 -0.8114
    8SAPS  H18S 1008   4.433   4.061   9.281  0.4840  0.4574  2.3730
    8SAPS  C219 1009   4.246   4.016   9.161  0.1739 -0.4333 -0.5115
    8SAPS  H19R 1010   4.296   4.003   9.062 -1.1822  1.7446 -1.5415
    8SAPS  H19S 1011   4.151   4.072   9.143 -0.0653 -0.0116  1.9737
    8SAPS  C220 1012   4.221   3.880   9.224  1.1205 -0.1923  0.5492
    8SAPS  H20R 1013   4.317   3.824   9.231  0.6202 -1.4037 -1.8283
    8SAPS  H20S 1014   4.166   3.816   9.152 -1.1061  1.9084  0.3209
    8SAPS  H20T 1015   4.178   3.888   9.326  0.8725  2.2044  0.2781
    8SAPS   C33 1016   5.008   4.506  10.214  0.2117  0.6776  0.1941
    8SAPS   H3X 1017   4.902   4.516  10.184  0.1060  1.7970  0.9034
    8SAPS   H3Y 1018   5.047   4.402  10.213 -1.1993  0.1452 -2.3840
    8SAPS   C34 1019   5.100   4.574  10.110  0.3646  0.3945 -0.5086
    8SAPS   H4X 1020   5.207   4.582  10.139 -0.0255  1.2048  0.7446
    8SAPS   H4Y 1021   5.071   4.678  10.084  1.4267  0.5786 -0.9698
    8SAPS   C35 1022   5.101   4.507   9.966  0.4475  0.7351  0.5710
    8SAPS   H5X 1023   4.997   4.524   9.931  1.2310  1.3869 -1.4847
    8SAPS   H5Y 1024   5.130   4.400   9.967 -0.2933  0.5228 -0.4069
    8SAPS   C36 1025   5.184   4.583   9.859  0.3980 -0.5694 -0.1609
    8SAPS   H6X 1026   5.292   4.568   9.880  0.8634 -0.0969 -2.1037
    8SAPS   H6Y 1027   5.180   4.692   9.879  3.6337  0.0569 -2.3599
    8SAPS   C37 1028   5.137   4.553   9.716  0.0152  0.8423  0.4496
    8SAPS   H7X 1029   5.041   4.590   9.676  0.1541  0.5194 -0.1912
    8SAPS   H7Y 1030   5.145   4.442   9.705 -2.9973  0.7527 -1.1439
    8SAPS   C38 1031   5.243   4.616   9.619  0.1294 -0.2141 -0.3104
    8SAPS   H8X 1032   5.339   4.567   9.648 -1.0535 -1.8258  1.0163
    8SAPS   H8Y 1033   5.247   4.725   9.638 -1.6136 -0.1627 -0.1609
    8SAPS   C39 1034   5.215   4.591   9.472 -0.6956  0.6222  0.1152
    8SAPS   H9X 1035   5.111   4.612   9.439 -0.4526 -0.9279 -1.7335
    8SAPS   H9Y 1036   5.239   4.484   9.455  1.4868  1.2119 -0.6328
    8SAPS  C310 1037   5.299   4.674   9.382  0.3384 -0.2744 -0.0086
    8SAPS  H10X 1038   5.406   4.668   9.411  0.0828 -1.4511  0.7066
    8SAPS  H10Y 1039   5.266   4.776   9.410  0.1229 -0.1678 -0.6300
    8SAPS  C311 1040   5.285   4.654   9.228  0.0856 -0.1951 -0.6395
    8SAPS  H11X 1041   5.383   4.635   9.179  0.9889 -0.2167  1.1212
    8SAPS  H11Y 1042   5.246   4.744   9.176  0.1657  0.1150 -0.1749
    8SAPS  C312 1043   5.188   4.537   9.189  0.0504  0.5866 -0.0674
    8SAPS  H12X 1044   5.081   4.561   9.207  0.2936  1.1826  0.6000
    8SAPS  H12Y 1045   5.216   4.443   9.242 -1.3835 -0.2520 -0.7895
    8SAPS  C313 1046   5.203   4.503   9.038  0.1119 -0.0704 -0.2255
    8SAPS  H13X 1047   5.310   4.484   9.015 -0.2129  0.4291 -2.2818
    8SAPS  H13Y 1048   5.164   4.582   8.970  1.0890  0.5766 -0.0517
    8SAPS  C314 1049   5.124   4.376   9.002  0.2442  0.1563 -0.0659
    8SAPS  H14X 1050   5.017   4.401   9.014  0.5029  0.9470  0.6535
    8SAPS  H14Y 1051   5.156   4.292   9.068 -1.1366 -1.0876 -0.9530
    8SAPS  C315 1052   5.144   4.333   8.855 -0.3403  0.4971 -0.5014
    8SAPS  H15X 1053   5.253   4.324   8.832 -0.0542 -0.0800  1.0371
    8SAPS  H15Y 1054   5.102   4.399   8.776 -0.1945 -1.2891 -2.1245
    8SAPS  C316 1055   5.088   4.193   8.845 -0.2879 -0.4296 -0.2407
    8SAPS  H16X 1056   4.980   4.198   8.872 -0.2726  1.6084 -0.4725
    8SAPS  H16Y 1057   5.130   4.133   8.929  2.7113  1.7080 -0.1370
    8SAPS  C317 1058   5.118   4.117   8.711 -0.3013  1.0095 -0.5587
    8SAPS  H17X 1059   5.065   4.020   8.715  0.1119  0.8050 -0.0130
    8SAPS  H17Y 1060   5.225   4.087   8.717 -0.8948 -1.0035  0.2043
    8SAPS  C318 1061   5.077   4.200   8.590 -0.2784 -0.1670  1.0376
    8SAPS  H18X 1062   4.982   4.258   8.595 -0.5225 -0.6142  1.6072
    8SAPS  H18Y 1063   5.066   4.144   8.495 -0.9276  1.5038  0.0918
    8SAPS  H18Z 1064   5.157   4.273   8.567  0.0011 -1.2876 -1.6830
    9SAPS     N 1065   0.138   0.250   6.326 -0.7248  0.6119  0.0134
    9SAPS   HN1 1066   0.240   0.229   6.328 -0.8030  0.3038  1.0472
    9SAPS   HN2 1067   0.091   0.166   6.285 -0.7441  0.6897 -0.1222
    9SAPS   HN3 1068   0.113   0.331   6.267 -2.7629  0.1541  0.1968
    9SAPS   C12 1069   0.098   0.248   6.476  0.0448  0.4140 -0.1492
    9SAPS  H12A 1070  -0.010   0.250   6.477 -0.0487 -2.7726 -0.6486
    9SAPS   C13 1071   0.158   0.120   6.559 -0.6598 -0.3813 -0.1825
    9SAPS  O13A 1072   0.205   0.027   6.487  0.4074 -0.4036  0.0781
    9SAPS  O13B 1073   0.120   0.096   6.675 -0.6861 -0.3437 -0.4275
    9SAPS   C11 1074   0.146   0.379   6.549  0.7147 -0.4832 -0.6046
    9SAPS  H11A 1075   0.252   0.393   6.521  0.5584  0.6315 -0.6815
    9SAPS  H11B 1076   0.126   0.362   6.657 -1.6589  0.1505 -0.9106
    9SAPS     P 1077   0.110   0.638   6.534 -0.0025 -0.5543  0.0975
    9SAPS   O13 1078   0.229   0.662   6.455 -0.1324  0.4708 -0.5125
    9SAPS   O14 1079  -0.010   0.723   6.509  0.4477 -0.4549  0.0120
    9SAPS   O12 1080   0.060   0.489   6.517  0.8667  0.1373  0.3150
    9SAPS   O11 1081   0.152   0.654   6.685  0.4473  0.3784 -0.6304
    9SAPS    C1 1082   0.075   0.602   6.790 -0.1030  0.0132  0.2997
    9SAPS    HA 1083  -0.032   0.593   6.761 -0.4267  1.3725  1.0503
    9SAPS    HB 1084   0.111   0.501   6.818 -1.3469 -0.0863  1.6124
    9SAPS    C2 1085   0.067   0.695   6.915  0.4202 -0.6054  0.0944
    9SAPS    HS 1086   0.018   0.794   6.900  0.5134 -0.5428  0.2046
    9SAPS   O21 1087   0.210   0.700   6.954 -0.1774 -0.0069  0.5108
    9SAPS   C21 1088   0.249   0.824   6.979  0.7159  0.1847  0.2733
    9SAPS   O22 1089   0.198   0.923   6.938 -0.0497 -0.0108 -0.4629
    9SAPS   C22 1090   0.366   0.823   7.080  0.5188 -0.5397 -0.9410
    9SAPS   H2R 1091   0.396   0.718   7.098  0.1940 -0.3482  0.8082
    9SAPS   H2S 1092   0.449   0.887   7.044  1.2222  0.0425  1.6183
    9SAPS    C3 1093  -0.012   0.636   7.035 -0.5464 -0.1490 -0.6537
    9SAPS    HX 1094   0.047   0.545   7.054 -0.0695  0.0458 -1.1864
    9SAPS    HY 1095  -0.116   0.610   7.006 -0.9232 -1.5262  1.7885
    9SAPS   O31 1096  -0.024   0.717   7.155 -0.0656 -0.1512  0.4788
    9SAPS   C31 1097  -0.075   0.646   7.261 -0.6728 -0.9305  0.1489
    9SAPS   O32 1098  -0.149   0.549   7.255 -0.1376 -0.1523  0.4531
    9SAPS   C32 1099  -0.031   0.716   7.385  0.4769 -0.8212 -0.8856
    9SAPS   H2X 1100  -0.058   0.824   7.391 -1.0673 -1.2564  0.5282
    9SAPS   H2Y 1101   0.079   0.703   7.378  0.8011  0.9444  0.5923
    9SAPS   C23 1102   0.320   0.863   7.221  0.0338  0.2860 -0.2634
    9SAPS   H3R 1103   0.401   0.827   7.288  0.2289  2.0642  0.4977
    9SAPS   H3S 1104   0.231   0.807   7.254  0.1799 -1.3800 -2.5412
    9SAPS   C24 1105   0.287   1.017   7.236 -0.4872  0.4890  0.4954
    9SAPS   H4R 1106   0.222   1.045   7.151 -1.7317 -0.7319  1.0142
    9SAPS   H4S 1107   0.388   1.063   7.230 -0.3940  0.3787  1.1347
    9SAPS   C25 1108   0.216   1.070   7.352  0.1414 -0.4557 -0.6866
    9SAPS   H5R 1109   0.117   1.108   7.322 -0.1885 -0.9002 -0.1782
    9SAPS   C26 1110   0.253   1.064   7.480  0.0642  0.4106  0.1828
    9SAPS   H6R 1111   0.187   1.120   7.549  0.4225  2.8267 -1.3893
    9SAPS   C27 1112   0.382   1.009   7.532  0.0049  0.2682 -0.2256
    9SAPS   H7R 1113   0.449   1.086   7.576 -1.9412  1.1622  1.2377
    9SAPS   H7S 1114   0.449   0.961   7.458 -0.4683 -1.1815  0.2675
    9SAPS   C28 1115   0.368   0.897   7.629 -0.2865  0.3771  0.3104
    9SAPS   H8R 1116   0.339   0.802   7.582  2.9096 -0.4744 -0.1060
    9SAPS   C29 1117   0.401   0.884   7.760 -0.5948  0.1777  0.5416
    9SAPS   H9R 1118   0.387   0.784   7.804  0.4576 -0.8450 -1.3825
    9SAPS  C210 1119   0.449   0.991   7.856  0.2931  0.2413 -1.1827
    9SAPS  H10R 1120   0.519   1.056   7.800  0.0960 -1.1508 -3.0907
    9SAPS  H10S 1121   0.505   0.940   7.938 -0.6201 -0.1971 -0.8190
    9SAPS  C211 1122   0.332   1.066   7.902  0.1763  0.1533  0.4763
    9SAPS  H11R 1123   0.297   1.138   7.826  1.3384 -0.3806 -0.5822
    9SAPS  C212 1124   0.276   1.055   8.026 -0.2636  0.3649  0.5082
    9SAPS  H12R 1125   0.192   1.120   8.055  0.1354  0.9147  0.4318
    9SAPS  C213 1126   0.318   0.962   8.144  0.2058  0.6035 -0.1457
    9SAPS  H13R 1127   0.422   0.986   8.173  0.6592  0.0571 -1.2806
    9SAPS  H13S 1128   0.307   0.859   8.101 -2.1050  0.8243 -0.1469
    9SAPS  C214 1129   0.237   0.974   8.271 -0.3173  0.8619  0.2715
    9SAPS  H14R 1130   0.141   0.920   8.269  0.8154 -1.1783 -1.2190
    9SAPS  C215 1131   0.261   1.060   8.372  0.2563  0.3382 -0.5888
    9SAPS  H15R 1132   0.184   1.069   8.451 -1.1576  0.2722 -1.9417
    9SAPS  C216 1133   0.366   1.165   8.391  0.6566  0.0068  0.4913
    9SAPS  H16R 1134   0.325   1.268   8.388  0.6627 -0.0352 -2.1423
    9SAPS  H16S 1135   0.451   1.172   8.319 -1.3245  3.5840 -1.6920
    9SAPS  C217 1136   0.439   1.154   8.533 -0.2580  0.0487  0.4397
    9SAPS  H17R 1137   0.513   1.071   8.533  2.1050  2.0512  3.7538
    9SAPS  H17S 1138   0.363   1.133   8.611 -0.5534 -0.1656  0.1000
    9SAPS  C218 1139   0.508   1.288   8.564  0.3409 -0.9293 -0.7067
    9SAPS  H18R 1140   0.431   1.368   8.564  1.3562  0.1313  2.0207
    9SAPS  H18S 1141   0.582   1.312   8.485  0.2289 -0.6319 -0.7205
    9SAPS  C219 1142   0.568   1.299   8.708  0.5268  0.5535  0.2081
    9SAPS  H19R 1143   0.481   1.289   8.777 -1.4175 -3.0918 -2.6140
    9SAPS  H19S 1144   0.618   1.398   8.704 -0.4156  0.9780 -1.7513
    9SAPS  C220 1145   0.677   1.192   8.756 -0.3397 -0.1032 -0.1935
    9SAPS  H20R 1146   0.637   1.090   8.737 -1.7220  0.4148 -0.1478
    9SAPS  H20S 1147   0.701   1.196   8.864  0.3902  0.7355 -0.3822
    9SAPS  H20T 1148   0.773   1.200   8.701 -0.7849 -1.6245 -1.2029
    9SAPS   C33 1149  -0.072   0.654   7.525  0.4744  0.1986  0.3161
    9SAPS   H3X 1150  -0.032   0.551   7.533 -0.6259 -0.5656 -3.0533
    9SAPS   H3Y 1151  -0.182   0.640   7.516  0.7764 -1.1108 -1.8359
    9SAPS   C34 1152  -0.023   0.737   7.640 -0.1395 -0.0632  0.3496
    9SAPS   H4X 1153  -0.096   0.820   7.648 -0.6116 -0.3732 -0.5911
    9SAPS   H4Y 1154   0.076   0.778   7.612 -0.7220 -0.4674 -2.5082
    9SAPS   C35 1155   0.006   0.670   7.773  0.4246 -0.1548 -0.3807
    9SAPS   H5X 1156   0.112   0.639   7.763  0.1552 -0.6598 -1.8063
    9SAPS   H5Y 1157  -0.066   0.586   7.788  0.0840  0.2039  0.0019
    9SAPS   C36 1158  -0.015   0.764   7.895  0.2798 -0.1806  0.3331
    9SAPS   H6X 1159  -0.120   0.801   7.889 -0.4508 -2.0888  1.0484
    9SAPS   H6Y 1160   0.053   0.851   7.885 -2.2005  2.0893  2.4030
    9SAPS   C37 1161   0.016   0.692   8.034  0.1638  0.3837  0.6558
    9SAPS   H7X 1162  -0.076   0.637   8.065  0.1636  0.6507  1.1362
    9SAPS   H7Y 1163   0.027   0.771   8.111 -3.1894  0.4655  1.1093
    9SAPS   C38 1164   0.149   0.613   8.033 -0.8616 -0.8570 -0.1419
    9SAPS   H8X 1165   0.224   0.692   8.012 -0.0775 -1.4770  0.2823
    9SAPS   H8Y 1166   0.159   0.548   7.943 -0.0760  1.0402 -1.4530
    9SAPS   C39 1167   0.171   0.537   8.163 -0.4750 -0.0266 -0.4549
    9SAPS   H9X 1168   0.118   0.439   8.162 -0.4887 -0.0237 -0.1576
    9SAPS   H9Y 1169   0.124   0.591   8.248  0.9616  0.5615 -0.0289
    9SAPS  C310 1170   0.321   0.511   8.177 -0.8162  0.0462  0.0567
    9SAPS  H10X 1171   0.379   0.606   8.179  0.6677 -0.8502  0.1732
    9SAPS  H10Y 1172   0.359   0.448   8.093 -1.2389 -0.1831  0.0351
    9SAPS  C311 1173   0.336   0.434   8.312  0.1092  0.5420 -1.1107
    9SAPS  H11X 1174   0.430   0.375   8.316  1.6646  3.0270  0.3562
    9SAPS  H11Y 1175   0.254   0.360   8.308  1.6546 -1.2074 -1.0950
    9SAPS  C312 1176   0.330   0.520   8.439  0.3431 -0.3204  0.4009
    9SAPS  H12X 1177   0.290   0.452   8.518 -0.9160 -0.6218 -0.4646
    9SAPS  H12Y 1178   0.238   0.582   8.435  0.7806  0.2678 -0.6652
    9SAPS  C313 1179   0.442   0.614   8.472 -0.5759  0.4516  0.3119
    9SAPS  H13X 1180   0.468   0.687   8.392 -3.4584  0.1492 -0.9486
    9SAPS  H13Y 1181   0.529   0.549   8.497 -1.2202 -0.6139 -0.1995
    9SAPS  C314 1182   0.408   0.701   8.595 -0.2648  0.0155  0.5740
    9SAPS  H14X 1183   0.316   0.763   8.586 -0.7117 -0.7162  0.0327
    9SAPS  H14Y 1184   0.490   0.776   8.599 -0.7206  0.6313 -1.0858
    9SAPS  C315 1185   0.398   0.626   8.726  0.3969 -0.2282  0.1959
    9SAPS  H15X 1186   0.487   0.562   8.739 -0.4578 -1.4699  0.0455
    9SAPS  H15Y 1187   0.307   0.562   8.715  0.3555 -0.0099 -0.7176
    9SAPS  C316 1188   0.379   0.708   8.852  0.3350 -0.1027 -0.0201
    9SAPS  H16X 1189   0.360   0.635   8.934 -1.0716  0.1070 -0.1542
    9SAPS  H16Y 1190   0.289   0.772   8.839  0.7170  0.5871  0.6996
    9SAPS  C317 1191   0.504   0.807   8.877 -0.5678  0.2163  0.1074
    9SAPS  H17X 1192   0.473   0.859   8.970 -0.6740 -0.2275  0.3236
    9SAPS  H17Y 1193   0.516   0.888   8.802 -0.2327  0.8002  0.7841
    9SAPS  C318 1194   0.634   0.742   8.891 -0.7216 -0.0291 -0.2521
    9SAPS  H18X 1195   0.702   0.802   8.956  1.1083 -1.6974 -0.5602
    9SAPS  H18Y 1196   0.681   0.731   8.790  2.3735 -2.2977  1.3511
    9SAPS  H18Z 1197   0.631   0.641   8.937 -0.1565  1.1791  2.5250
   10SAPS     N 1198   6.817   6.703   6.397  0.5233 -0.3770  0.1197
   10SAPS   HN1 1199   6.727   6.753   6.412  0.2993 -0.5130 -0.7189
   10SAPS   HN2 1200   6.827   6.622   6.461 -0.7707  0.2776  1.1677
   10SAPS   HN3 1201   6.895   6.762   6.433 -1.7942  2.8035  0.2116
   10SAPS   C12 1202   6.843   6.663   6.262  0.3160  0.2377  0.9641
   10SAPS  H12A 1203   6.767   6.592   6.234 -0.4232  1.1197  0.6792
   10SAPS   C13 1204   6.850   6.772   6.146  0.0084 -0.7139 -0.2472
   10SAPS  O13A 1205   6.844   6.894   6.179 -0.4800 -0.1284  0.2340
   10SAPS  O13B 1206   6.854   6.740   6.022  0.0702 -0.0623  0.4775
   10SAPS   C11 1207   6.975   6.588   6.259 -0.2839  0.6248  0.0705
   10SAPS  H11A 1208   7.056   6.661   6.283  0.2266 -0.0486  0.4156
   10SAPS  H11B 1209   7.006   6.557   6.157 -0.1438 -2.1905  0.9240
   10SAPS     P 1210   6.994   6.430   6.472 -0.4815  0.0794 -0.1332
   10SAPS   O13 1211   6.903   6.495   6.565  0.1678 -0.1775 -0.1829
   10SAPS   O14 1212   7.002   6.280   6.488  0.8784  0.0021 -0.0989
   10SAPS   O12 1213   6.958   6.465   6.327 -0.3579  0.1910  0.7779
   10SAPS   O11 1214   7.139   6.494   6.506  0.3149 -0.3211 -0.4874
   10SAPS    C1 1215   7.252   6.437   6.563 -0.6457 -0.6848  0.1918
   10SAPS    HA 1216   7.259   6.331   6.530 -1.4103 -0.3582 -1.0499
   10SAPS    HB 1217   7.334   6.489   6.509 -0.6629  0.4798  1.2644
   10SAPS    C2 1218   7.280   6.470   6.716  0.7253 -0.3325 -0.6133
   10SAPS    HS 1219   7.371   6.424   6.760  0.3973  0.4318  0.8845
   10SAPS   O21 1220   7.168   6.428   6.793  0.2069 -0.1383 -0.0999
   10SAPS   C21 1221   7.136   6.297   6.786  0.2262 -0.0131 -0.0783
   10SAPS   O22 1222   7.213   6.210   6.754 -0.2943  0.3594  0.7329
   10SAPS   C22 1223   7.004   6.279   6.850  0.2064  0.2220 -0.4880
   10SAPS   H2R 1224   6.943   6.372   6.844 -0.6274 -0.2362  0.7348
   10SAPS   H2S 1225   6.949   6.201   6.792  1.4083 -0.6165 -0.5168
   10SAPS    C3 1226   7.297   6.620   6.747  0.3162  0.1851  0.7081
   10SAPS    HX 1227   7.212   6.680   6.709  0.2964  0.4701  1.1932
   10SAPS    HY 1228   7.379   6.648   6.678  1.3495 -4.2054  0.0194
   10SAPS   O31 1229   7.331   6.648   6.881  0.0145  0.4370  0.1770
   10SAPS   C31 1230   7.238   6.661   6.975  0.1181  0.2756 -0.7023
   10SAPS   O32 1231   7.119   6.656   6.953 -0.0101  0.3109  0.6165
   10SAPS   C32 1232   7.299   6.693   7.113  0.7604 -0.1585  0.4409
   10SAPS   H2X 1233   7.317   6.802   7.125 -0.2648  0.0080  0.5045
   10SAPS   H2Y 1234   7.396   6.641   7.125 -0.5862 -2.6421  0.7295
   10SAPS   C23 1235   7.043   6.232   6.999  0.0370  0.2343 -0.4260
   10SAPS   H3R 1236   7.081   6.325   7.046  1.7513 -1.6372  2.0589
   10SAPS   H3S 1237   7.108   6.141   7.000 -1.3279 -0.7554  0.3389
   10SAPS   C24 1238   6.920   6.197   7.086  0.1523  0.2259  0.0775
   10SAPS   H4R 1239   6.973   6.149   7.171  3.0619  0.2986 -1.6251
   10SAPS   H4S 1240   6.864   6.121   7.027  2.9306 -0.2023 -2.1527
   10SAPS   C25 1241   6.828   6.308   7.126 -1.1852  0.2768  0.1741
   10SAPS   H5R 1242   6.763   6.346   7.047 -1.2060  1.1153  0.5876
   10SAPS   C26 1243   6.814   6.367   7.248 -0.6741 -0.1437 -0.4915
   10SAPS   H6R 1244   6.748   6.455   7.245 -0.3077  0.0872 -3.9509
   10SAPS   C27 1245   6.902   6.350   7.368  0.6749 -0.2971  0.2498
   10SAPS   H7R 1246   6.923   6.452   7.408 -0.0396  0.6872 -1.7982
   10SAPS   H7S 1247   7.003   6.314   7.339 -0.1534 -2.4900 -0.0016
   10SAPS   C28 1248   6.850   6.249   7.467  0.0925  0.5874 -1.0500
   10SAPS   H8R 1249   6.768   6.182   7.439  1.8419 -2.1622  0.1569
   10SAPS   C29 1250   6.900   6.220   7.590  0.3107  0.2440 -0.6177
   10SAPS   H9R 1251   6.856   6.141   7.652 -3.6385  1.1307 -2.1559
   10SAPS  C210 1252   7.013   6.302   7.648  0.1326  0.3509  0.1663
   10SAPS  H10R 1253   7.084   6.338   7.571  0.0693  0.9678  0.3883
   10SAPS  H10S 1254   7.064   6.227   7.712  0.9594  1.8825  1.3488
   10SAPS  C211 1255   6.962   6.420   7.725  0.6254  0.9886  0.0897
   10SAPS  H11R 1256   6.931   6.503   7.660 -0.2937 -1.1425 -2.3003
   10SAPS  C212 1257   6.944   6.422   7.858  0.5803 -0.0879  0.1150
   10SAPS  H12R 1258   6.910   6.515   7.906 -2.5284  0.1859 -2.4550
   10SAPS  C213 1259   6.969   6.312   7.957  0.0784  0.0279 -0.5612
   10SAPS  H13R 1260   7.073   6.307   7.995  0.1985  1.1252 -0.7210
   10SAPS  H13S 1261   6.965   6.215   7.903 -1.7206  0.9249 -2.0933
   10SAPS  C214 1262   6.860   6.302   8.067  0.4824 -0.7465  0.4044
   10SAPS  H14R 1263   6.759   6.281   8.031  0.3405 -1.9151  1.4816
   10SAPS  C215 1264   6.873   6.338   8.196  0.2285  0.1366 -0.1730
   10SAPS  H15R 1265   6.782   6.329   8.257 -1.2631 -2.9799 -2.7022
   10SAPS  C216 1266   6.997   6.389   8.273  0.6500 -0.2923  0.0672
   10SAPS  H16R 1267   6.976   6.487   8.321 -0.2438 -0.2188 -0.4729
   10SAPS  H16S 1268   7.075   6.397   8.194 -0.1253 -1.4273 -0.8316
   10SAPS  C217 1269   7.056   6.287   8.377  0.3595 -0.1766 -0.5786
   10SAPS  H17R 1270   6.972   6.266   8.446 -0.4940  0.0929 -1.5312
   10SAPS  H17S 1271   7.122   6.348   8.443  1.2307 -1.1229 -0.5620
   10SAPS  C218 1272   7.121   6.158   8.319 -0.0640 -0.6673  0.0621
   10SAPS  H18R 1273   7.182   6.183   8.230 -1.2314 -0.7866 -0.7891
   10SAPS  H18S 1274   7.039   6.095   8.276  0.7533 -1.7585  0.0771
   10SAPS  C219 1275   7.203   6.075   8.420 -0.3517 -0.4360  0.1639
   10SAPS  H19R 1276   7.303   6.117   8.444 -0.1531 -0.5213 -0.4801
   10SAPS  H19S 1277   7.234   5.976   8.378  4.4997  0.6847  0.7692
   10SAPS  C220 1278   7.122   6.037   8.547 -0.1067 -0.1322 -0.7525
   10SAPS  H20R 1279   7.087   6.128   8.601  0.9027 -0.9932  1.3966
   10SAPS  H20S 1280   7.187   5.967   8.604  1.7713  0.3012 -2.2942
   10SAPS  H20T 1281   7.026   5.989   8.517  0.4572 -0.9500 -1.2499
   10SAPS   C33 1282   7.214   6.637   7.233  0.4158 -0.1969 -0.9778
   10SAPS   H3X 1283   7.222   6.526   7.227  1.0586 -0.2101  0.0347
   10SAPS   H3Y 1284   7.108   6.667   7.236 -0.2531 -2.5633  2.4254
   10SAPS   C34 1285   7.269   6.694   7.364  0.0089 -0.1121 -0.0252
   10SAPS   H4X 1286   7.272   6.805   7.359 -0.7019  0.0655  2.8603
   10SAPS   H4Y 1287   7.373   6.656   7.373  0.5713  1.6956  1.5379
   10SAPS   C35 1288   7.204   6.638   7.487 -0.1786 -0.0574 -0.0187
   10SAPS   H5X 1289   7.233   6.532   7.502 -0.2335  0.0468  0.8543
   10SAPS   H5Y 1290   7.095   6.639   7.469 -0.2333  0.2468  0.3279
   10SAPS   C36 1291   7.233   6.721   7.616  1.1215  0.0818  0.2423
   10SAPS   H6X 1292   7.156   6.732   7.696  1.2716  1.7331  0.1824
   10SAPS   H6Y 1293   7.267   6.821   7.580  0.2540  0.4821  0.5137
   10SAPS   C37 1294   7.357   6.665   7.690  0.3240  0.0159 -0.1674
   10SAPS   H7X 1295   7.437   6.638   7.618  0.2878 -0.5770  0.0180
   10SAPS   H7Y 1296   7.317   6.573   7.738  2.7776 -0.1474  1.6393
   10SAPS   C38 1297   7.413   6.759   7.804  0.3804 -0.9593  0.4445
   10SAPS   H8X 1298   7.441   6.852   7.749 -1.6719  0.3407  1.5621
   10SAPS   H8Y 1299   7.507   6.712   7.841  1.6847 -1.5014 -3.3229
   10SAPS   C39 1300   7.312   6.809   7.907 -0.2865 -1.0787 -0.6304
   10SAPS   H9X 1301   7.288   6.722   7.972 -1.3363 -0.5265 -0.2672
   10SAPS   H9Y 1302   7.218   6.852   7.866 -1.1356 -0.8480  1.4585
   10SAPS  C310 1303   7.377   6.924   7.986 -0.1823 -0.3153 -0.5081
   10SAPS  H10X 1304   7.294   6.983   8.029 -0.2921 -0.9555  0.1639
   10SAPS  H10Y 1305   7.427   7.001   7.924 -0.1987  1.8096  2.0034
   10SAPS  C311 1306   7.455   6.874   8.106 -0.0014 -0.0407 -0.0939
   10SAPS  H11X 1307   7.546   6.816   8.081 -0.3547 -0.3772 -0.6230
   10SAPS  H11Y 1308   7.391   6.806   8.165  0.4444  1.8364  2.6429
   10SAPS  C312 1309   7.495   6.999   8.187  0.1810 -0.8323  0.4617
   10SAPS  H12X 1310   7.408   7.067   8.197  0.2336 -0.4258 -1.5373
   10SAPS  H12Y 1311   7.560   7.057   8.118 -1.2822 -0.2345 -0.4426
   10SAPS  C313 1312   7.556   6.979   8.321 -0.4365 -0.1978  0.0501
   10SAPS  H13X 1313   7.643   6.910   8.308 -0.9369 -0.9362  0.5776
   10SAPS  H13Y 1314   7.493   6.920   8.390  0.3999  1.0724  1.9212
   10SAPS  C314 1315   7.597   7.116   8.379 -0.0531 -0.0431  0.6309
   10SAPS  H14X 1316   7.521   7.187   8.341 -1.1648 -1.0662  0.9308
   10SAPS  H14Y 1317   7.696   7.147   8.338 -0.9767  0.7664 -1.0258
   10SAPS  C315 1318   7.593   7.122   8.531 -0.5147  0.1644  0.0231
   10SAPS  H15X 1319   7.662   7.041   8.563 -0.8431 -1.0412 -2.2077
   10SAPS  H15Y 1320   7.493   7.112   8.577  0.0903 -4.1728  0.5257
   10SAPS  C316 1321   7.646   7.257   8.588  0.3674  0.6467  0.8075
   10SAPS  H16X 1322   7.573   7.339   8.571 -2.2970 -1.3902  2.0573
   10SAPS  H16Y 1323   7.740   7.288   8.537  1.2678 -0.3601  1.8223
   10SAPS  C317 1324   7.671   7.252   8.739  0.2600 -0.0174  0.2399
   10SAPS  H17X 1325   7.706   7.153   8.775  1.1541  0.1927 -0.0394
   10SAPS  H17Y 1326   7.575   7.279   8.786  0.5955 -0.5198  1.2401
   10SAPS  C318 1327   7.773   7.352   8.799 -0.6672 -0.3615 -0.2002
   10SAPS  H18X 1328   7.876   7.343   8.758 -0.3522 -1.6359  0.8490
   10SAPS  H18Y 1329   7.779   7.342   8.909 -3.4988 -0.8522 -0.0557
   10SAPS  H18Z 1330   7.745   7.454   8.765 -2.1129 -0.2630  1.2150
   11SAPS     N 1331   1.686   3.595   5.918 -0.1730  0.3535  0.2623
   11SAPS   HN1 1332   1.639   3.674   5.869  2.0216  0.7669 -1.2401
   11SAPS   HN2 1333   1.628   3.515   5.886 -0.1315  1.0550 -1.6132
   11SAPS   HN3 1334   1.667   3.605   6.020 -0.6900 -0.5605  0.2581
   11SAPS   C12 1335   1.828   3.586   5.877 -0.2591  0.1455  0.4560
   11SAPS  H12A 1336   1.836   3.601   5.770  2.0948 -0.7822  0.4710
   11SAPS   C13 1337   1.924   3.699   5.930 -0.1977 -0.7131 -0.1746
   11SAPS  O13A 1338   1.875   3.787   6.007  0.2501 -0.4969 -0.4196
   11SAPS  O13B 1339   2.034   3.701   5.875  0.1451 -0.3350  0.1279
   11SAPS   C11 1340   1.883   3.445   5.911  0.1942  0.1913  0.0766
   11SAPS  H11A 1341   1.900   3.428   6.019 -0.2205 -0.5297  0.0263
   11SAPS  H11B 1342   1.981   3.427   5.862 -1.1253  0.3470 -2.7445
   11SAPS     P 1343   1.791   3.194   5.890  0.1096 -0.5857  0.2647
   11SAPS   O13 1344   1.648   3.158   5.867  0.2736  0.0584  0.4656
   11SAPS   O14 1345   1.895   3.119   5.816 -0.4177 -0.4051  0.2187
   11SAPS   O12 1346   1.798   3.343   5.854  0.1543  0.0622 -0.1772
   11SAPS   O11 1347   1.805   3.191   6.050  0.3137 -0.0213 -0.2550
   11SAPS    C1 1348   1.859   3.080   6.112 -0.2289 -0.1414  0.3648
   11SAPS    HA 1349   1.782   3.020   6.165  0.6672 -0.7634  0.9811
   11SAPS    HB 1350   1.923   3.018   6.045 -0.7212 -0.3315  0.0695
   11SAPS    C2 1351   1.958   3.112   6.228  0.4216  0.3795  0.8423
   11SAPS    HS 1352   1.986   3.018   6.281 -1.1490  0.8437  2.5690
   11SAPS   O21 1353   1.892   3.209   6.314  0.1142  0.7102  0.3088
   11SAPS   C21 1354   1.795   3.168   6.393  0.4190 -0.3232  0.0966
   11SAPS   O22 1355   1.748   3.052   6.401 -0.1183  1.2098 -0.1540
   11SAPS   C22 1356   1.740   3.284   6.480  0.5712 -0.0863  0.1112
   11SAPS   H2R 1357   1.790   3.377   6.445 -0.7042  0.0413 -1.3775
   11SAPS   H2S 1358   1.632   3.287   6.457  0.8827  0.7849 -1.2881
   11SAPS    C3 1359   2.088   3.171   6.180 -0.4964 -0.1142  0.3435
   11SAPS    HX 1360   2.069   3.261   6.117  1.5363 -0.2596 -0.4879
   11SAPS    HY 1361   2.145   3.096   6.122 -0.4177 -0.3433  0.7210
   11SAPS   O31 1362   2.172   3.201   6.291 -0.1611  0.3549  0.1719
   11SAPS   C31 1363   2.179   3.325   6.334 -0.2056 -0.6775  0.2510
   11SAPS   O32 1364   2.138   3.424   6.273  0.1920  0.3571 -0.0614
   11SAPS   C32 1365   2.230   3.326   6.475 -0.2067 -0.3136  0.6116
   11SAPS   H2X 1366   2.293   3.236   6.492 -0.8182 -0.9154 -0.2093
   11SAPS   H2Y 1367   2.139   3.323   6.539 -1.6519  0.9909 -1.2953
   11SAPS   C23 1368   1.774   3.260   6.632  0.0966  0.2713 -0.8545
   11SAPS   H3R 1369   1.883   3.261   6.655 -0.4908  0.7385  2.1367
   11SAPS   H3S 1370   1.735   3.158   6.654  2.6710 -0.6095 -0.1439
   11SAPS   C24 1371   1.698   3.357   6.723  0.5266  0.3235 -0.4714
   11SAPS   H4R 1372   1.701   3.318   6.827  0.0603  1.2033 -0.1174
   11SAPS   H4S 1373   1.589   3.360   6.699  0.7628 -0.7264 -1.7219
   11SAPS   C25 1374   1.758   3.496   6.726 -0.2752 -0.2496  0.1603
   11SAPS   H5R 1375   1.718   3.575   6.661  0.7230 -0.2708 -0.4986
   11SAPS   C26 1376   1.847   3.543   6.811  0.5284  0.8901 -0.3929
   11SAPS   H6R 1377   1.906   3.635   6.802 -0.2319  1.4102 -0.1930
   11SAPS   C27 1378   1.902   3.451   6.915 -0.4633 -0.7369  0.8298
   11SAPS   H7R 1379   2.012   3.470   6.914 -0.4113 -0.9689 -2.3449
   11SAPS   H7S 1380   1.907   3.350   6.869  2.4247  0.2721 -1.2503
   11SAPS   C28 1381   1.834   3.440   7.052  0.0410 -0.0192  0.4889
   11SAPS   H8R 1382   1.755   3.364   7.044 -0.8017  0.8521  0.3821
   11SAPS   C29 1383   1.861   3.490   7.172 -0.5730 -0.0934 -0.4100
   11SAPS   H9R 1384   1.793   3.462   7.254  0.6228 -0.2183  0.5472
   11SAPS  C210 1385   1.967   3.589   7.213 -0.4015 -0.0511  0.5980
   11SAPS  H10R 1386   1.913   3.678   7.252 -1.8426 -0.9299  0.6472
   11SAPS  H10S 1387   2.019   3.616   7.119 -2.2676 -0.9050 -0.7093
   11SAPS  C211 1388   2.051   3.528   7.321 -0.0949  0.6938 -0.5643
   11SAPS  H11R 1389   2.121   3.446   7.299  0.0929 -0.1843  2.9061
   11SAPS  C212 1390   2.049   3.574   7.441 -0.2081 -0.4258 -0.1183
   11SAPS  H12R 1391   2.117   3.524   7.513 -1.4773 -0.6685  0.9263
   11SAPS  C213 1392   1.962   3.683   7.501  0.6316 -0.2050  0.7602
   11SAPS  H13R 1393   1.865   3.688   7.447  0.3302  1.0115  1.3804
   11SAPS  H13S 1394   2.016   3.779   7.486  0.0514 -0.0903 -0.6313
   11SAPS  C214 1395   1.927   3.662   7.644  0.8167  0.2658  0.1680
   11SAPS  H14R 1396   1.866   3.572   7.662  1.6046 -0.7023 -1.9249
   11SAPS  C215 1397   1.962   3.733   7.747  0.5391 -0.6678 -0.5619
   11SAPS  H15R 1398   1.930   3.697   7.846 -0.4887 -1.7796 -1.2846
   11SAPS  C216 1399   2.049   3.856   7.751 -0.6735 -0.4853  0.0300
   11SAPS  H16R 1400   2.123   3.857   7.668  1.0348  0.4343  1.5300
   11SAPS  H16S 1401   2.117   3.850   7.839 -0.0305  0.6950 -0.3619
   11SAPS  C217 1402   1.981   3.993   7.749 -0.1329 -0.2424 -0.4966
   11SAPS  H17R 1403   1.898   3.997   7.823  0.7794  1.9896  0.4635
   11SAPS  H17S 1404   1.936   3.994   7.648  2.2316  0.4780 -1.5900
   11SAPS  C218 1405   2.066   4.119   7.760 -0.0313 -0.3389  0.0404
   11SAPS  H18R 1406   2.111   4.136   7.861 -1.4168  0.7085  0.5044
   11SAPS  H18S 1407   1.991   4.202   7.758  1.2184  0.7750 -1.2552
   11SAPS  C219 1408   2.181   4.129   7.656  0.7345  0.0682  0.5546
   11SAPS  H19R 1409   2.141   4.078   7.566 -0.3572 -1.1002  1.6726
   11SAPS  H19S 1410   2.268   4.074   7.699  1.7614  1.0081 -0.2967
   11SAPS  C220 1411   2.219   4.266   7.609  0.1300 -0.1539  0.1731
   11SAPS  H20R 1412   2.311   4.253   7.548 -0.8538 -2.1135 -0.9472
   11SAPS  H20S 1413   2.259   4.333   7.688  0.0011 -1.0891  1.0334
   11SAPS  H20T 1414   2.144   4.309   7.539  0.2066  1.1694  0.8863
   11SAPS   C33 1415   2.313   3.452   6.517  0.5089  0.3018 -0.2386
   11SAPS   H3X 1416   2.263   3.551   6.514 -1.7513 -0.8317 -0.8482
   11SAPS   H3Y 1417   2.398   3.447   6.446 -0.7282 -1.5913 -1.6255
   11SAPS   C34 1418   2.384   3.435   6.651  0.0997 -0.2297  0.4210
   11SAPS   H4X 1419   2.472   3.502   6.660 -1.6342  2.3397 -1.0587
   11SAPS   H4Y 1420   2.424   3.332   6.661 -1.5620 -0.9101  0.2220
   11SAPS   C35 1421   2.294   3.456   6.779  0.1937 -0.1598  0.3068
   11SAPS   H5X 1422   2.225   3.368   6.785  1.0860 -0.8845 -0.0037
   11SAPS   H5Y 1423   2.237   3.551   6.770 -2.0598 -1.5434 -0.4206
   11SAPS   C36 1424   2.373   3.463   6.913  0.1009  0.1275  0.4784
   11SAPS   H6X 1425   2.467   3.517   6.891 -2.0690  2.8432 -2.5838
   11SAPS   H6Y 1426   2.399   3.360   6.945 -0.7076 -0.7246 -1.5286
   11SAPS   C37 1427   2.315   3.537   7.034 -0.6788  0.6825  0.7438
   11SAPS   H7X 1428   2.237   3.467   7.070 -0.6530 -0.4921 -1.3856
   11SAPS   H7Y 1429   2.268   3.631   6.995  0.9626  1.2865  0.2066
   11SAPS   C38 1430   2.414   3.575   7.146  0.9188  0.0921 -0.9209
   11SAPS   H8X 1431   2.349   3.635   7.213  0.8806  1.0736 -1.8171
   11SAPS   H8Y 1432   2.497   3.639   7.108  0.0154  1.3808 -0.7429
   11SAPS   C39 1433   2.463   3.458   7.229 -0.0798  1.0403 -0.5674
   11SAPS   H9X 1434   2.516   3.390   7.159 -2.0042 -1.5149  0.3769
   11SAPS   H9Y 1435   2.388   3.391   7.276 -0.0306  0.5496 -1.1975
   11SAPS  C310 1436   2.565   3.484   7.339  0.2589 -0.6570  0.3199
   11SAPS  H10X 1437   2.647   3.540   7.289  0.9354 -0.8974  1.1512
   11SAPS  H10Y 1438   2.606   3.391   7.385  2.9209  0.3506  0.0826
   11SAPS  C311 1439   2.500   3.573   7.453  0.1498  0.3549  0.2848
   11SAPS  H11X 1440   2.397   3.538   7.476  0.0282  0.4458 -0.1115
   11SAPS  H11Y 1441   2.489   3.675   7.410  1.6171 -0.5688 -2.4451
   11SAPS  C312 1442   2.577   3.566   7.585  0.5885 -0.1855  0.2028
   11SAPS  H12X 1443   2.687   3.585   7.583  0.9493 -2.3316 -1.5313
   11SAPS  H12Y 1444   2.571   3.458   7.611 -0.6277 -0.0227  0.6075
   11SAPS  C313 1445   2.516   3.656   7.693  0.8249 -0.0077 -0.4586
   11SAPS  H13X 1446   2.560   3.622   7.789  1.0507  2.0695  0.1843
   11SAPS  H13Y 1447   2.407   3.634   7.697  0.9083 -0.1473  1.8198
   11SAPS  C314 1448   2.532   3.810   7.680  0.0762 -0.3409 -0.0360
   11SAPS  H14X 1449   2.505   3.841   7.577 -1.7937  0.2574  0.6181
   11SAPS  H14Y 1450   2.639   3.834   7.697  0.3245 -2.1089  1.0126
   11SAPS  C315 1451   2.452   3.884   7.792  0.2260 -0.6439  0.1617
   11SAPS  H15X 1452   2.346   3.852   7.779 -0.1555  1.4046 -2.0425
   11SAPS  H15Y 1453   2.458   3.994   7.782  2.8223 -0.6662  1.1427
   11SAPS  C316 1454   2.501   3.860   7.937 -0.7288  0.3821  0.9178
   11SAPS  H16X 1455   2.586   3.931   7.947 -1.5674  1.5474 -0.0706
   11SAPS  H16Y 1456   2.523   3.752   7.955 -2.2298 -0.4841 -2.1085
   11SAPS  C317 1457   2.389   3.893   8.039  0.2226 -0.5119  0.0925
   11SAPS  H17X 1458   2.306   3.824   8.016  1.0836 -1.7591  0.6923
   11SAPS  H17Y 1459   2.355   3.997   8.019  3.4884  0.4499 -0.8640
   11SAPS  C318 1460   2.430   3.881   8.187  0.1835 -0.0985 -0.6142
   11SAPS  H18X 1461   2.531   3.921   8.210  0.5525 -1.5299  0.3248
   11SAPS  H18Y 1462   2.428   3.775   8.220 -2.6663 -0.2399 -1.1630
   11SAPS  H18Z 1463   2.367   3.935   8.261  0.2461 -2.1498  0.9919
   12SAPS     N 1464   1.784   3.996   5.879 -0.1231 -0.2997 -0.0656
   12SAPS   HN1 1465   1.846   4.071   5.915  1.1349 -2.1101  1.6501
   12SAPS   HN2 1466   1.798   3.903   5.924 -1.6459  0.0351  1.1551
   12SAPS   HN3 1467   1.798   4.001   5.776 -0.1578  0.0700 -0.0539
   12SAPS   C12 1468   1.643   4.029   5.922 -0.0530  0.3129  0.1474
   12SAPS  H12A 1469   1.623   4.113   5.856 -1.7955 -1.1176 -1.2149
   12SAPS   C13 1470   1.531   3.930   5.881 -0.5097  0.7105  1.0417
   12SAPS  O13A 1471   1.555   3.819   5.824 -0.0769 -0.8451 -0.6111
   12SAPS  O13B 1472   1.411   3.959   5.906 -0.8595 -0.5526  0.0597
   12SAPS   C11 1473   1.634   4.055   6.073 -0.4400  0.5835  0.1043
   12SAPS  H11A 1474   1.685   3.970   6.123  0.1763  0.0943 -1.3258
   12SAPS  H11B 1475   1.526   4.050   6.096 -1.4580  1.7964 -3.9744
   12SAPS     P 1476   1.833   4.197   6.157  0.1517 -0.0636 -0.6906
   12SAPS   O13 1477   1.912   4.178   6.035 -0.5204  0.2049 -0.1259
   12SAPS   O14 1478   1.847   4.327   6.234  0.4410  0.2172 -0.6158
   12SAPS   O12 1479   1.686   4.185   6.110 -0.1542 -0.2205 -0.4698
   12SAPS   O11 1480   1.846   4.070   6.252 -0.0317  0.1292 -0.4343
   12SAPS    C1 1481   1.749   4.059   6.366 -0.3585 -0.2157  0.4672
   12SAPS    HA 1482   1.655   4.119   6.365 -0.1254  0.1673 -2.4354
   12SAPS    HB 1483   1.720   3.953   6.382 -1.8089 -0.0188 -0.7192
   12SAPS    C2 1484   1.809   4.103   6.499  0.4912 -0.1351 -0.3751
   12SAPS    HS 1485   1.828   4.213   6.494  0.9663 -0.2443 -1.0003
   12SAPS   O21 1486   1.931   4.032   6.530  0.1681 -0.1919 -0.6795
   12SAPS   C21 1487   2.008   4.079   6.625 -0.1837 -0.1004 -0.4097
   12SAPS   O22 1488   1.999   4.187   6.677 -0.1424  0.1466  0.2661
   12SAPS   C22 1489   2.117   3.979   6.651  0.2683  0.2680  0.2445
   12SAPS   H2R 1490   2.174   3.971   6.557 -1.8447  0.6284 -1.1118
   12SAPS   H2S 1491   2.189   4.014   6.728 -0.6665 -1.1226  1.7979
   12SAPS    C3 1492   1.703   4.078   6.612  0.2195  0.1807 -0.1151
   12SAPS    HX 1493   1.671   3.971   6.611  1.1307 -0.0797 -1.5699
   12SAPS    HY 1494   1.610   4.132   6.585 -0.1270 -1.0907 -1.5761
   12SAPS   O31 1495   1.745   4.109   6.746 -0.1280 -0.2682  0.3659
   12SAPS   C31 1496   1.722   4.230   6.788 -0.0201  0.1681 -0.7168
   12SAPS   O32 1497   1.653   4.313   6.725 -0.1943  0.0978 -0.5798
   12SAPS   C32 1498   1.789   4.247   6.921 -0.6424  0.2295  0.2851
   12SAPS   H2X 1499   1.900   4.237   6.918 -0.4947  1.5047  0.9798
   12SAPS   H2Y 1500   1.743   4.178   6.995  0.5276  0.3316  1.1292
   12SAPS   C23 1501   2.064   3.841   6.696  0.1982 -0.0544 -0.1780
   12SAPS   H3R 1502   2.126   3.769   6.637  0.3606  0.3333 -0.4882
   12SAPS   H3S 1503   1.967   3.814   6.648  0.5324 -1.9649  0.1965
   12SAPS   C24 1504   2.084   3.813   6.842 -0.5165  0.2993 -0.1442
   12SAPS   H4R 1505   2.192   3.828   6.864 -0.8488 -1.6216  3.2109
   12SAPS   H4S 1506   2.081   3.703   6.859 -2.8718  0.3870  0.1040
   12SAPS   C25 1507   1.997   3.901   6.928 -0.0806  0.9361 -0.6634
   12SAPS   H5R 1508   1.895   3.911   6.888  0.9498  1.4695 -3.2681
   12SAPS   C26 1509   2.041   3.973   7.035  1.4583  1.2082 -0.8109
   12SAPS   H6R 1510   1.976   4.044   7.088 -1.8918 -3.0652  1.1555
   12SAPS   C27 1511   2.171   3.983   7.103 -0.5947  0.1106 -0.6240
   12SAPS   H7R 1512   2.209   4.087   7.104  1.3284 -0.5627 -0.7462
   12SAPS   H7S 1513   2.249   3.951   7.030 -0.6498  0.2299 -0.7343
   12SAPS   C28 1514   2.185   3.908   7.236  0.6599 -0.3056  0.2776
   12SAPS   H8R 1515   2.130   3.815   7.258 -0.5491  1.0767  3.4074
   12SAPS   C29 1516   2.271   3.936   7.337 -0.1531  0.2965  0.7312
   12SAPS   H9R 1517   2.265   3.876   7.430 -0.0011  0.9980  1.1994
   12SAPS  C210 1518   2.363   4.049   7.348  0.0459  0.4061  0.2681
   12SAPS  H10R 1519   2.398   4.078   7.449  0.2334  2.1732 -0.2881
   12SAPS  H10S 1520   2.292   4.131   7.322 -1.3835 -0.6369  0.8041
   12SAPS  C211 1521   2.474   4.050   7.247 -0.2586  0.2343 -0.8220
   12SAPS  H11R 1522   2.458   3.991   7.156  0.8944 -1.2659 -0.0762
   12SAPS  C212 1523   2.600   4.098   7.272  0.6261  0.6257  1.0955
   12SAPS  H12R 1524   2.672   4.104   7.190 -0.5203 -0.0065  0.0289
   12SAPS  C213 1525   2.630   4.172   7.405 -0.2171 -0.1761 -0.4645
   12SAPS  H13R 1526   2.657   4.095   7.480  2.7861  0.9338 -0.3384
   12SAPS  H13S 1527   2.541   4.231   7.436 -1.6333 -1.8924 -1.1996
   12SAPS  C214 1528   2.750   4.274   7.406  0.1483 -0.6285  0.1402
   12SAPS  H14R 1529   2.720   4.358   7.470  0.2584 -0.3421 -0.1859
   12SAPS  C215 1530   2.874   4.280   7.349  0.3550  0.2841 -0.2811
   12SAPS  H15R 1531   2.938   4.369   7.361 -0.0417  0.2728  2.2801
   12SAPS  C216 1532   2.946   4.181   7.257  0.2164 -0.1149  0.4741
   12SAPS  H16R 1533   2.893   4.086   7.232  0.1805  0.0827 -0.2229
   12SAPS  H16S 1534   3.034   4.159   7.320  1.0813 -1.0756 -1.0276
   12SAPS  C217 1535   3.000   4.233   7.119 -0.0031  0.3737  0.0379
   12SAPS  H17R 1536   3.069   4.156   7.079  1.8381  1.1410  1.6656
   12SAPS  H17S 1537   3.066   4.322   7.121  0.6360 -0.1140  1.3421
   12SAPS  C218 1538   2.898   4.277   7.012  0.1247 -0.8241 -0.6714
   12SAPS  H18R 1539   2.812   4.329   7.059  0.1556 -0.5079 -0.9643
   12SAPS  H18S 1540   2.859   4.180   6.973 -0.4393 -1.3546  1.1856
   12SAPS  C219 1541   2.958   4.367   6.898 -1.0108 -0.1610 -0.0348
   12SAPS  H19R 1542   3.053   4.330   6.854 -0.1604  1.5767  0.2971
   12SAPS  H19S 1543   2.983   4.463   6.947 -0.5569 -1.7074  2.9454
   12SAPS  C220 1544   2.860   4.392   6.781  0.0878 -0.2390  0.0383
   12SAPS  H20R 1545   2.760   4.420   6.823 -0.4505 -0.3810 -1.1215
   12SAPS  H20S 1546   2.839   4.292   6.738 -0.8510 -0.3038  0.6214
   12SAPS  H20T 1547   2.896   4.469   6.709 -0.8781 -0.5628 -0.8101
   12SAPS   C33 1548   1.762   4.393   6.974 -0.5224  0.1887  0.5532
   12SAPS   H3X 1549   1.653   4.414   6.979 -0.2135  1.7207  1.4547
   12SAPS   H3Y 1550   1.804   4.478   6.916 -0.1892  0.4051  1.1086
   12SAPS   C34 1551   1.810   4.403   7.121  0.2322 -0.0392  0.0454
   12SAPS   H4X 1552   1.919   4.380   7.120  0.5501  1.4069 -0.9829
   12SAPS   H4Y 1553   1.754   4.331   7.184  2.6921  0.0326  2.4473
   12SAPS   C35 1554   1.796   4.548   7.177  0.0573  0.5543  0.6420
   12SAPS   H5X 1555   1.688   4.563   7.194 -0.5596 -1.8899 -0.8198
   12SAPS   H5Y 1556   1.830   4.617   7.097  2.2058 -1.1029  0.0714
   12SAPS   C36 1557   1.869   4.585   7.317 -0.2039  0.3175 -0.0987
   12SAPS   H6X 1558   1.840   4.691   7.335 -2.9944 -0.1561 -1.5489
   12SAPS   H6Y 1559   1.974   4.550   7.306 -0.2599 -0.0392  0.5197
   12SAPS   C37 1560   1.807   4.507   7.429 -0.1281 -0.3931 -0.0349
   12SAPS   H7X 1561   1.878   4.424   7.450 -0.4451 -0.6943 -0.1367
   12SAPS   H7Y 1562   1.712   4.456   7.402 -0.7372  0.9355 -0.4134
   12SAPS   C38 1563   1.775   4.587   7.555  0.8350  0.1270  0.1213
   12SAPS   H8X 1564   1.698   4.661   7.524 -1.1577 -1.5673  0.9119
   12SAPS   H8Y 1565   1.870   4.639   7.578  1.0480 -1.2032  2.4479
   12SAPS   C39 1566   1.740   4.498   7.675  0.4301  0.1030  0.2821
   12SAPS   H9X 1567   1.820   4.421   7.677  1.1832  0.9175  2.2906
   12SAPS   H9Y 1568   1.642   4.450   7.653 -0.0617  1.3602 -0.3151
   12SAPS  C310 1569   1.718   4.578   7.801 -0.5779 -0.6774  0.2009
   12SAPS  H10X 1570   1.621   4.631   7.787 -0.1095  0.4885  1.3620
   12SAPS  H10Y 1571   1.789   4.661   7.818 -0.9289 -0.7205  2.0921
   12SAPS  C311 1572   1.715   4.480   7.924 -0.4278 -0.1992  0.3754
   12SAPS  H11X 1573   1.639   4.403   7.898 -0.8859  1.0003 -1.9299
   12SAPS  H11Y 1574   1.678   4.533   8.015  0.3729  0.6075  0.2426
   12SAPS  C312 1575   1.854   4.422   7.962 -0.2166  0.2432  0.2061
   12SAPS  H12X 1576   1.914   4.512   7.987 -1.5110  1.2867 -0.3823
   12SAPS  H12Y 1577   1.897   4.380   7.869  1.3329  0.2632  0.8970
   12SAPS  C313 1578   1.852   4.322   8.078 -0.1888 -0.0820 -0.9024
   12SAPS  H13X 1579   1.789   4.234   8.051  1.4262 -1.3514 -0.5745
   12SAPS  H13Y 1580   1.804   4.355   8.172 -1.0631 -1.3185 -0.8979
   12SAPS  C314 1581   1.993   4.248   8.098  0.0226  0.4185 -0.1329
   12SAPS  H14X 1582   2.011   4.204   7.998 -0.2389 -1.8663  0.8093
   12SAPS  H14Y 1583   1.975   4.172   8.176 -0.4181 -0.5899 -1.2017
   12SAPS  C315 1584   2.111   4.331   8.159 -0.7702  0.7656 -0.6535
   12SAPS  H15X 1585   2.089   4.346   8.267 -0.2029  0.0343 -0.4327
   12SAPS  H15Y 1586   2.118   4.430   8.109  1.5632  0.3868 -1.1097
   12SAPS  C316 1587   2.247   4.256   8.154 -0.9362  0.4453 -0.2014
   12SAPS  H16X 1588   2.267   4.228   8.049 -0.9612 -1.4138  0.2740
   12SAPS  H16Y 1589   2.242   4.160   8.210 -0.9862  1.6983  2.0041
   12SAPS  C317 1590   2.366   4.344   8.195  0.0163  0.2141 -0.0942
   12SAPS  H17X 1591   2.384   4.328   8.303  0.5518  1.0238 -0.0582
   12SAPS  H17Y 1592   2.341   4.451   8.184 -3.0349 -0.5738 -1.4004
   12SAPS  C318 1593   2.505   4.307   8.131  1.2024 -0.5689 -0.4949
   12SAPS  H18X 1594   2.508   4.295   8.021 -1.1713 -4.0802 -0.2440
   12SAPS  H18Y 1595   2.538   4.209   8.171 -1.4012 -1.5262 -0.6077
   12SAPS  H18Z 1596   2.584   4.380   8.161  0.9769 -0.0264 -1.2130
   13SAPS     N 1597   2.453   1.002   6.307  0.1759  0.0369 -0.4255
   13SAPS   HN1 1598   2.497   1.088   6.345  1.7738  0.1580 -2.4631
   13SAPS   HN2 1599   2.364   0.991   6.359 -0.7252  0.4336 -1.8318
   13SAPS   HN3 1600   2.517   0.923   6.328 -0.8104 -0.4101  0.9586
   13SAPS   C12 1601   2.426   1.023   6.165  0.1764  0.0442  0.6651
   13SAPS  H12A 1602   2.513   1.075   6.127 -0.4757  0.4724 -0.2524
   13SAPS   C13 1603   2.428   0.889   6.091 -0.2648  0.1002 -0.3867
   13SAPS  O13A 1604   2.475   0.784   6.144 -0.4170  0.5096  0.3159
   13SAPS  O13B 1605   2.401   0.889   5.970  0.2118  0.3331  0.1380
   13SAPS   C11 1606   2.292   1.101   6.135  0.0733 -0.3597 -0.2478
   13SAPS  H11A 1607   2.209   1.036   6.169  0.6214 -1.0123 -0.1313
   13SAPS  H11B 1608   2.282   1.117   6.026  2.3139 -1.2959 -0.6264
   13SAPS     P 1609   2.208   1.354   6.153  0.1032 -0.3219 -0.1446
   13SAPS   O13 1610   2.287   1.418   6.048 -0.0688  0.7847  0.6336
   13SAPS   O14 1611   2.067   1.313   6.118 -0.2393 -0.3523  0.2249
   13SAPS   O12 1612   2.295   1.229   6.199 -0.4798  0.2845 -0.2912
   13SAPS   O11 1613   2.196   1.450   6.284 -0.0386 -0.8992  0.0670
   13SAPS    C1 1614   2.283   1.439   6.396 -0.1385  0.3628 -0.4680
   13SAPS    HA 1615   2.377   1.389   6.366 -1.7982 -1.9085 -2.0128
   13SAPS    HB 1616   2.315   1.539   6.433  3.5251 -1.2604  0.9196
   13SAPS    C2 1617   2.221   1.350   6.510 -0.0945 -0.7022 -1.0908
   13SAPS    HS 1618   2.211   1.248   6.466 -3.0039 -0.5063 -0.9903
   13SAPS   O21 1619   2.097   1.413   6.559  0.2293  0.4166 -0.6292
   13SAPS   C21 1620   1.990   1.343   6.518 -0.2471  0.2398  0.1452
   13SAPS   O22 1621   2.000   1.237   6.461  0.5819  0.2357  0.5020
   13SAPS   C22 1622   1.860   1.417   6.552  0.5756 -0.2607 -0.4264
   13SAPS   H2R 1623   1.877   1.494   6.631 -1.9544  0.0715 -0.1609
   13SAPS   H2S 1624   1.835   1.471   6.458  1.3673 -0.6747 -0.8744
   13SAPS    C3 1625   2.326   1.336   6.637 -0.3883  0.0144  0.0199
   13SAPS    HX 1626   2.411   1.278   6.596 -2.0061 -2.9037  0.6303
   13SAPS    HY 1627   2.262   1.276   6.705  0.6160 -1.2784 -0.1561
   13SAPS   O31 1628   2.360   1.470   6.686  0.1510  0.0702  0.0087
   13SAPS   C31 1629   2.484   1.504   6.697 -0.2306  0.6458 -0.0799
   13SAPS   O32 1630   2.579   1.423   6.659 -0.5206 -0.4797 -0.5162
   13SAPS   C32 1631   2.504   1.635   6.772  0.2889  0.2745  0.1449
   13SAPS   H2X 1632   2.411   1.658   6.829  1.5558  0.4949  2.1977
   13SAPS   H2Y 1633   2.529   1.712   6.696 -4.2581  0.4522 -1.3041
   13SAPS   C23 1634   1.755   1.308   6.597  0.0659 -0.1683 -0.5119
   13SAPS   H3R 1635   1.769   1.222   6.529  0.1906  1.2009 -2.2676
   13SAPS   H3S 1636   1.652   1.350   6.594  0.3403  0.8221  2.0125
   13SAPS   C24 1637   1.784   1.272   6.748  0.6903  0.7257  1.0915
   13SAPS   H4R 1638   1.691   1.233   6.795  1.6231 -0.6049  1.8959
   13SAPS   H4S 1639   1.799   1.365   6.806 -1.4662  1.6284  0.2547
   13SAPS   C25 1640   1.897   1.175   6.770  0.1351 -0.1174  0.0877
   13SAPS   H5R 1641   1.915   1.099   6.693  0.0940  0.5123 -0.5495
   13SAPS   C26 1642   1.981   1.186   6.875  0.8679  0.5987  0.2072
   13SAPS   H6R 1643   2.058   1.110   6.895  1.2712  1.0938  0.5699
   13SAPS   C27 1644   1.975   1.296   6.989  0.2295 -0.1033 -0.3329
   13SAPS   H7R 1645   1.969   1.242   7.086  0.2626 -0.2248 -0.3987
   13SAPS   H7S 1646   1.881   1.355   6.987 -0.8009 -1.7448 -1.1486
   13SAPS   C28 1647   2.092   1.399   6.962 -0.4567 -0.2304 -0.5723
   13SAPS   H8R 1648   2.131   1.414   6.860  1.0141  0.8992  0.1481
   13SAPS   C29 1649   2.158   1.467   7.058  0.3893  0.8687  0.4271
   13SAPS   H9R 1650   2.241   1.530   7.026  1.0069  1.0281  2.2603
   13SAPS  C210 1651   2.136   1.463   7.210 -0.0954  0.5544  0.4039
   13SAPS  H10R 1652   2.092   1.369   7.249  0.9406 -0.0330  0.2035
   13SAPS  H10S 1653   2.068   1.550   7.222  2.2787  2.3450  1.2611
   13SAPS  C211 1654   2.270   1.483   7.274 -0.7186 -0.3545 -0.0666
   13SAPS  H11R 1655   2.361   1.471   7.214  0.2057 -0.4370  1.3223
   13SAPS  C212 1656   2.280   1.491   7.407  0.2120 -0.3461  0.0165
   13SAPS  H12R 1657   2.377   1.515   7.453  1.4634 -1.1367 -2.1293
   13SAPS  C213 1658   2.170   1.496   7.507 -1.0196 -0.6239 -0.4466
   13SAPS  H13R 1659   2.180   1.396   7.556 -1.8417 -0.0911  0.8435
   13SAPS  H13S 1660   2.065   1.497   7.473 -1.3445  1.3015  0.5900
   13SAPS  C214 1661   2.179   1.605   7.613 -0.6178  0.0049  0.6859
   13SAPS  H14R 1662   2.250   1.682   7.578  1.3135 -3.0842 -2.5507
   13SAPS  C215 1663   2.120   1.619   7.729  0.3716  0.4356 -0.4883
   13SAPS  H15R 1664   2.150   1.703   7.794  0.8207  0.8680 -1.2512
   13SAPS  C216 1665   2.013   1.522   7.780  0.0147 -0.3909 -0.0993
   13SAPS  H16R 1666   1.954   1.477   7.698  0.7248  0.1375 -0.9023
   13SAPS  H16S 1667   1.936   1.585   7.830  1.5230  1.7257 -0.3620
   13SAPS  C217 1668   2.062   1.420   7.886  0.5817 -0.0870 -0.0983
   13SAPS  H17R 1669   2.147   1.364   7.840  0.8027  1.2789 -1.4071
   13SAPS  H17S 1670   1.974   1.355   7.907  2.1497 -0.9794  4.1079
   13SAPS  C218 1671   2.111   1.478   8.028  0.1169  0.3486  0.2031
   13SAPS  H18R 1672   2.215   1.517   8.024  0.6160 -0.5092  3.9089
   13SAPS  H18S 1673   2.109   1.395   8.100 -0.5482 -0.3574 -0.6184
   13SAPS  C219 1674   2.023   1.596   8.074  0.3191 -0.1604  0.3438
   13SAPS  H19R 1675   1.918   1.560   8.079  0.8651 -2.0600 -1.6340
   13SAPS  H19S 1676   2.047   1.678   8.003  2.3693 -1.5471 -0.6009
   13SAPS  C220 1677   2.051   1.651   8.215 -0.1464  0.0348  0.8067
   13SAPS  H20R 1678   2.007   1.753   8.224  0.8154  0.4624  0.6484
   13SAPS  H20S 1679   2.158   1.637   8.239 -0.4251  1.7618  3.3222
   13SAPS  H20T 1680   1.990   1.592   8.288 -0.6225 -1.5159 -0.8114
   13SAPS   C33 1681   2.627   1.619   6.865  0.4134 -0.2691  0.3697
   13SAPS   H3X 1682   2.613   1.717   6.916  1.1662  0.0448 -0.0218
   13SAPS   H3Y 1683   2.725   1.616   6.813  0.2016  0.7625 -0.0946
   13SAPS   C34 1684   2.606   1.508   6.966 -0.5208 -0.4579 -0.0030
   13SAPS   H4X 1685   2.641   1.418   6.911  0.4128  1.2458 -2.2763
   13SAPS   H4Y 1686   2.499   1.485   6.985 -0.3247  0.0210  1.8090
   13SAPS   C35 1687   2.670   1.525   7.102  0.0804  0.7461 -0.3826
   13SAPS   H5X 1688   2.781   1.532   7.102 -0.0561  3.6491  0.5862
   13SAPS   H5Y 1689   2.654   1.430   7.159  1.5321 -0.5315 -2.0395
   13SAPS   C36 1690   2.610   1.634   7.184  0.7282 -0.4043 -0.0610
   13SAPS   H6X 1691   2.501   1.647   7.167  0.2864  0.0154  2.7797
   13SAPS   H6Y 1692   2.649   1.734   7.156  0.0906 -1.1000 -3.6478
   13SAPS   C37 1693   2.630   1.624   7.340  0.7488  0.0862  0.8761
   13SAPS   H7X 1694   2.588   1.524   7.364 -0.9900 -0.0620 -2.4575
   13SAPS   H7Y 1695   2.567   1.706   7.380  0.2536 -1.3704  3.1738
   13SAPS   C38 1696   2.774   1.641   7.373 -0.8291  0.5436 -0.1978
   13SAPS   H8X 1697   2.811   1.738   7.334  0.0392  0.2744 -0.0723
   13SAPS   H8Y 1698   2.827   1.561   7.316  1.1573  1.6993 -0.0285
   13SAPS   C39 1699   2.800   1.615   7.520  0.4727  0.6519 -0.2427
   13SAPS   H9X 1700   2.905   1.583   7.532  0.2833 -0.3726 -1.1649
   13SAPS   H9Y 1701   2.741   1.526   7.551  1.0847  0.0480 -0.8062
   13SAPS  C310 1702   2.763   1.747   7.594  0.1335  0.1871  0.1207
   13SAPS  H10X 1703   2.654   1.769   7.583  0.8075  2.5352 -2.4601
   13SAPS  H10Y 1704   2.828   1.829   7.557  1.7789 -0.8564  0.6747
   13SAPS  C311 1705   2.788   1.733   7.745  0.0318 -0.6394  0.2134
   13SAPS  H11X 1706   2.768   1.828   7.800 -1.9101 -1.4115  0.8780
   13SAPS  H11Y 1707   2.896   1.710   7.762 -0.3428 -1.7467  1.1638
   13SAPS  C312 1708   2.723   1.606   7.810  0.8211  0.1755 -0.1629
   13SAPS  H12X 1709   2.783   1.518   7.778  1.7579  1.2140 -1.3409
   13SAPS  H12Y 1710   2.618   1.594   7.777  0.4447 -1.8962  1.6964
   13SAPS  C313 1711   2.723   1.618   7.961 -0.8453  0.3636 -0.8198
   13SAPS  H13X 1712   2.674   1.713   7.990  0.0414  0.8908 -1.0564
   13SAPS  H13Y 1713   2.821   1.633   8.009 -0.7195  2.4316 -1.6737
   13SAPS  C314 1714   2.643   1.516   8.042  0.3722 -0.7424 -0.0140
   13SAPS  H14X 1715   2.676   1.412   8.022  1.6075 -0.6253  1.3638
   13SAPS  H14Y 1716   2.534   1.506   8.026  0.3755  0.6519 -0.9724
   13SAPS  C315 1717   2.670   1.534   8.192 -0.3188 -0.6891  0.3599
   13SAPS  H15X 1718   2.603   1.616   8.227  0.8949 -0.0897  1.3108
   13SAPS  H15Y 1719   2.776   1.553   8.219 -0.7921  1.0190  1.1411
   13SAPS  C316 1720   2.630   1.412   8.269 -0.4382  0.2640 -0.5993
   13SAPS  H16X 1721   2.687   1.335   8.213 -0.8296 -0.2210 -0.3450
   13SAPS  H16Y 1722   2.521   1.391   8.258 -0.8397  1.6364  0.5561
   13SAPS  C317 1723   2.671   1.421   8.407  0.5264 -0.2052  0.1467
   13SAPS  H17X 1724   2.632   1.513   8.456  0.4072 -0.8155  1.2049
   13SAPS  H17Y 1725   2.776   1.453   8.420  0.9198 -1.2350 -0.4302
   13SAPS  C318 1726   2.620   1.304   8.497  0.7087  0.5164 -0.4227
   13SAPS  H18X 1727   2.673   1.208   8.478  1.0539 -0.1054  3.1548
   13SAPS  H18Y 1728   2.509   1.297   8.489  0.7649 -1.6824  0.2646
   13SAPS  H18Z 1729   2.648   1.320   8.603 -0.0534 -2.7409  0.3484
   14SAPS     N 1730   2.666   3.293   6.037  0.2547 -0.7365  0.3663
   14SAPS   HN1 1731   2.628   3.196   6.029  0.4557 -0.9901  2.3112
   14SAPS   HN2 1732   2.741   3.303   6.107 -1.4284 -0.1478  2.1279
   14SAPS   HN3 1733   2.584   3.353   6.058  1.3676  0.5702  1.0153
   14SAPS   C12 1734   2.748   3.336   5.914  0.4241  0.4142  0.0568
   14SAPS  H12A 1735   2.844   3.286   5.915  0.3718  0.3103 -0.0807
   14SAPS   C13 1736   2.680   3.283   5.777 -0.5225 -0.2162  1.1503
   14SAPS  O13A 1737   2.595   3.196   5.782 -0.4801  0.3420 -0.2232
   14SAPS  O13B 1738   2.738   3.318   5.670  0.1704 -0.2397  0.3371
   14SAPS   C11 1739   2.755   3.482   5.905  0.0155 -0.2870 -0.9905
   14SAPS  H11A 1740   2.651   3.519   5.895 -0.4127 -1.2960 -0.3703
   14SAPS  H11B 1741   2.812   3.504   5.813 -2.4419  2.7290 -1.8770
   14SAPS     P 1742   2.818   3.701   6.022  0.0709 -0.1669 -0.2694
   14SAPS   O13 1743   2.936   3.743   5.940 -0.6584 -0.2672  0.0971
   14SAPS   O14 1744   2.684   3.756   5.971 -0.2517 -0.2084  0.3060
   14SAPS   O12 1745   2.812   3.543   6.027 -0.0806  0.0145 -0.0720
   14SAPS   O11 1746   2.831   3.745   6.171  0.0708  0.6625 -0.0134
   14SAPS    C1 1747   2.936   3.678   6.245 -1.0074 -0.0800 -0.0865
   14SAPS    HA 1748   2.989   3.602   6.185  1.0919  1.8201 -0.7175
   14SAPS    HB 1749   3.006   3.758   6.278 -0.3000 -1.2229  1.1945
   14SAPS    C2 1750   2.875   3.615   6.371  0.3712 -0.8256 -0.0877
   14SAPS    HS 1751   2.800   3.543   6.333  0.4527 -0.2677 -1.3307
   14SAPS   O21 1752   2.812   3.717   6.439 -0.4108 -1.1649  0.1175
   14SAPS   C21 1753   2.688   3.693   6.491 -0.1316  0.6726  0.6744
   14SAPS   O22 1754   2.634   3.589   6.489 -0.3960  0.1486  0.3667
   14SAPS   C22 1755   2.640   3.825   6.565  0.1180  0.4518  0.5769
   14SAPS   H2R 1756   2.723   3.892   6.594  0.4454  0.6934 -0.8506
   14SAPS   H2S 1757   2.578   3.871   6.484 -0.2213 -2.5530 -0.9278
   14SAPS    C3 1758   2.966   3.534   6.460 -0.1085 -0.6360 -0.0568
   14SAPS    HX 1759   3.032   3.610   6.508  1.6064 -3.4470  2.2162
   14SAPS    HY 1760   3.025   3.472   6.389 -1.0590 -0.7825 -0.7275
   14SAPS   O31 1761   2.889   3.456   6.554 -0.9774 -0.4905 -0.5572
   14SAPS   C31 1762   2.971   3.421   6.657  0.3256 -0.3503  0.3797
   14SAPS   O32 1763   3.091   3.455   6.667  0.1835  0.4248 -0.0926
   14SAPS   C32 1764   2.895   3.331   6.755 -0.5264  0.2034  0.3035
   14SAPS   H2X 1765   2.951   3.236   6.768  2.5546  1.6418 -1.8838
   14SAPS   H2Y 1766   2.795   3.311   6.709 -0.6019 -0.7668  0.8641
   14SAPS   C23 1767   2.553   3.805   6.691  0.2567  0.1744  0.9088
   14SAPS   H3R 1768   2.501   3.707   6.681 -0.4138  0.6374 -0.2727
   14SAPS   H3S 1769   2.487   3.892   6.709  0.6379  0.4756  0.8414
   14SAPS   C24 1770   2.644   3.788   6.817  0.3052 -0.3564  0.1872
   14SAPS   H4R 1771   2.716   3.706   6.794 -1.6766 -1.9207 -0.5566
   14SAPS   H4S 1772   2.583   3.746   6.900  1.5474 -0.0414  1.2716
   14SAPS   C25 1773   2.725   3.909   6.869  0.1385 -0.1195  0.7744
   14SAPS   H5R 1774   2.738   3.998   6.806  0.5918 -1.2806 -0.7710
   14SAPS   C26 1775   2.788   3.912   6.987  0.1127 -0.8475  0.1429
   14SAPS   H6R 1776   2.859   3.996   6.995 -0.8345  0.0505 -0.6482
   14SAPS   C27 1777   2.803   3.790   7.078 -0.6720  0.2670  0.2201
   14SAPS   H7R 1778   2.725   3.716   7.053 -0.4524  0.6210 -1.6210
   14SAPS   H7S 1779   2.771   3.830   7.177 -2.4426  0.3610 -0.3718
   14SAPS   C28 1780   2.943   3.731   7.072  0.5334 -0.6918 -0.6581
   14SAPS   H8R 1781   2.984   3.724   6.970  0.9358 -0.7380 -0.4942
   14SAPS   C29 1782   3.016   3.704   7.187 -0.6698  0.0216 -0.0820
   14SAPS   H9R 1783   3.113   3.657   7.166 -0.3812  1.5527 -2.2612
   14SAPS  C210 1784   2.971   3.714   7.334  0.5841  0.8582 -0.1846
   14SAPS  H10R 1785   3.007   3.628   7.393 -1.5161  0.3915  0.4539
   14SAPS  H10S 1786   2.863   3.689   7.325  0.5538  1.4104 -1.5997
   14SAPS  C211 1787   3.001   3.847   7.396  1.1197  0.3332  0.9168
   14SAPS  H11R 1788   3.020   3.932   7.330 -1.6098  0.4562  0.2511
   14SAPS  C212 1789   3.009   3.873   7.522  0.6027  0.1830  0.0365
   14SAPS  H12R 1790   3.035   3.974   7.555  3.2362  0.0171 -1.3806
   14SAPS  C213 1791   2.995   3.774   7.637 -0.3803 -0.8119 -0.2004
   14SAPS  H13R 1792   2.947   3.678   7.608 -0.2462 -1.1910  0.8310
   14SAPS  H13S 1793   2.931   3.828   7.710 -0.6529  0.4337 -1.3348
   14SAPS  C214 1794   3.128   3.743   7.701  0.3066  0.1976 -0.3577
   14SAPS  H14R 1795   3.212   3.743   7.630 -2.0678 -0.5353 -3.2747
   14SAPS  C215 1796   3.149   3.719   7.833  0.1669 -0.4147  0.0348
   14SAPS  H15R 1797   3.251   3.711   7.872  0.3976 -0.6636 -0.6157
   14SAPS  C216 1798   3.051   3.728   7.951  0.3389  0.5545 -0.0877
   14SAPS  H16R 1799   2.947   3.753   7.920  0.6244  2.0754  0.1335
   14SAPS  H16S 1800   3.078   3.801   8.031  1.8453  1.5823 -1.5025
   14SAPS  C217 1801   3.022   3.597   8.021  0.2663  0.1069  0.7080
   14SAPS  H17R 1802   3.105   3.573   8.092  0.7168  0.1032  0.1867
   14SAPS  H17S 1803   3.021   3.520   7.941 -0.8566  0.5501  0.2899
   14SAPS  C218 1804   2.898   3.590   8.109 -0.4766 -0.4755 -0.1130
   14SAPS  H18R 1805   2.880   3.504   8.178  0.9472 -0.0735  0.7700
   14SAPS  H18S 1806   2.808   3.599   8.044  0.8837 -0.7014 -2.0650
   14SAPS  C219 1807   2.898   3.703   8.218  0.4782 -0.2979  0.8016
   14SAPS  H19R 1808   2.805   3.708   8.279 -0.4748  2.5238 -0.8292
   14SAPS  H19S 1809   2.898   3.801   8.166 -1.4240 -0.2338  0.8813
   14SAPS  C220 1810   3.014   3.697   8.315  0.6072 -0.2408 -0.8194
   14SAPS  H20R 1811   3.113   3.734   8.279  0.8540  0.0541  0.1596
   14SAPS  H20S 1812   3.030   3.596   8.358  0.4252  0.9174  2.0652
   14SAPS  H20T 1813   2.983   3.754   8.405  0.7714  1.0448 -1.5520
   14SAPS   C33 1814   2.857   3.390   6.894 -0.4442  0.2054 -0.0020
   14SAPS   H3X 1815   2.760   3.341   6.916 -0.1648  0.3467  1.5740
   14SAPS   H3Y 1816   2.835   3.498   6.891  0.6777  0.4831  1.2932
   14SAPS   C34 1817   2.946   3.344   7.008 -0.5367 -0.1351  0.0530
   14SAPS   H4X 1818   3.029   3.417   7.008 -0.4412 -0.2380 -1.5087
   14SAPS   H4Y 1819   2.985   3.243   6.986  0.0887  0.4746 -1.7034
   14SAPS   C35 1820   2.864   3.339   7.135 -0.3920 -0.3343  0.2645
   14SAPS   H5X 1821   2.780   3.267   7.126 -1.3201  0.8579 -0.6748
   14SAPS   H5Y 1822   2.823   3.437   7.166  0.9191  0.1939  0.3693
   14SAPS   C36 1823   2.947   3.284   7.251 -0.2063 -0.3359  0.2716
   14SAPS   H6X 1824   3.038   3.347   7.264  1.0159 -1.8624 -0.7348
   14SAPS   H6Y 1825   2.970   3.176   7.239 -0.6282 -0.1188 -2.9602
   14SAPS   C37 1826   2.867   3.301   7.385  0.3771 -0.1725 -0.5829
   14SAPS   H7X 1827   2.776   3.238   7.382 -0.4331  0.9510 -0.0257
   14SAPS   H7Y 1828   2.826   3.404   7.390  1.0883  0.0661  0.6499
   14SAPS   C38 1829   2.957   3.281   7.504  0.2641 -0.7236 -0.6412
   14SAPS   H8X 1830   3.045   3.345   7.482  1.6060 -1.3504  2.5336
   14SAPS   H8Y 1831   2.992   3.176   7.511 -0.1720 -0.7850  0.9815
   14SAPS   C39 1832   2.891   3.324   7.643 -0.0373 -0.0328 -0.6925
   14SAPS   H9X 1833   2.863   3.431   7.636  0.6899  0.2666  0.8691
   14SAPS   H9Y 1834   2.977   3.319   7.713  1.0011  1.2679 -1.8386
   14SAPS  C310 1835   2.780   3.228   7.681  0.2710  0.1239 -0.5453
   14SAPS  H10X 1836   2.832   3.136   7.716 -0.6087 -0.1063  0.1568
   14SAPS  H10Y 1837   2.717   3.205   7.593  0.8757  0.1606 -0.9918
   14SAPS  C311 1838   2.693   3.284   7.801 -0.0060 -0.1475  0.7733
   14SAPS  H11X 1839   2.592   3.236   7.805  0.4809 -1.1058  1.7622
   14SAPS  H11Y 1840   2.683   3.391   7.773 -0.1363 -0.4553 -0.3617
   14SAPS  C312 1841   2.770   3.275   7.933 -0.5734 -0.2168 -0.1267
   14SAPS  H12X 1842   2.750   3.365   7.994 -2.1655  0.9611 -2.3333
   14SAPS  H12Y 1843   2.880   3.277   7.916 -0.0590  1.1681  3.0879
   14SAPS  C313 1844   2.727   3.153   8.020 -0.1225 -0.5105  0.3657
   14SAPS  H13X 1845   2.775   3.063   7.976 -1.4468 -0.1744 -1.8825
   14SAPS  H13Y 1846   2.620   3.132   7.997  1.0726 -2.8869 -3.5300
   14SAPS  C314 1847   2.789   3.144   8.159  0.2626 -0.4731 -0.3443
   14SAPS  H14X 1848   2.774   3.045   8.206  0.0768  0.2640  1.1659
   14SAPS  H14Y 1849   2.730   3.218   8.218  0.5364  2.3713 -3.4323
   14SAPS  C315 1850   2.940   3.174   8.173 -0.1634  0.1294 -0.5408
   14SAPS  H15X 1851   2.970   3.259   8.108 -2.0446  0.9598 -0.3437
   14SAPS  H15Y 1852   2.983   3.086   8.119  0.2840  0.2959 -0.4636
   14SAPS  C316 1853   2.994   3.163   8.315  0.4828  0.0123 -0.7409
   14SAPS  H16X 1854   3.104   3.162   8.300  0.7010  1.3816  0.6739
   14SAPS  H16Y 1855   2.968   3.071   8.373  0.7427  0.5500  0.2458
   14SAPS  C317 1856   2.962   3.290   8.398  0.0721  0.0145  0.1221
   14SAPS  H17X 1857   2.853   3.302   8.412  0.2884  1.3999  0.6453
   14SAPS  H17Y 1858   2.990   3.377   8.334 -0.3750 -1.0191 -1.5027
   14SAPS  C318 1859   3.026   3.292   8.538 -0.0584  0.4596 -1.0682
   14SAPS  H18X 1860   3.134   3.267   8.548 -0.0715  0.3235 -1.2451
   14SAPS  H18Y 1861   2.977   3.217   8.604  0.3817  1.1905  0.1005
   14SAPS  H18Z 1862   3.025   3.389   8.592  0.5655  0.4964 -1.1172
   15SAPS     N 1863   2.269   2.396   5.759 -0.3467 -0.7610  0.3695
   15SAPS   HN1 1864   2.191   2.328   5.770  0.0259 -1.6582 -2.3033
   15SAPS   HN2 1865   2.253   2.493   5.793 -1.3877 -0.5996 -0.5343
   15SAPS   HN3 1866   2.289   2.405   5.657  2.9258 -0.6534  0.9780
   15SAPS   C12 1867   2.384   2.337   5.840  0.9202  0.0135 -0.4149
   15SAPS  H12A 1868   2.350   2.312   5.939  0.8401  0.7634 -0.2456
   15SAPS   C13 1869   2.450   2.213   5.781 -0.0863 -0.6437  0.7764
   15SAPS  O13A 1870   2.395   2.152   5.687 -0.2733 -0.5097  0.5580
   15SAPS  O13B 1871   2.554   2.157   5.837 -0.3772  0.1093  0.3545
   15SAPS   C11 1872   2.488   2.450   5.858 -0.3748 -0.2955  0.1214
   15SAPS  H11A 1873   2.514   2.464   5.750  0.6535 -0.2616  0.3629
   15SAPS  H11B 1874   2.578   2.421   5.917 -0.5447  0.1956  0.6185
   15SAPS     P 1875   2.528   2.674   5.980 -0.2297 -0.2924 -0.2305
   15SAPS   O13 1876   2.658   2.671   5.905  0.0738 -0.4540 -0.4408
   15SAPS   O14 1877   2.457   2.807   5.983  0.2500 -0.7484 -0.2721
   15SAPS   O12 1878   2.428   2.570   5.912  0.3242 -0.6502  0.3355
   15SAPS   O11 1879   2.557   2.622   6.129 -0.3536  0.3119  0.0343
   15SAPS    C1 1880   2.472   2.566   6.223 -0.4130  0.0070  0.2177
   15SAPS    HA 1881   2.402   2.503   6.164  0.3227  1.7545 -2.5846
   15SAPS    HB 1882   2.529   2.500   6.292  1.5738  0.1897 -1.2169
   15SAPS    C2 1883   2.411   2.676   6.318 -0.0053 -0.1633 -0.4741
   15SAPS    HS 1884   2.371   2.754   6.249 -0.5060 -0.0406 -0.0450
   15SAPS   O21 1885   2.509   2.726   6.410  0.1682  0.3383  0.9501
   15SAPS   C21 1886   2.491   2.848   6.449  0.2228 -0.5600  0.2621
   15SAPS   O22 1887   2.424   2.930   6.387 -0.0041 -0.8821  0.0856
   15SAPS   C22 1888   2.561   2.873   6.588  0.5042 -0.1273 -0.3029
   15SAPS   H2R 1889   2.481   2.928   6.642 -0.7662 -0.8538 -1.4038
   15SAPS   H2S 1890   2.579   2.779   6.645  0.0850  0.8263  1.4127
   15SAPS    C3 1891   2.296   2.610   6.400 -0.5077  0.5905  0.4581
   15SAPS    HX 1892   2.331   2.548   6.485 -3.3175 -1.6424  0.0647
   15SAPS    HY 1893   2.248   2.531   6.337  0.8029  1.2131 -1.3591
   15SAPS   O31 1894   2.194   2.704   6.442 -0.3666  0.6105  0.1257
   15SAPS   C31 1895   2.204   2.751   6.564 -0.0781  0.2701  0.3359
   15SAPS   O32 1896   2.287   2.723   6.645 -0.2455  0.0206  0.0563
   15SAPS   C32 1897   2.088   2.845   6.595  0.1772  0.3988 -0.1431
   15SAPS   H2X 1898   2.047   2.804   6.690 -0.5036  0.3177 -0.4705
   15SAPS   H2Y 1899   2.011   2.830   6.516  1.2549  0.7427 -1.2818
   15SAPS   C23 1900   2.690   2.956   6.579 -0.0756 -0.0385 -0.4126
   15SAPS   H3R 1901   2.676   3.038   6.506  0.4071  2.7858  2.5465
   15SAPS   H3S 1902   2.768   2.882   6.550  1.4602  0.4786  2.2549
   15SAPS   C24 1903   2.737   3.009   6.718  0.6086 -0.1497  0.0564
   15SAPS   H4R 1904   2.819   3.080   6.696 -2.8248  3.8049 -0.7273
   15SAPS   H4S 1905   2.766   2.927   6.786 -0.4383 -1.1904 -0.7372
   15SAPS   C25 1906   2.615   3.078   6.782  0.1044 -0.3860  0.5946
   15SAPS   H5R 1907   2.546   3.126   6.711  1.6862  1.5655  0.3274
   15SAPS   C26 1908   2.576   3.073   6.911  0.2919 -0.2540  0.0214
   15SAPS   H6R 1909   2.477   3.114   6.937  0.5117 -1.3006  2.6726
   15SAPS   C27 1910   2.658   2.995   7.017  0.1110 -0.9605  0.5619
   15SAPS   H7R 1911   2.752   3.052   7.033 -1.3378  1.0064  2.2706
   15SAPS   H7S 1912   2.689   2.893   6.983 -3.1134 -2.9394  3.2687
   15SAPS   C28 1913   2.579   2.978   7.140 -0.2566  0.5162 -0.3847
   15SAPS   H8R 1914   2.477   3.020   7.133 -0.0945  0.9839 -0.0155
   15SAPS   C29 1915   2.617   2.935   7.258 -0.4699 -0.5273 -0.0481
   15SAPS   H9R 1916   2.540   2.929   7.336 -1.4800 -3.2468 -1.1917
   15SAPS  C210 1917   2.759   2.891   7.290 -0.3440 -0.5425 -0.6669
   15SAPS  H10R 1918   2.833   2.964   7.253 -1.2332  0.1347 -1.1422
   15SAPS  H10S 1919   2.786   2.798   7.236  0.0822 -1.5229  1.1729
   15SAPS  C211 1920   2.782   2.892   7.439  0.9001 -0.0419  0.1815
   15SAPS  H11R 1921   2.851   2.971   7.473  0.5275 -0.4156  1.8392
   15SAPS  C212 1922   2.721   2.818   7.532  0.2500  0.0746  0.9712
   15SAPS  H12R 1923   2.737   2.838   7.639  0.7989  0.3328  0.8407
   15SAPS  C213 1924   2.616   2.709   7.511 -0.0984 -0.0612 -0.2854
   15SAPS  H13R 1925   2.605   2.674   7.406  1.0630 -0.8049 -0.1593
   15SAPS  H13S 1926   2.515   2.749   7.535 -0.0151 -0.3940  0.6407
   15SAPS  C214 1927   2.641   2.584   7.592  0.3114  0.1516  0.3051
   15SAPS  H14R 1928   2.714   2.517   7.545  1.9257  0.8326  1.8129
   15SAPS  C215 1929   2.597   2.552   7.710  0.4581 -0.6132  0.3169
   15SAPS  H15R 1930   2.637   2.458   7.749  2.0737 -0.9189 -1.9501
   15SAPS  C216 1931   2.506   2.639   7.792 -0.1968  0.0200 -0.0082
   15SAPS  H16R 1932   2.415   2.575   7.799  0.0895 -0.3903 -0.0175
   15SAPS  H16S 1933   2.480   2.735   7.742 -2.6285 -1.0821 -1.0050
   15SAPS  C217 1934   2.543   2.678   7.935 -0.7684 -0.4633 -0.6300
   15SAPS  H17R 1935   2.477   2.757   7.978 -1.1444 -1.3953  0.5199
   15SAPS  H17S 1936   2.645   2.721   7.933 -0.6137 -0.7466  0.8964
   15SAPS  C218 1937   2.552   2.564   8.037  0.3966  1.2395 -0.9434
   15SAPS  H18R 1938   2.637   2.499   8.009 -1.8539 -1.7668 -1.0328
   15SAPS  H18S 1939   2.462   2.499   8.033  2.9209 -2.3982 -1.3883
   15SAPS  C219 1940   2.578   2.617   8.180 -0.3351  0.2354  0.3841
   15SAPS  H19R 1941   2.494   2.679   8.219 -0.2642 -0.3223  1.4638
   15SAPS  H19S 1942   2.664   2.686   8.171 -1.2293  1.4109  0.6285
   15SAPS  C220 1943   2.621   2.515   8.294  0.0360  0.2957  0.6573
   15SAPS  H20R 1944   2.657   2.570   8.384 -0.1170 -0.9471  1.4949
   15SAPS  H20S 1945   2.702   2.451   8.252  0.2951  0.8954  0.2336
   15SAPS  H20T 1946   2.537   2.447   8.317 -0.7148  0.4244 -1.6151
   15SAPS   C33 1947   2.130   2.999   6.599 -0.2565  0.4333 -0.0324
   15SAPS   H3X 1948   2.027   3.042   6.603 -1.3339 -1.8583 -1.6311
   15SAPS   H3Y 1949   2.178   3.029   6.503 -2.6630  0.7587 -1.1839
   15SAPS   C34 1950   2.203   3.038   6.724  0.0893 -0.3927 -0.1623
   15SAPS   H4X 1951   2.256   3.136   6.715 -0.7982  0.2248  1.2200
   15SAPS   H4Y 1952   2.277   2.959   6.746  0.3585 -0.3148 -0.7707
   15SAPS   C35 1953   2.121   3.049   6.854  0.8598 -0.3108  0.5187
   15SAPS   H5X 1954   2.069   2.952   6.869 -1.5770  0.7673 -0.7984
   15SAPS   H5Y 1955   2.038   3.121   6.838  1.5429 -0.0130 -1.8440
   15SAPS   C36 1956   2.211   3.092   6.968 -0.2495 -0.7012 -0.0534
   15SAPS   H6X 1957   2.279   3.174   6.937 -1.6824  0.0962 -1.1651
   15SAPS   H6Y 1958   2.276   3.003   6.980 -0.4112 -0.4048  3.3739
   15SAPS   C37 1959   2.139   3.112   7.104 -1.0796 -0.1228  0.0513
   15SAPS   H7X 1960   2.111   3.009   7.134 -0.6931  1.4055  6.4202
   15SAPS   H7Y 1961   2.056   3.185   7.092 -0.9315  0.0960  0.3653
   15SAPS   C38 1962   2.227   3.171   7.215 -0.2262 -0.0115 -0.0832
   15SAPS   H8X 1963   2.248   3.277   7.191 -2.2054  0.3680 -0.2160
   15SAPS   H8Y 1964   2.324   3.117   7.207 -1.4199 -2.2013 -0.1781
   15SAPS   C39 1965   2.156   3.167   7.350 -0.5429  0.2190 -0.5311
   15SAPS   H9X 1966   2.120   3.067   7.382  2.1805 -0.4025  0.6824
   15SAPS   H9Y 1967   2.071   3.236   7.368 -0.2536  0.2567  0.7284
   15SAPS  C310 1968   2.261   3.206   7.463  0.4309 -0.0579  0.5698
   15SAPS  H10X 1969   2.290   3.312   7.444 -0.6520 -0.2310 -2.2098
   15SAPS  H10Y 1970   2.351   3.141   7.462  0.8997  0.5876  0.4673
   15SAPS  C311 1971   2.201   3.204   7.602  0.4047 -0.0954  0.1789
   15SAPS  H11X 1972   2.147   3.108   7.621  1.3293 -0.7134 -0.2870
   15SAPS  H11Y 1973   2.120   3.280   7.606 -0.4826 -0.9168 -1.5076
   15SAPS  C312 1974   2.301   3.224   7.718 -0.2221 -0.5328 -0.3273
   15SAPS  H12X 1975   2.382   3.295   7.693 -0.5860  0.0095  0.0416
   15SAPS  H12Y 1976   2.351   3.124   7.727  1.1656  0.3585  2.4951
   15SAPS  C313 1977   2.243   3.283   7.849 -0.4128 -0.1666  0.2441
   15SAPS  H13X 1978   2.146   3.242   7.884 -1.1576 -0.1826 -1.8178
   15SAPS  H13Y 1979   2.222   3.382   7.803  0.9548 -0.6837 -1.5389
   15SAPS  C314 1980   2.341   3.306   7.960 -0.0889 -0.1959 -0.4264
   15SAPS  H14X 1981   2.436   3.355   7.929  1.8393 -3.6541 -0.1758
   15SAPS  H14Y 1982   2.370   3.204   7.993  0.5813  0.0929 -0.1059
   15SAPS  C315 1983   2.277   3.392   8.072  0.0554  0.3231  0.3003
   15SAPS  H15X 1984   2.181   3.343   8.095 -2.9573  4.5122 -2.5702
   15SAPS  H15Y 1985   2.254   3.490   8.025  0.9446  0.0521 -0.7103
   15SAPS  C316 1986   2.370   3.406   8.197  0.0830 -0.4324 -0.2622
   15SAPS  H16X 1987   2.355   3.492   8.266 -0.8018 -1.2338  0.5554
   15SAPS  H16Y 1988   2.466   3.432   8.147  0.1823 -0.6675 -0.1977
   15SAPS  C317 1989   2.387   3.271   8.274 -0.3351  0.5724  0.2955
   15SAPS  H17X 1990   2.493   3.261   8.305 -0.2178 -1.1541 -0.6085
   15SAPS  H17Y 1991   2.365   3.186   8.206 -1.0894  1.6202 -0.8050
   15SAPS  C318 1992   2.292   3.273   8.391 -0.4730 -0.0882 -0.2473
   15SAPS  H18X 1993   2.340   3.306   8.485 -0.6117 -0.1492 -0.1524
   15SAPS  H18Y 1994   2.264   3.167   8.411 -1.3740 -0.2925 -2.4191
   15SAPS  H18Z 1995   2.205   3.340   8.377 -0.9681 -0.1518  2.2857
   16SAPS     N 1996   4.002   5.149   6.751  0.0888  0.2680  0.7004
   16SAPS   HN1 1997   4.079   5.212   6.779  1.0265 -0.5528  0.0088
   16SAPS   HN2 1998   3.921   5.143   6.815 -0.3828 -1.1328  0.0105
   16SAPS   HN3 1999   4.037   5.055   6.725 -1.1001  0.4691 -1.7997
   16SAPS   C12 2000   3.940   5.208   6.630 -0.3011 -0.5036 -0.0450
   16SAPS  H12A 2001   3.989   5.177   6.539  0.7074 -2.4656  1.1307
   16SAPS   C13 2002   3.791   5.163   6.616 -0.3317  0.8055  0.3562
   16SAPS  O13A 2003   3.753   5.056   6.661 -0.4044  0.5478 -0.2672
   16SAPS  O13B 2004   3.737   5.216   6.515 -1.2707 -0.3900  0.1596
   16SAPS   C11 2005   3.961   5.364   6.643  0.6605  0.1041 -0.3306
   16SAPS  H11A 2006   3.919   5.404   6.737  0.5624  0.3634 -0.4825
   16SAPS  H11B 2007   3.926   5.418   6.552 -0.3602 -3.2023 -1.9493
   16SAPS     P 2008   4.190   5.472   6.556 -0.3463 -0.6979 -0.1076
   16SAPS   O13 2009   4.254   5.399   6.445 -0.1203 -0.1981  0.6836
   16SAPS   O14 2010   4.104   5.587   6.521 -0.1850 -0.0117 -0.0982
   16SAPS   O12 2011   4.100   5.383   6.648 -0.3848  0.3870  0.6261
   16SAPS   O11 2012   4.307   5.532   6.653  0.6616 -0.4356 -0.1064
   16SAPS    C1 2013   4.339   5.473   6.779 -0.0740  0.1978  1.0272
   16SAPS    HA 2014   4.366   5.365   6.779  2.1514  0.7359  0.8485
   16SAPS    HB 2015   4.431   5.521   6.819  1.3249 -1.4676 -0.1264
   16SAPS    C2 2016   4.233   5.492   6.891  0.1719  0.0768 -0.0223
   16SAPS    HS 2017   4.151   5.421   6.864  1.6298 -1.2943 -0.9730
   16SAPS   O21 2018   4.188   5.633   6.903  0.6763  0.2687  0.6324
   16SAPS   C21 2019   4.061   5.656   6.947 -0.0154  0.5308 -0.7291
   16SAPS   O22 2020   3.987   5.566   6.979 -0.0791  0.0065  0.0183
   16SAPS   C22 2021   4.030   5.801   6.948 -0.0292 -0.6278 -0.5106
   16SAPS   H2R 2022   4.050   5.840   6.846  0.9455  1.4259  0.4459
   16SAPS   H2S 2023   3.921   5.819   6.965 -0.5000 -3.9582  0.3331
   16SAPS    C3 2024   4.276   5.449   7.038  0.0176  0.2207 -0.2197
   16SAPS    HX 2025   4.334   5.535   7.078  2.3108 -1.5041  0.3112
   16SAPS    HY 2026   4.353   5.369   7.047  0.7205  1.0700  1.6855
   16SAPS   O31 2027   4.169   5.421   7.130  0.0249  0.2659 -0.1328
   16SAPS   C31 2028   4.102   5.310   7.123 -0.8750 -0.5383  0.2304
   16SAPS   O32 2029   4.127   5.219   7.044  0.1701  0.1106  0.7701
   16SAPS   C32 2030   3.980   5.318   7.226 -0.0134  0.2568  0.5051
   16SAPS   H2X 2031   3.900   5.289   7.153  1.4585 -3.4368  0.2593
   16SAPS   H2Y 2032   3.964   5.421   7.263 -1.4351 -0.0235  0.7138
   16SAPS   C23 2033   4.122   5.874   7.053  0.2959 -0.6818 -0.1810
   16SAPS   H3R 2034   4.121   5.981   7.024 -1.0847 -1.0203 -1.4407
   16SAPS   H3S 2035   4.229   5.846   7.037  0.4396  0.0153 -0.4656
   16SAPS   C24 2036   4.068   5.863   7.192 -0.5421  1.1737  1.2361
   16SAPS   H4R 2037   3.966   5.906   7.202 -1.3101 -0.7261  1.9402
   16SAPS   H4S 2038   4.119   5.934   7.260  1.5752 -1.1777  2.2112
   16SAPS   C25 2039   4.094   5.728   7.247  0.2602 -0.0997 -0.5230
   16SAPS   H5R 2040   4.135   5.648   7.184  0.5950  0.1701 -0.6543
   16SAPS   C26 2041   4.078   5.694   7.375 -0.3603 -0.0071  0.0103
   16SAPS   H6R 2042   4.096   5.589   7.402 -1.1244 -0.1957 -0.1814
   16SAPS   C27 2043   4.020   5.773   7.486  0.2441 -0.2224  0.2468
   16SAPS   H7R 2044   3.914   5.805   7.476  0.5137  0.7995  0.5833
   16SAPS   H7S 2045   4.075   5.870   7.488 -2.4741  1.4311 -1.2267
   16SAPS   C28 2046   4.042   5.699   7.619 -0.3339 -0.1624  0.1579
   16SAPS   H8R 2047   3.973   5.621   7.653 -0.4578 -0.4485 -0.7337
   16SAPS   C29 2048   4.135   5.737   7.711  0.0881  0.0298 -0.5167
   16SAPS   H9R 2049   4.152   5.680   7.803  1.6667  3.2304  1.2329
   16SAPS  C210 2050   4.236   5.854   7.705 -0.0831  0.8266  0.9312
   16SAPS  H10R 2051   4.282   5.872   7.605 -2.0899  1.0071  0.0262
   16SAPS  H10S 2052   4.314   5.820   7.776  0.7083  1.4056  0.3482
   16SAPS  C211 2053   4.170   5.986   7.752 -0.1697 -0.7903  0.3080
   16SAPS  H11R 2054   4.151   6.055   7.668 -0.6304  0.7145  1.6279
   16SAPS  C212 2055   4.143   6.030   7.881 -0.0825  0.0527  0.0287
   16SAPS  H12R 2056   4.104   6.132   7.888 -0.6533 -0.0720 -1.1129
   16SAPS  C213 2057   4.165   5.954   8.006 -0.2399  0.5538 -0.4341
   16SAPS  H13R 2058   4.195   5.849   7.981 -0.3901 -0.2744  2.6337
   16SAPS  H13S 2059   4.067   5.938   8.055 -0.6474 -0.5297 -1.5660
   16SAPS  C214 2060   4.275   6.021   8.086  1.2984 -0.2637  0.6212
   16SAPS  H14R 2061   4.366   6.053   8.032  0.6024 -2.3880 -1.9419
   16SAPS  C215 2062   4.284   5.995   8.224 -0.2463 -0.2733 -0.3202
   16SAPS  H15R 2063   4.366   6.042   8.281 -0.9918  0.8857 -0.1890
   16SAPS  C216 2064   4.184   5.911   8.297 -0.0199  0.8565 -0.2528
   16SAPS  H16R 2065   4.232   5.838   8.365 -1.5185 -1.7834 -1.9644
   16SAPS  H16S 2066   4.132   5.839   8.231  1.8819  0.6608 -1.5833
   16SAPS  C217 2067   4.093   6.010   8.371  0.6316  0.2534 -0.2880
   16SAPS  H17R 2068   4.008   5.948   8.406  0.4159  0.7576  0.0881
   16SAPS  H17S 2069   4.046   6.081   8.299 -0.4083  0.4566  0.5703
   16SAPS  C218 2070   4.149   6.079   8.496  0.0944 -0.1835 -0.2000
   16SAPS  H18R 2071   4.243   6.131   8.466  0.2439  0.0512  0.6757
   16SAPS  H18S 2072   4.174   6.016   8.584  0.1520 -1.1630 -0.8987
   16SAPS  C219 2073   4.040   6.176   8.540 -0.6710 -0.0119  0.0694
   16SAPS  H19R 2074   3.946   6.126   8.569 -0.6531  0.8110  1.5615
   16SAPS  H19S 2075   4.012   6.238   8.453 -4.2481 -3.0096 -1.0449
   16SAPS  C220 2076   4.079   6.268   8.663 -0.1457 -0.2682  0.5907
   16SAPS  H20R 2077   3.991   6.334   8.680 -0.2435 -0.2876  0.1541
   16SAPS  H20S 2078   4.156   6.346   8.645  1.0769 -1.2665  1.3942
   16SAPS  H20T 2079   4.101   6.210   8.755 -0.2052  0.0128  0.7869
   16SAPS   C33 2080   3.998   5.197   7.326  0.0036 -0.5097 -0.7851
   16SAPS   H3X 2081   4.025   5.108   7.266  0.2358 -0.2028 -1.1326
   16SAPS   H3Y 2082   3.900   5.174   7.373 -0.7768  2.3930 -0.8865
   16SAPS   C34 2083   4.089   5.227   7.443 -0.5768  0.2561 -0.2177
   16SAPS   H4X 2084   4.048   5.317   7.494  0.2094  0.7419 -0.4324
   16SAPS   H4Y 2085   4.187   5.261   7.404 -0.7375  0.7044 -0.2325
   16SAPS   C35 2086   4.092   5.125   7.558  0.0045 -0.3893 -0.3650
   16SAPS   H5X 2087   4.141   5.033   7.520  2.0705 -0.2493  1.8315
   16SAPS   H5Y 2088   3.984   5.103   7.569  0.5489 -2.8474  0.3391
   16SAPS   C36 2089   4.159   5.176   7.686 -0.2859  0.3542  0.1971
   16SAPS   H6X 2090   4.105   5.253   7.745  0.5631 -0.1574  1.6772
   16SAPS   H6Y 2091   4.252   5.224   7.647 -0.2418 -0.6820 -1.0195
   16SAPS   C37 2092   4.209   5.056   7.770  0.2470 -0.3013 -0.2113
   16SAPS   H7X 2093   4.245   4.982   7.696 -0.1077  0.4664 -1.1642
   16SAPS   H7Y 2094   4.132   5.009   7.836  1.2442  0.9747  1.9385
   16SAPS   C38 2095   4.332   5.092   7.862  0.3877  0.1369  0.4537
   16SAPS   H8X 2096   4.303   5.169   7.937  0.1443  0.3963  0.0900
   16SAPS   H8Y 2097   4.416   5.136   7.805 -0.5052  0.8873 -0.2961
   16SAPS   C39 2098   4.379   4.964   7.940 -1.0761  0.6182 -0.4201
   16SAPS   H9X 2099   4.490   4.962   7.941 -1.0751 -5.5477  1.1241
   16SAPS   H9Y 2100   4.352   4.872   7.884  1.6959  0.6656 -1.9343
   16SAPS  C310 2101   4.342   4.957   8.090  0.1526  0.1658 -0.5556
   16SAPS  H10X 2102   4.349   4.856   8.135 -0.8307  0.7073  0.8395
   16SAPS  H10Y 2103   4.237   4.987   8.112 -0.0609 -1.8726  1.3410
   16SAPS  C311 2104   4.431   5.051   8.171 -0.1237  0.0176  0.0068
   16SAPS  H11X 2105   4.432   5.151   8.123 -3.0778 -0.9068 -2.1406
   16SAPS  H11Y 2106   4.533   5.007   8.172 -0.6916 -1.3016  0.3550
   16SAPS  C312 2107   4.391   5.051   8.321  0.3338  0.1517  0.2940
   16SAPS  H12X 2108   4.397   4.951   8.368  0.2945 -0.0174 -0.0642
   16SAPS  H12Y 2109   4.292   5.099   8.337  0.2532 -0.3981  1.4427
   16SAPS  C313 2110   4.493   5.129   8.398 -0.4323 -0.6828 -1.2730
   16SAPS  H13X 2111   4.486   5.237   8.372 -3.5848 -1.1734 -2.6567
   16SAPS  H13Y 2112   4.596   5.095   8.375 -0.4752 -0.9460 -1.0822
   16SAPS  C314 2113   4.473   5.101   8.554 -0.5363 -0.7465  0.9518
   16SAPS  H14X 2114   4.538   5.015   8.585  3.0310  1.2594 -0.6114
   16SAPS  H14Y 2115   4.366   5.077   8.567 -1.1491  1.4024  0.0496
   16SAPS  C315 2116   4.499   5.223   8.647  0.0262  0.1248 -1.1138
   16SAPS  H15X 2117   4.483   5.181   8.749 -0.4955 -2.5080 -2.2557
   16SAPS  H15Y 2118   4.421   5.302   8.637  0.6355  0.9741  0.5667
   16SAPS  C316 2119   4.642   5.267   8.633 -0.4570  0.2755  0.6826
   16SAPS  H16X 2120   4.669   5.285   8.526  1.6115 -0.7552  0.9922
   16SAPS  H16Y 2121   4.709   5.186   8.669  0.4049 -0.1206 -1.6911
   16SAPS  C317 2122   4.675   5.385   8.718  0.7117  0.4708 -0.0736
   16SAPS  H17X 2123   4.655   5.366   8.826 -0.4454  1.7468 -0.0533
   16SAPS  H17Y 2124   4.606   5.465   8.682 -0.9633 -0.8411  0.1981
   16SAPS  C318 2125   4.823   5.427   8.692  0.3672 -0.0668 -0.2775
   16SAPS  H18X 2126   4.845   5.427   8.583 -0.6721 -1.6536 -0.5007
   16SAPS  H18Y 2127   4.889   5.353   8.742 -0.8066 -0.5247  0.6141
   16SAPS  H18Z 2128   4.844   5.531   8.723 -1.0550  0.1192  0.0652
   17SAPC     N 2129   2.552   1.308  10.925 -0.3391  0.5947 -0.3588
   17SAPC   C12 2130   2.485   1.257  10.798  0.1635  0.7570 -0.5048
   17SAPC  H12A 2131   2.391   1.306  10.782 -1.4486 -1.5107  1.6881
   17SAPC  H12B 2132   2.457   1.154  10.809 -1.9213  0.6463 -5.7488
   17SAPC   C13 2133   2.594   1.449  10.908 -0.2640 -0.5204 -0.3835
   17SAPC  H13A 2134   2.660   1.451  10.823  1.0965 -3.4583  0.5482
   17SAPC  H13B 2135   2.512   1.515  10.884 -1.0854 -0.9674  1.1628
   17SAPC  H13C 2136   2.633   1.492  10.999  0.4480 -0.6899 -0.6012
   17SAPC   C14 2137   2.459   1.300  11.033 -0.9388  0.4933  0.6758
   17SAPC  H14A 2138   2.505   1.350  11.118 -0.4183  2.0791 -0.5171
   17SAPC  H14B 2139   2.366   1.352  11.015  0.7467  2.9448 -1.2640
   17SAPC  H14C 2140   2.437   1.196  11.049  0.0438 -0.0470 -1.3771
   17SAPC   C15 2141   2.677   1.230  10.962  0.9204 -0.0796  0.2321
   17SAPC  H15A 2142   2.719   1.196  10.869  1.5657 -0.7084  0.7469
   17SAPC  H15B 2143   2.743   1.311  10.990  0.3461  2.0571 -4.1948
   17SAPC  H15C 2144   2.673   1.141  11.024 -0.5771 -1.3436 -1.6299
   17SAPC   C11 2145   2.550   1.271  10.662 -0.4481 -0.5654  0.1974
   17SAPC  H11A 2146   2.574   1.375  10.631 -0.3923 -1.5418 -3.2656
   17SAPC  H11B 2147   2.470   1.242  10.590 -1.5384  0.7073  0.8442
   17SAPC     P 2148   2.750   1.169  10.524 -0.1173  0.2711  0.2071
   17SAPC   O13 2149   2.804   1.298  10.483  0.7393 -0.1694 -0.3811
   17SAPC   O14 2150   2.847   1.062  10.549 -0.4327 -0.1573  0.0590
   17SAPC   O12 2151   2.660   1.182  10.654 -0.2831 -0.4972 -0.3283
   17SAPC   O11 2152   2.648   1.124  10.418  0.5562 -0.5080  0.3181
   17SAPC    C1 2153   2.560   1.014  10.430  0.2026  0.0906  0.6244
   17SAPC    HA 2154   2.612   0.935  10.489  1.1358 -1.1840 -1.8296
   17SAPC    HB 2155   2.464   1.041  10.479 -1.1815 -1.9165 -0.8867
   17SAPC    C2 2156   2.533   0.951  10.288  0.4296 -0.0942  0.0913
   17SAPC    HS 2157   2.494   0.849  10.306  1.2158 -0.6575 -1.3952
   17SAPC   O21 2158   2.654   0.945  10.210  0.0999  0.1479  0.1821
   17SAPC   C21 2159   2.734   0.835  10.223  0.7586  0.1324  0.0321
   17SAPC   O22 2160   2.709   0.738  10.290 -0.0037 -0.1749  0.6487
   17SAPC   C22 2161   2.858   0.867  10.141 -0.3438  0.0368 -0.3748
   17SAPC   H2R 2162   2.923   0.935  10.200  0.2873 -2.1388  1.5038
   17SAPC   H2S 2163   2.916   0.772  10.133 -0.2522  0.1555 -1.1696
   17SAPC    C3 2164   2.430   1.024  10.202 -0.0941 -0.0026 -0.3693
   17SAPC    HX 2165   2.483   1.116  10.169  1.3294 -0.3797  0.8012
   17SAPC    HY 2166   2.340   1.048  10.264 -1.5648  0.3300 -2.5760
   17SAPC   O31 2167   2.391   0.948  10.088 -0.2169  0.6594 -0.4366
   17SAPC   C31 2168   2.308   1.007  10.008 -0.1636 -0.0351  0.0446
   17SAPC   O32 2169   2.269   1.121  10.029 -0.8814  0.2948 -0.7264
   17SAPC   C32 2170   2.266   0.907   9.889  0.0455 -0.0768  0.0527
   17SAPC   H2X 2171   2.206   0.827   9.939 -1.8868  0.7827 -0.8354
   17SAPC   H2Y 2172   2.364   0.871   9.851  0.5164  0.0509  1.1164
   17SAPC   C23 2173   2.834   0.939  10.008 -0.7729  0.4988 -0.3394
   17SAPC   H3R 2174   2.925   0.997   9.981 -0.0908 -1.0410 -1.4622
   17SAPC   H3S 2175   2.752   1.012  10.019 -0.1077  1.2564 -0.3510
   17SAPC   C24 2176   2.819   0.840   9.888  0.4398 -0.8717 -0.0471
   17SAPC   H4R 2177   2.904   0.769   9.893 -0.8703 -2.6051 -1.8673
   17SAPC   H4S 2178   2.818   0.900   9.794 -0.5992 -1.5497 -0.4808
   17SAPC   C25 2179   2.687   0.762   9.899 -0.1922  0.0682  0.3121
   17SAPC   H5R 2180   2.626   0.775   9.990  0.0274 -1.2112  0.6549
   17SAPC   C26 2181   2.621   0.695   9.800  0.0843  0.1031  0.0012
   17SAPC   H6R 2182   2.532   0.636   9.827  2.2670 -3.4044 -0.1428
   17SAPC   C27 2183   2.673   0.670   9.661 -0.0775 -0.3747 -0.2985
   17SAPC   H7R 2184   2.658   0.568   9.622  0.6460 -0.0606 -1.4084
   17SAPC   H7S 2185   2.783   0.677   9.672 -0.2757  1.4583  0.8068
   17SAPC   C28 2186   2.634   0.783   9.567  0.0875 -0.3071  0.0609
   17SAPC   H8R 2187   2.667   0.877   9.612  0.8965 -0.8761  0.6905
   17SAPC   C29 2188   2.579   0.784   9.446 -0.6044 -0.7319  0.3340
   17SAPC   H9R 2189   2.564   0.880   9.394  1.3549 -1.3928 -1.5531
   17SAPC  C210 2190   2.541   0.661   9.358  0.2582 -0.0808 -0.6300
   17SAPC  H10R 2191   2.503   0.577   9.420 -1.1914  1.5725  0.7674
   17SAPC  H10S 2192   2.636   0.618   9.320 -0.0046 -0.3103 -1.0248
   17SAPC  C211 2193   2.439   0.693   9.254  0.3097 -0.1176 -0.3750
   17SAPC  H11R 2194   2.336   0.682   9.291  0.9944 -0.5875  1.4461
   17SAPC  C212 2195   2.456   0.739   9.134  0.3993  0.3984 -0.0150
   17SAPC  H12R 2196   2.365   0.766   9.079 -0.7547 -2.1894  0.5528
   17SAPC  C213 2197   2.581   0.772   9.063 -0.3413 -0.0114 -0.3495
   17SAPC  H13R 2198   2.669   0.777   9.131 -0.2191 -1.4377 -0.3832
   17SAPC  H13S 2199   2.579   0.871   9.012  0.3472 -0.5508 -1.4173
   17SAPC  C214 2200   2.604   0.656   8.963  0.2575 -0.4258  0.0652
   17SAPC  H14R 2201   2.632   0.564   9.017  0.9766 -0.7354 -0.8270
   17SAPC  C215 2202   2.604   0.673   8.827  0.4682 -0.0763  0.1578
   17SAPC  H15R 2203   2.617   0.579   8.770 -0.0452 -0.0973  0.0764
   17SAPC  C216 2204   2.582   0.801   8.756 -0.2614 -0.9880  0.3352
   17SAPC  H16R 2205   2.608   0.782   8.650  0.4654  1.7053 -0.0283
   17SAPC  H16S 2206   2.632   0.892   8.797  0.3166 -0.8217 -0.7359
   17SAPC  C217 2207   2.435   0.851   8.752 -0.4527 -0.2484 -0.4894
   17SAPC  H17R 2208   2.446   0.961   8.744 -0.2047 -0.1525  1.0638
   17SAPC  H17S 2209   2.388   0.825   8.849 -0.3984  1.5221  0.0159
   17SAPC  C218 2210   2.352   0.792   8.634 -0.2539  0.1821 -0.2171
   17SAPC  H18R 2211   2.360   0.681   8.642  0.8183  0.2651  0.0072
   17SAPC  H18S 2212   2.399   0.813   8.535 -1.7371 -1.9832 -1.4212
   17SAPC  C219 2213   2.210   0.840   8.644 -0.0569  0.1762  0.5687
   17SAPC  H19R 2214   2.208   0.948   8.621 -1.3017  0.1122  0.3372
   17SAPC  H19S 2215   2.176   0.817   8.748 -0.3182  0.1962  0.4884
   17SAPC  C220 2216   2.114   0.777   8.538  0.3591 -0.2631  0.0513
   17SAPC  H20R 2217   2.129   0.668   8.531 -1.6604 -0.5262 -0.7047
   17SAPC  H20S 2218   2.121   0.835   8.443 -1.2357  2.6463  1.6076
   17SAPC  H20T 2219   2.017   0.784   8.593 -0.3987  1.7205 -1.4537
   17SAPC   C33 2220   2.188   0.977   9.778  0.5391 -0.0994  0.2853
   17SAPC   H3X 2221   2.258   1.060   9.757 -0.4852  1.1856  1.8925
   17SAPC   H3Y 2222   2.092   1.020   9.812 -0.6914 -1.8160 -0.9210
   17SAPC   C34 2223   2.170   0.875   9.655 -0.4082  0.0575  0.3315
   17SAPC   H4X 2224   2.105   0.790   9.683 -2.0481  0.9706 -0.6140
   17SAPC   H4Y 2225   2.272   0.847   9.620 -0.2212 -0.0635  0.9687
   17SAPC   C35 2226   2.111   0.950   9.538  0.2714 -0.1718 -0.2441
   17SAPC   H5X 2227   2.161   1.047   9.515 -2.3069  1.3218  0.2147
   17SAPC   H5Y 2228   2.005   0.981   9.552 -0.0911 -0.7758 -1.5541
   17SAPC   C36 2229   2.116   0.871   9.404 -0.2297  0.8679  0.8844
   17SAPC   H6X 2230   2.060   0.775   9.399 -0.3426  1.0540 -3.0633
   17SAPC   H6Y 2231   2.220   0.847   9.376 -0.4610  0.5099  0.3192
   17SAPC   C37 2232   2.059   0.959   9.294 -0.2328  0.5699  0.8142
   17SAPC   H7X 2233   2.127   1.043   9.268 -0.9633  0.7984 -0.4135
   17SAPC   H7Y 2234   1.959   0.994   9.326 -1.0040 -1.0993  0.2964
   17SAPC   C38 2235   2.046   0.877   9.169 -0.2546 -0.8252 -0.6554
   17SAPC   H8X 2236   1.984   0.788   9.195 -0.5347 -0.4396 -0.0124
   17SAPC   H8Y 2237   2.142   0.829   9.139  0.5138  0.3123 -0.0843
   17SAPC   C39 2238   1.991   0.962   9.054 -0.0982 -0.5833 -0.2366
   17SAPC   H9X 2239   2.078   1.023   9.021  0.8434 -2.0725 -0.6003
   17SAPC   H9Y 2240   1.912   1.034   9.082  0.7285  0.4506 -0.5129
   17SAPC  C310 2241   1.935   0.890   8.926 -0.1050 -0.8328 -0.3671
   17SAPC  H10X 2242   1.998   0.804   8.891  2.5865 -0.0887  2.3915
   17SAPC  H10Y 2243   1.937   0.971   8.850 -1.1928  0.5158  1.0231
   17SAPC  C311 2244   1.791   0.839   8.958 -0.0137 -0.2235  0.4606
   17SAPC  H11X 2245   1.729   0.930   8.970  0.8496  1.0711 -3.9463
   17SAPC  H11Y 2246   1.782   0.773   9.047 -2.9285 -0.2251  0.2132
   17SAPC  C312 2247   1.731   0.772   8.845 -0.1058 -0.0940  0.1071
   17SAPC  H12X 2248   1.785   0.684   8.804  0.3121 -1.2994  3.0934
   17SAPC  H12Y 2249   1.731   0.839   8.756  4.9144  1.4625  1.1254
   17SAPC  C313 2250   1.581   0.732   8.861 -0.4246  0.3526  0.5660
   17SAPC  H13X 2251   1.523   0.824   8.886  2.1099  1.4490  2.7618
   17SAPC  H13Y 2252   1.573   0.656   8.942 -2.5164 -0.4694 -0.3949
   17SAPC  C314 2253   1.521   0.683   8.730 -0.3455 -0.1604  0.0779
   17SAPC  H14X 2254   1.553   0.580   8.704 -0.0945  0.0129 -0.3095
   17SAPC  H14Y 2255   1.550   0.750   8.646 -1.7920 -0.4405 -0.6409
   17SAPC  C315 2256   1.370   0.659   8.723 -0.1189  0.5629  0.6129
   17SAPC  H15X 2257   1.318   0.750   8.761 -0.3077  0.0529  1.5833
   17SAPC  H15Y 2258   1.361   0.586   8.806  0.8544  0.9362  1.0556
   17SAPC  C316 2259   1.308   0.605   8.595 -0.2073 -0.0459 -0.5845
   17SAPC  H16X 2260   1.199   0.590   8.609 -0.2056 -1.1949 -1.7646
   17SAPC  H16Y 2261   1.340   0.501   8.574 -0.6773 -0.7427  1.9948
   17SAPC  C317 2262   1.328   0.697   8.473  0.0451  0.0659  0.0080
   17SAPC  H17X 2263   1.436   0.721   8.461  0.3737 -0.4360  1.7727
   17SAPC  H17Y 2264   1.290   0.800   8.485 -2.3958 -0.6487 -1.2240
   17SAPC  C318 2265   1.273   0.633   8.345 -0.6533  0.2079  0.0324
   17SAPC  H18X 2266   1.349   0.579   8.285  1.6103  1.4681  1.7035
   17SAPC  H18Y 2267   1.201   0.556   8.380 -1.0022  0.3620 -0.3337
   17SAPC  H18Z 2268   1.206   0.702   8.288 -0.5996  1.0977  1.0407
   18SAPC     N 2269   3.325   0.738  10.721  0.7347  0.4205 -0.2645
   18SAPC   C12 2270   3.427   0.690  10.631 -0.2808  0.4043 -0.7013
   18SAPC  H12A 2271   3.524   0.715  10.672  0.2862 -1.8317 -0.6210
   18SAPC  H12B 2272   3.427   0.742  10.536 -2.0067 -0.6669 -1.2908
   18SAPC   C13 2273   3.322   0.892  10.722  0.1738  0.1283 -0.4551
   18SAPC  H13A 2274   3.253   0.915  10.802  1.0559 -0.5052  0.4938
   18SAPC  H13B 2275   3.417   0.934  10.747  0.0538  0.4421 -0.5264
   18SAPC  H13C 2276   3.287   0.930  10.627  0.8789 -1.3332 -1.3180
   18SAPC   C14 2277   3.188   0.694  10.684  0.0655 -0.3641 -0.5816
   18SAPC  H14A 2278   3.119   0.724  10.761  0.1744 -0.7608 -0.3302
   18SAPC  H14B 2279   3.171   0.741  10.588  2.1207 -1.4175 -1.4982
   18SAPC  H14C 2280   3.185   0.586  10.682  0.9858 -0.4536  1.4780
   18SAPC   C15 2281   3.358   0.687  10.863  0.0037  1.0800 -0.1679
   18SAPC  H15A 2282   3.454   0.728  10.893  0.0320  1.3570 -0.6422
   18SAPC  H15B 2283   3.284   0.728  10.931  0.5056  2.6195 -0.5224
   18SAPC  H15C 2284   3.338   0.581  10.870  0.1053  1.1557  1.6969
   18SAPC   C11 2285   3.429   0.546  10.592 -0.4842 -0.1668  0.7017
   18SAPC  H11A 2286   3.437   0.485  10.685  0.3345  1.4053  1.6709
   18SAPC  H11B 2287   3.524   0.517  10.543 -0.3447  1.9663 -0.3031
   18SAPC     P 2288   3.256   0.368  10.526  0.3520 -0.2370  0.1297
   18SAPC   O13 2289   3.246   0.340  10.674  0.7544 -0.3408 -0.1464
   18SAPC   O14 2290   3.133   0.353  10.441  0.4030  0.3291  0.0751
   18SAPC   O12 2291   3.318   0.514  10.505 -0.4836  0.2446 -0.1544
   18SAPC   O11 2292   3.362   0.269  10.461  0.3907  0.0870  0.1164
   18SAPC    C1 2293   3.453   0.298  10.355  0.2662  0.0698  0.5581
   18SAPC    HA 2294   3.466   0.408  10.351  1.8027 -0.0954  0.6605
   18SAPC    HB 2295   3.552   0.253  10.377  0.4528 -0.5876 -1.5388
   18SAPC    C2 2296   3.407   0.248  10.215  0.6149  0.0102 -0.3161
   18SAPC    HS 2297   3.490   0.278  10.147  1.6215 -0.3097  0.7598
   18SAPC   O21 2298   3.279   0.302  10.181  0.8140 -0.3405 -0.0520
   18SAPC   C21 2299   3.282   0.428  10.131  0.4781  0.4477  1.4154
   18SAPC   O22 2300   3.383   0.495  10.115 -0.3167  0.1808 -0.6155
   18SAPC   C22 2301   3.146   0.479  10.100  0.5101  0.0332  0.1878
   18SAPC   H2R 2302   3.071   0.398  10.087 -0.1980  0.6321  0.4806
   18SAPC   H2S 2303   3.117   0.546  10.184 -2.1150  0.3936 -0.9394
   18SAPC    C3 2304   3.404   0.094  10.225  0.2495  0.6628  0.1604
   18SAPC    HX 2305   3.317   0.071  10.289  1.3086 -1.6953  0.8058
   18SAPC    HY 2306   3.486   0.047  10.283  0.4411 -1.3355 -1.6462
   18SAPC   O31 2307   3.405   0.036  10.093  0.1924 -0.2104  0.1568
   18SAPC   C31 2308   3.287   0.026  10.032 -0.3539 -0.6949 -0.0976
   18SAPC   O32 2309   3.178   0.052  10.082  0.4879 -0.2606 -0.4438
   18SAPC   C32 2310   3.301  -0.021   9.887 -0.0799  0.0332 -0.8953
   18SAPC   H2X 2311   3.282  -0.130   9.882 -1.5860  0.2582 -0.4458
   18SAPC   H2Y 2312   3.405  -0.008   9.852  0.1853  0.8670  0.1622
   18SAPC   C23 2313   3.155   0.567   9.967 -0.0203  0.6857  0.2238
   18SAPC   H3R 2314   3.228   0.649   9.987  1.4363 -0.4760 -0.2420
   18SAPC   H3S 2315   3.059   0.622   9.956 -1.6924 -1.8140  1.6828
   18SAPC   C24 2316   3.163   0.492   9.830 -0.2757 -0.3555 -0.3635
   18SAPC   H4R 2317   3.250   0.423   9.823 -0.0535 -0.4633  2.8924
   18SAPC   H4S 2318   3.198   0.564   9.753 -1.2529 -0.2291 -0.6987
   18SAPC   C25 2319   3.031   0.436   9.784  0.9227  0.0249  0.4177
   18SAPC   H5R 2320   2.971   0.380   9.856 -1.6401  1.6707 -0.3672
   18SAPC   C26 2321   2.967   0.465   9.669  0.6831 -0.1687 -0.0217
   18SAPC   H6R 2322   2.870   0.420   9.643  1.2758 -0.2076 -2.3006
   18SAPC   C27 2323   3.014   0.551   9.554 -0.3400  0.3861 -0.5141
   18SAPC   H7R 2324   3.073   0.636   9.594 -0.5540 -0.0239  0.6900
   18SAPC   H7S 2325   2.921   0.598   9.515 -0.0699  1.6853  0.3522
   18SAPC   C28 2326   3.102   0.481   9.454 -0.1726  0.0251 -0.8029
   18SAPC   H8R 2327   3.203   0.455   9.488 -0.1687  1.1208  0.0067
   18SAPC   C29 2328   3.074   0.467   9.327  0.2529 -0.5991 -0.1332
   18SAPC   H9R 2329   3.140   0.416   9.256  1.0703  3.1514 -2.1987
   18SAPC  C210 2330   2.946   0.515   9.263 -1.1022  0.5130 -0.5464
   18SAPC  H10R 2331   2.872   0.521   9.346 -0.1697  0.3669  0.3023
   18SAPC  H10S 2332   2.908   0.430   9.203 -0.0522  0.0953 -0.6236
   18SAPC  C211 2333   2.955   0.647   9.175 -0.1456 -0.4196 -1.1115
   18SAPC  H11R 2334   2.951   0.742   9.230 -0.6363 -0.9256 -0.2556
   18SAPC  C212 2335   2.975   0.651   9.045  0.0577  0.2205 -0.0329
   18SAPC  H12R 2336   3.004   0.749   9.005 -0.3167 -0.0044 -0.8460
   18SAPC  C213 2337   3.010   0.526   8.966  0.4563 -0.9402  0.2668
   18SAPC  H13R 2338   2.920   0.492   8.910  0.7762 -1.1713 -0.1176
   18SAPC  H13S 2339   3.048   0.441   9.027  0.8764 -1.4116 -0.6242
   18SAPC  C214 2340   3.117   0.540   8.859 -0.1534  0.0881  0.1986
   18SAPC  H14R 2341   3.142   0.644   8.836  1.2213 -0.1912  0.3308
   18SAPC  C215 2342   3.172   0.449   8.779 -0.0906  0.3476  0.1825
   18SAPC  H15R 2343   3.249   0.475   8.705 -2.9268  3.4803 -1.8615
   18SAPC  C216 2344   3.130   0.304   8.778 -0.5876  0.0949 -0.2229
   18SAPC  H16R 2345   3.082   0.262   8.869  1.1800  2.6322  1.9556
   18SAPC  H16S 2346   3.209   0.235   8.741 -1.6009 -0.9360 -0.5073
   18SAPC  C217 2347   3.011   0.295   8.683 -0.0658 -0.2326  0.4856
   18SAPC  H17R 2348   3.039   0.341   8.586 -1.9753  0.0558  0.0424
   18SAPC  H17S 2349   2.922   0.351   8.718  1.4139  1.9387  0.8694
   18SAPC  C218 2350   2.961   0.143   8.666  0.1673 -0.5063  0.2997
   18SAPC  H18R 2351   2.857   0.149   8.626 -0.5362  1.1575  2.2802
   18SAPC  H18S 2352   2.952   0.098   8.768  0.1305 -1.5730 -0.1688
   18SAPC  C219 2353   3.049   0.081   8.554  0.4841  0.2569  0.5593
   18SAPC  H19R 2354   3.153   0.076   8.592  0.6797  0.6307  0.0810
   18SAPC  H19S 2355   3.052   0.149   8.466 -1.0248  0.6665  0.8084
   18SAPC  C220 2356   2.991  -0.062   8.513  0.4991  0.0946 -0.1045
   18SAPC  H20R 2357   3.056  -0.121   8.445  1.4537 -1.3924  2.0032
   18SAPC  H20S 2358   2.886  -0.061   8.477 -0.0042 -1.9802  1.2024
   18SAPC  H20T 2359   2.989  -0.120   8.608  0.9485  0.5450  0.1785
   18SAPC   C33 2360   3.204   0.072   9.799  0.3816 -0.3656 -0.2311
   18SAPC   H3X 2361   3.227   0.180   9.810 -1.0438 -0.1682  0.9482
   18SAPC   H3Y 2362   3.098   0.058   9.828  0.0741  0.7294 -0.7846
   18SAPC   C34 2363   3.194   0.031   9.654 -0.1643  1.2906 -0.0713
   18SAPC   H4X 2364   3.136  -0.063   9.653  0.0384  1.1632  0.2993
   18SAPC   H4Y 2365   3.290   0.026   9.598 -0.2973 -1.3643 -0.0869
   18SAPC   C35 2366   3.114   0.138   9.575 -0.6400 -0.2709 -0.3025
   18SAPC   H5X 2367   3.167   0.233   9.598 -0.3140 -1.0188  2.1564
   18SAPC   H5Y 2368   3.013   0.161   9.614 -0.8517 -0.6535 -0.6305
   18SAPC   C36 2369   3.089   0.114   9.427 -1.0250  0.4170 -0.2600
   18SAPC   H6X 2370   3.027   0.196   9.385 -0.2133  0.7933 -0.7329
   18SAPC   H6Y 2371   3.028   0.023   9.407  0.9020 -0.9097 -0.2721
   18SAPC   C37 2372   3.214   0.123   9.337 -1.0208 -0.0741 -0.2168
   18SAPC   H7X 2373   3.273   0.038   9.378 -0.1215  0.6631  0.0187
   18SAPC   H7Y 2374   3.268   0.217   9.358  2.6239 -2.1126 -0.0458
   18SAPC   C38 2375   3.186   0.100   9.190 -0.9724  0.4746  0.6198
   18SAPC   H8X 2376   3.264   0.151   9.129  0.8426 -0.9451  1.7056
   18SAPC   H8Y 2377   3.099   0.161   9.160 -2.0063 -1.7032 -0.9623
   18SAPC   C39 2378   3.177  -0.051   9.143 -0.5059  0.0650  0.2123
   18SAPC   H9X 2379   3.162  -0.039   9.033 -0.2990  0.2118  0.2008
   18SAPC   H9Y 2380   3.090  -0.085   9.203 -1.7822 -0.0851 -1.6697
   18SAPC  C310 2381   3.308  -0.126   9.172  0.1719 -0.1380  0.5110
   18SAPC  H10X 2382   3.282  -0.234   9.169 -0.1235 -0.1519  2.7571
   18SAPC  H10Y 2383   3.340  -0.102   9.276  0.0493  1.3139  0.2272
   18SAPC  C311 2384   3.421  -0.096   9.069  0.0366  0.2172 -0.1020
   18SAPC  H11X 2385   3.516  -0.145   9.100  0.3032  1.6971  1.4983
   18SAPC  H11Y 2386   3.443   0.012   9.083  1.5940 -0.0260 -0.5645
   18SAPC  C312 2387   3.385  -0.128   8.920  0.7178  0.9375  0.0679
   18SAPC  H12X 2388   3.303  -0.061   8.886  0.7736  1.2439  0.5333
   18SAPC  H12Y 2389   3.342  -0.230   8.916 -0.3628  1.3229  1.6303
   18SAPC  C313 2390   3.513  -0.091   8.834 -0.3489  0.4100 -0.0422
   18SAPC  H13X 2391   3.605  -0.141   8.872 -0.5883  0.0079  0.0105
   18SAPC  H13Y 2392   3.510   0.018   8.856 -2.5345  0.6111 -1.2260
   18SAPC  C314 2393   3.485  -0.128   8.690  0.0445  0.2934  0.2459
   18SAPC  H14X 2394   3.575  -0.103   8.629 -0.5142  0.8690 -0.3554
   18SAPC  H14Y 2395   3.398  -0.082   8.639  0.8737 -0.4437 -1.9055
   18SAPC  C315 2396   3.476  -0.280   8.672  0.1762  0.0571  0.0116
   18SAPC  H15X 2397   3.379  -0.314   8.713 -0.8809  1.5334 -1.1932
   18SAPC  H15Y 2398   3.551  -0.343   8.724  0.9686  1.2004  0.2808
   18SAPC  C316 2399   3.473  -0.315   8.529 -0.3768 -0.9052  0.5951
   18SAPC  H16X 2400   3.461  -0.423   8.505  0.8708 -1.0035  0.3379
   18SAPC  H16Y 2401   3.568  -0.279   8.485  0.2411 -2.4970  0.5632
   18SAPC  C317 2402   3.350  -0.255   8.462 -0.5397  0.5014  0.3237
   18SAPC  H17X 2403   3.344  -0.145   8.473  2.9204  0.5692  2.1541
   18SAPC  H17Y 2404   3.263  -0.301   8.514 -0.0069  0.1813  0.9306
   18SAPC  C318 2405   3.351  -0.273   8.311 -0.4739  0.1296 -0.6660
   18SAPC  H18X 2406   3.376  -0.375   8.275 -0.5272 -0.3026  0.4851
   18SAPC  H18Y 2407   3.417  -0.198   8.262  0.4294  0.6835  1.3510
   18SAPC  H18Z 2408   3.248  -0.250   8.276 -1.9075 -2.5731  1.5707
   19SAPC     N 2409   2.600   2.094  10.588 -0.6800 -0.1159  0.4986
   19SAPC   C12 2410   2.474   2.041  10.649 -0.6424  0.4318  0.1325
   19SAPC  H12A 2411   2.481   1.949  10.705  0.5402 -1.2042 -2.6329
   19SAPC  H12B 2412   2.402   2.016  10.572 -0.8373 -0.6407  0.6499
   19SAPC   C13 2413   2.636   1.989  10.482  0.9225  0.1367 -0.7345
   19SAPC  H13A 2414   2.709   2.034  10.416  0.8103 -1.8926 -2.3078
   19SAPC  H13B 2415   2.682   1.904  10.530  1.3405  0.0532 -1.2722
   19SAPC  H13C 2416   2.548   1.959  10.427  0.5639 -0.0243 -0.0831
   19SAPC   C14 2417   2.582   2.221  10.515 -0.6199 -0.7500  0.1557
   19SAPC  H14A 2418   2.504   2.221  10.441  0.5289  2.2754 -1.1356
   19SAPC  H14B 2419   2.565   2.301  10.586 -0.6554  0.0151 -0.7055
   19SAPC  H14C 2420   2.673   2.254  10.466 -0.2571  0.3431  1.5232
   19SAPC   C15 2421   2.712   2.116  10.686 -0.4573 -0.7229 -0.1474
   19SAPC  H15A 2422   2.737   2.023  10.735 -0.0557 -0.9574 -0.7980
   19SAPC  H15B 2423   2.792   2.167  10.633 -2.0446 -1.0094 -2.8680
   19SAPC  H15C 2424   2.685   2.186  10.764 -2.7998 -0.1695 -1.4192
   19SAPC   C11 2425   2.398   2.149  10.727 -0.1227  0.2676 -0.0403
   19SAPC  H11A 2426   2.390   2.251  10.685 -1.1423 -0.1352 -0.8603
   19SAPC  H11B 2427   2.443   2.167  10.827  1.5140  2.2819 -1.0951
   19SAPC     P 2428   2.151   2.127  10.648 -0.2220 -0.1022  0.3810
   19SAPC   O13 2429   2.175   2.051  10.520 -0.1088 -0.0384  0.3024
   19SAPC   O14 2430   2.021   2.099  10.715  0.0652 -0.1855  0.1907
   19SAPC   O12 2431   2.268   2.097  10.755 -0.2480  0.0831  0.8075
   19SAPC   O11 2432   2.160   2.278  10.611  0.5244 -0.7498  0.1672
   19SAPC    C1 2433   2.076   2.355  10.525  0.1587 -0.4492 -0.2312
   19SAPC    HA 2434   1.972   2.318  10.519 -1.2897  3.4496 -0.6868
   19SAPC    HB 2435   2.074   2.458  10.567 -0.3070 -0.6302  0.1967
   19SAPC    C2 2436   2.123   2.360  10.383 -0.3621 -0.5166 -0.6674
   19SAPC    HS 2437   2.055   2.432  10.331  0.4282  0.3619 -0.5038
   19SAPC   O21 2438   2.121   2.236  10.319  0.3469  0.6657  0.2034
   19SAPC   C21 2439   2.015   2.189  10.262 -0.3459 -0.8559  0.4226
   19SAPC   O22 2440   1.909   2.254  10.247 -0.6193  0.3776 -0.0177
   19SAPC   C22 2441   2.035   2.053  10.183 -0.1197  0.1419 -0.2910
   19SAPC   H2R 2442   2.122   2.063  10.115 -0.3025 -1.0436 -0.7206
   19SAPC   H2S 2443   2.053   1.975  10.260  1.8097  1.4516  0.6270
   19SAPC    C3 2444   2.265   2.412  10.378 -0.2458 -1.2448 -0.2405
   19SAPC    HX 2445   2.332   2.339  10.427  0.7520  0.1408  0.4972
   19SAPC    HY 2446   2.273   2.499  10.446  0.2832 -0.8600 -0.7910
   19SAPC   O31 2447   2.308   2.448  10.244 -0.0664 -0.3667  0.2619
   19SAPC   C31 2448   2.400   2.369  10.185  0.5012  0.1551 -0.2171
   19SAPC   O32 2449   2.436   2.259  10.231  0.2228 -0.1959  0.7750
   19SAPC   C32 2450   2.434   2.419  10.045 -0.2098  0.5218 -0.5151
   19SAPC   H2X 2451   2.527   2.363  10.019  0.0845  0.1863  1.1365
   19SAPC   H2Y 2452   2.459   2.526  10.064 -0.2658  0.2828  1.0049
   19SAPC   C23 2453   1.907   2.008  10.102 -0.5817  0.4060 -0.0808
   19SAPC   H3R 2454   1.810   2.022  10.153 -1.4528 -2.3704 -0.8780
   19SAPC   H3S 2455   1.910   1.898  10.086 -0.3917  0.2595  0.9127
   19SAPC   C24 2456   1.909   2.074   9.964  0.7749  0.1145 -0.1399
   19SAPC   H4R 2457   1.997   2.041   9.905  0.1480  0.4673 -1.3019
   19SAPC   H4S 2458   1.923   2.179   9.996 -1.3280  0.6945 -0.9862
   19SAPC   C25 2459   1.779   2.057   9.893  0.4189  0.1805 -0.4464
   19SAPC   H5R 2460   1.704   2.001   9.950  0.1917  0.2588 -0.6689
   19SAPC   C26 2461   1.760   2.095   9.764  0.4952 -0.4838 -0.3753
   19SAPC   H6R 2462   1.666   2.071   9.712 -0.3082  0.0938  0.7820
   19SAPC   C27 2463   1.873   2.166   9.676 -1.0201  0.4937 -0.5562
   19SAPC   H7R 2464   1.955   2.199   9.743 -0.3339  0.1913 -1.2530
   19SAPC   H7S 2465   1.829   2.258   9.631 -0.9274  0.5603 -0.5128
   19SAPC   C28 2466   1.934   2.080   9.566  0.1540 -0.9576 -0.6222
   19SAPC   H8R 2467   1.965   1.979   9.594 -1.4549 -0.8724  1.5817
   19SAPC   C29 2468   1.947   2.117   9.437 -0.1583 -0.1003  0.1496
   19SAPC   H9R 2469   2.000   2.049   9.369 -0.6494  2.2981 -2.6941
   19SAPC  C210 2470   1.897   2.242   9.378  0.1971 -0.2606  0.3753
   19SAPC  H10R 2471   1.964   2.273   9.295 -0.9795 -1.0349 -0.8982
   19SAPC  H10S 2472   1.921   2.330   9.443  0.3627 -0.6429  0.8333
   19SAPC  C211 2473   1.755   2.256   9.337 -0.4685 -0.7036 -0.1837
   19SAPC  H11R 2474   1.704   2.330   9.401  1.0621  0.4989 -0.3231
   19SAPC  C212 2475   1.687   2.208   9.231  0.5009 -0.2187 -0.6842
   19SAPC  H12R 2476   1.581   2.234   9.216  0.5769 -0.5045 -1.7183
   19SAPC  C213 2477   1.753   2.118   9.127 -0.2437 -0.4044  0.3265
   19SAPC  H13R 2478   1.766   2.017   9.174 -1.4074 -0.9812 -0.5900
   19SAPC  H13S 2479   1.857   2.149   9.101 -0.9762  0.5925 -1.4506
   19SAPC  C214 2480   1.673   2.106   9.002  0.6662 -0.5807 -0.5912
   19SAPC  H14R 2481   1.613   2.015   8.991  0.4937 -0.8169  1.9442
   19SAPC  C215 2482   1.658   2.207   8.910  0.2894 -1.0484 -0.0505
   19SAPC  H15R 2483   1.611   2.184   8.813  0.1178  0.8863 -0.4478
   19SAPC  C216 2484   1.725   2.342   8.913  0.4162 -0.2313  0.0612
   19SAPC  H16R 2485   1.806   2.343   8.990 -0.1662 -2.7493  0.7586
   19SAPC  H16S 2486   1.649   2.422   8.926  0.7889 -0.0374  1.0929
   19SAPC  C217 2487   1.800   2.400   8.790 -0.8007  0.1383 -0.3872
   19SAPC  H17R 2488   1.885   2.331   8.773 -0.5329  0.4654 -0.3709
   19SAPC  H17S 2489   1.842   2.498   8.820 -1.8406  1.3202 -2.6228
   19SAPC  C218 2490   1.707   2.432   8.666 -0.5131  0.0549 -0.6902
   19SAPC  H18R 2491   1.632   2.509   8.693  0.0409 -1.0653  4.6317
   19SAPC  H18S 2492   1.650   2.340   8.641 -0.6273 -0.5179  1.5256
   19SAPC  C219 2493   1.785   2.495   8.550 -0.4849  0.3997 -0.1674
   19SAPC  H19R 2494   1.836   2.586   8.587  0.3170  0.0720 -0.4547
   19SAPC  H19S 2495   1.720   2.529   8.466 -2.6902 -0.2778  1.2179
   19SAPC  C220 2496   1.890   2.406   8.481  0.0552  0.4743  0.0231
   19SAPC  H20R 2497   1.919   2.465   8.392 -1.0354  2.4351  0.9301
   19SAPC  H20S 2498   1.837   2.316   8.443  1.3711  0.2103 -1.1899
   19SAPC  H20T 2499   1.970   2.382   8.555  1.0823 -0.4301 -1.3629
   19SAPC   C33 2500   2.323   2.390   9.943 -0.1157  0.2544  0.0193
   19SAPC   H3X 2501   2.238   2.460   9.956 -0.4123 -0.1486  0.2610
   19SAPC   H3Y 2502   2.291   2.283   9.940  1.2558 -0.1246 -3.0780
   19SAPC   C34 2503   2.372   2.407   9.796 -0.5723  0.0504  0.5750
   19SAPC   H4X 2504   2.459   2.338   9.787  0.4845  1.4933 -0.4454
   19SAPC   H4Y 2505   2.406   2.512   9.782  2.0710 -0.9504 -0.8009
   19SAPC   C35 2506   2.268   2.354   9.692 -0.5856  0.5141  0.4256
   19SAPC   H5X 2507   2.195   2.437   9.681 -1.0554  0.1098  0.4743
   19SAPC   H5Y 2508   2.215   2.262   9.724 -0.1325 -0.0281 -0.3647
   19SAPC   C36 2509   2.336   2.316   9.558 -0.2693  0.4294 -0.1381
   19SAPC   H6X 2510   2.260   2.254   9.506  0.2660 -0.4794  0.1463
   19SAPC   H6Y 2511   2.424   2.256   9.589  0.0542  0.5896 -0.7495
   19SAPC   C37 2512   2.367   2.438   9.469  0.4370 -0.8851  0.3448
   19SAPC   H7X 2513   2.443   2.491   9.531 -0.0300 -0.7840  0.8295
   19SAPC   H7Y 2514   2.272   2.495   9.468  1.7201  1.2652 -0.2707
   19SAPC   C38 2515   2.400   2.406   9.321  0.7399  0.2503 -0.1768
   19SAPC   H8X 2516   2.493   2.350   9.296  0.9334  1.0976 -1.4069
   19SAPC   H8Y 2517   2.401   2.511   9.287 -1.6745  0.4559  0.3219
   19SAPC   C39 2518   2.283   2.340   9.245  0.1097 -0.4685 -0.3858
   19SAPC   H9X 2519   2.185   2.389   9.265 -0.1907 -0.4904 -1.7217
   19SAPC   H9Y 2520   2.272   2.234   9.276 -2.3455 -0.2642 -0.4340
   19SAPC  C310 2521   2.294   2.316   9.089 -0.3599 -0.3345 -0.0069
   19SAPC  H10X 2522   2.387   2.257   9.082 -0.7221 -1.1221  1.7151
   19SAPC  H10Y 2523   2.318   2.413   9.040  0.5387 -1.6875 -2.3617
   19SAPC  C311 2524   2.174   2.257   9.014  0.2023  0.9054  0.7233
   19SAPC  H11X 2525   2.087   2.326   9.023 -0.4387  0.3346 -0.9272
   19SAPC  H11Y 2526   2.136   2.174   9.077  3.5135 -2.8307 -1.9543
   19SAPC  C312 2527   2.204   2.223   8.870  0.2465  0.1221  0.1999
   19SAPC  H12X 2528   2.116   2.168   8.828  0.1737 -0.7181  1.4208
   19SAPC  H12Y 2529   2.294   2.158   8.873  0.9021  0.9838 -0.4033
   19SAPC  C313 2530   2.273   2.345   8.791  0.5279 -0.2916 -0.0421
   19SAPC  H13X 2531   2.378   2.348   8.826  1.3532 -1.2265 -2.3693
   19SAPC  H13Y 2532   2.233   2.446   8.813 -0.4733 -0.4652 -1.0330
   19SAPC  C314 2533   2.255   2.321   8.645 -0.0800 -0.2906  0.4586
   19SAPC  H14X 2534   2.146   2.319   8.624 -0.3669 -1.9018  1.9815
   19SAPC  H14Y 2535   2.291   2.220   8.615  2.6047  0.6591  0.3663
   19SAPC  C315 2536   2.326   2.424   8.555  0.1362  0.1663  0.0613
   19SAPC  H15X 2537   2.435   2.412   8.538 -0.0582  0.7658 -1.6968
   19SAPC  H15Y 2538   2.307   2.522   8.603  0.3080 -0.0970  0.6651
   19SAPC  C316 2539   2.262   2.440   8.419  0.9324  0.0720  0.3307
   19SAPC  H16X 2540   2.300   2.526   8.360 -1.1305 -0.1558 -1.3848
   19SAPC  H16Y 2541   2.160   2.471   8.449  1.1578  0.6838  0.4688
   19SAPC  C317 2542   2.254   2.301   8.339  0.2904  0.2775  0.0267
   19SAPC  H17X 2543   2.211   2.223   8.405 -0.2790  1.4514  1.0530
   19SAPC  H17Y 2544   2.359   2.268   8.322  1.3167  2.4931  1.7301
   19SAPC  C318 2545   2.176   2.313   8.205 -0.8550 -0.4546  0.1218
   19SAPC  H18X 2546   2.069   2.328   8.231 -0.6516  0.5971  0.3937
   19SAPC  H18Y 2547   2.182   2.213   8.158  0.0065 -0.7788  0.8991
   19SAPC  H18Z 2548   2.206   2.400   8.142 -1.0525 -1.7728 -1.8493
   20SAPC     N 2549   2.537   4.746  11.067  0.9864  0.5006 -1.3475
   20SAPC   C12 2550   2.557   4.895  11.037  0.0377 -0.5376 -0.2962
   20SAPC  H12A 2551   2.663   4.914  11.026  0.2334 -1.7706 -0.6774
   20SAPC  H12B 2552   2.518   4.949  11.122 -1.8240 -0.9745 -0.8553
   20SAPC   C13 2553   2.629   4.704  11.174  0.0009  0.2575  0.3707
   20SAPC  H13A 2554   2.723   4.672  11.133  1.6175  2.3730  2.3379
   20SAPC  H13B 2555   2.646   4.785  11.243  1.1779  0.1494  0.2094
   20SAPC  H13C 2556   2.585   4.628  11.238 -1.2867  0.3170 -0.4353
   20SAPC   C14 2557   2.393   4.713  11.096 -0.1798 -0.1485 -0.0174
   20SAPC  H14A 2558   2.351   4.774  11.174 -0.2708 -1.1565  0.7420
   20SAPC  H14B 2559   2.351   4.742  11.001  0.2481  1.8508  0.3925
   20SAPC  H14C 2560   2.373   4.608  11.112  2.1518 -0.6362 -0.1987
   20SAPC   C15 2561   2.572   4.655  10.955  0.3701  0.2762  0.1573
   20SAPC  H15A 2562   2.678   4.661  10.935  0.6318  0.7497  1.6994
   20SAPC  H15B 2563   2.543   4.554  10.981 -2.3621  0.3890 -2.1535
   20SAPC  H15C 2564   2.514   4.671  10.865 -1.3796 -1.6290  0.8896
   20SAPC   C11 2565   2.501   4.953  10.911 -0.1794  0.2804 -0.3684
   20SAPC  H11A 2566   2.542   4.886  10.833 -0.2343  1.3252 -1.3028
   20SAPC  H11B 2567   2.531   5.059  10.896 -4.5299  1.4551 -1.5792
   20SAPC     P 2568   2.272   5.049  10.989 -0.4980 -0.1566  0.3473
   20SAPC   O13 2569   2.153   4.984  11.029  0.1306 -0.1610  0.4806
   20SAPC   O14 2570   2.356   5.115  11.091  0.4239 -0.3798 -0.2495
   20SAPC   O12 2571   2.360   4.947  10.902 -0.4639  0.7313  0.2676
   20SAPC   O11 2572   2.248   5.155  10.880  0.0628  0.4809  0.2596
   20SAPC    C1 2573   2.180   5.133  10.752  0.3453  0.3697 -0.1366
   20SAPC    HA 2574   2.086   5.079  10.776  0.7973  0.8189  2.9272
   20SAPC    HB 2575   2.143   5.230  10.713 -1.5454 -0.5173 -0.5900
   20SAPC    C2 2576   2.265   5.066  10.644 -0.2239 -0.2935 -0.4643
   20SAPC    HS 2577   2.322   4.983  10.692  2.4791  1.8271  0.1351
   20SAPC   O21 2578   2.357   5.157  10.593 -0.1144 -1.1042  0.3344
   20SAPC   C21 2579   2.456   5.104  10.531  0.0143 -0.7246 -0.4168
   20SAPC   O22 2580   2.492   4.987  10.541 -0.1004  0.0521  0.2541
   20SAPC   C22 2581   2.517   5.215  10.445 -0.6645  0.4156  0.2164
   20SAPC   H2R 2582   2.530   5.308  10.505 -0.7698  0.4274  0.2214
   20SAPC   H2S 2583   2.624   5.194  10.423 -0.7359  0.7623 -0.4893
   20SAPC    C3 2584   2.177   5.011  10.528 -0.2134 -0.5434  0.0471
   20SAPC    HX 2585   2.106   4.937  10.571 -1.6598 -0.4196 -2.0500
   20SAPC    HY 2586   2.249   4.960  10.460 -0.0540  1.3716 -1.2578
   20SAPC   O31 2587   2.092   5.120  10.473 -0.2911  0.6707  0.9174
   20SAPC   C31 2588   1.996   5.075  10.396  0.5952  1.2149 -0.4649
   20SAPC   O32 2589   1.991   4.959  10.358  0.3188  0.0365  0.8081
   20SAPC   C32 2590   1.911   5.194  10.339  0.0163 -0.6571  0.3069
   20SAPC   H2X 2591   1.933   5.285  10.399 -0.4955 -0.2766 -0.0777
   20SAPC   H2Y 2592   1.803   5.169  10.351 -0.7614  2.4747  0.2866
   20SAPC   C23 2593   2.447   5.237  10.312 -0.2662  0.4183  0.0989
   20SAPC   H3R 2594   2.342   5.272  10.321 -0.9447 -1.6574  0.7378
   20SAPC   H3S 2595   2.444   5.142  10.254 -1.1568  1.9845 -2.4732
   20SAPC   C24 2596   2.514   5.344  10.221  0.0609  0.3891 -0.3254
   20SAPC   H4R 2597   2.541   5.425  10.291 -1.3259  0.4277  0.1784
   20SAPC   H4S 2598   2.433   5.386  10.157  1.1572  0.6611 -1.5702
   20SAPC   C25 2599   2.632   5.296  10.152  0.2159 -0.0656  0.1843
   20SAPC   H5R 2600   2.712   5.258  10.217  0.3600 -2.1963 -1.1922
   20SAPC   C26 2601   2.646   5.295  10.017  0.1891  0.3047 -0.5243
   20SAPC   H6R 2602   2.736   5.247   9.976 -0.6494 -0.8481 -1.0657
   20SAPC   C27 2603   2.538   5.338   9.915  0.7328 -0.6607  0.0900
   20SAPC   H7R 2604   2.436   5.305   9.946  0.1092 -0.2537 -1.4826
   20SAPC   H7S 2605   2.569   5.288   9.820  2.1032  1.4854 -0.6259
   20SAPC   C28 2606   2.531   5.485   9.889 -0.2108  0.2535 -0.9681
   20SAPC   H8R 2607   2.537   5.542   9.983  3.3165 -2.2020  0.4083
   20SAPC   C29 2608   2.519   5.539   9.767  0.2021  0.3172 -0.7995
   20SAPC   H9R 2609   2.508   5.647   9.755  2.5345  0.6796  0.0587
   20SAPC  C210 2610   2.508   5.463   9.636 -0.6347 -0.1695  0.4425
   20SAPC  H10R 2611   2.454   5.366   9.641 -0.0593 -0.6403 -1.7321
   20SAPC  H10S 2612   2.608   5.433   9.598 -0.8754 -1.3191  0.6928
   20SAPC  C211 2613   2.441   5.548   9.532 -0.3553  0.2696 -0.1985
   20SAPC  H11R 2614   2.398   5.641   9.573 -0.3976 -0.4819  1.5187
   20SAPC  C212 2615   2.446   5.524   9.398  0.3092 -0.0638 -0.0534
   20SAPC  H12R 2616   2.385   5.587   9.332 -0.7762 -1.3372 -0.2785
   20SAPC  C213 2617   2.509   5.401   9.348  0.0798  1.0567 -0.0875
   20SAPC  H13R 2618   2.460   5.313   9.395  0.0612  1.0444 -0.1306
   20SAPC  H13S 2619   2.614   5.400   9.384  0.3189  0.2348 -0.7909
   20SAPC  C214 2620   2.520   5.396   9.194  0.5687 -0.2412 -0.8942
   20SAPC  H14R 2621   2.455   5.314   9.159 -0.9529 -0.0862  1.4257
   20SAPC  C215 2622   2.606   5.465   9.125  0.1052 -0.8439  0.0563
   20SAPC  H15R 2623   2.600   5.467   9.016  1.8697  0.0251 -0.0411
   20SAPC  C216 2624   2.705   5.568   9.172 -0.4958 -0.2472 -0.3702
   20SAPC  H16R 2625   2.779   5.512   9.234 -1.1566 -0.7403 -0.0201
   20SAPC  H16S 2626   2.659   5.650   9.230 -3.4951 -2.2541  0.2268
   20SAPC  C217 2627   2.785   5.631   9.053  0.1104 -0.3996  0.7195
   20SAPC  H17R 2628   2.851   5.705   9.102 -2.3921  1.4376  1.4416
   20SAPC  H17S 2629   2.712   5.672   8.980  3.1498 -0.3124 -2.4062
   20SAPC  C218 2630   2.874   5.543   8.964 -0.1261 -0.2483  0.6291
   20SAPC  H18R 2631   2.813   5.463   8.916 -2.0638 -0.1451  2.8116
   20SAPC  H18S 2632   2.957   5.490   9.017 -0.2749 -0.9085  0.2129
   20SAPC  C219 2633   2.945   5.619   8.846  0.2780  0.1782  0.7690
   20SAPC  H19R 2634   3.017   5.552   8.793 -0.9521  0.2006 -0.9895
   20SAPC  H19S 2635   2.989   5.718   8.870  0.6724  0.9733 -2.8368
   20SAPC  C220 2636   2.843   5.654   8.736  0.3649  0.1124  0.1047
   20SAPC  H20R 2637   2.902   5.672   8.644  0.8440  0.7367  0.5264
   20SAPC  H20S 2638   2.801   5.751   8.772 -1.2351 -1.1854  1.8223
   20SAPC  H20T 2639   2.762   5.578   8.738 -0.1733  0.6864  0.2096
   20SAPC   C33 2640   1.925   5.206  10.184  0.1675 -0.1955 -0.1486
   20SAPC   H3X 2641   1.852   5.279  10.143  1.1877  0.7043 -0.3902
   20SAPC   H3Y 2642   1.905   5.104  10.145 -0.7889 -1.5263  3.6813
   20SAPC   C34 2643   2.066   5.254  10.147 -0.2420 -0.2479  0.1645
   20SAPC   H4X 2644   2.150   5.181  10.159 -0.1104 -0.7860 -3.4629
   20SAPC   H4Y 2645   2.071   5.338  10.219  0.0253 -2.4785  2.8681
   20SAPC   C35 2646   2.073   5.314  10.006  0.3058  0.4631 -0.1487
   20SAPC   H5X 2647   2.181   5.328   9.985  0.0091 -0.9206 -2.7724
   20SAPC   H5Y 2648   2.023   5.413   9.999 -1.3785 -0.4659 -1.4992
   20SAPC   C36 2649   2.014   5.221   9.895  0.1931  0.3587 -0.1877
   20SAPC   H6X 2650   1.908   5.200   9.918  0.3317 -0.2558 -0.1003
   20SAPC   H6Y 2651   2.079   5.131   9.901  0.5906  0.6052 -0.7199
   20SAPC   C37 2652   2.039   5.287   9.753  0.0860 -0.2809  0.4028
   20SAPC   H7X 2653   2.132   5.346   9.762  0.7610 -1.5752  2.1345
   20SAPC   H7Y 2654   1.951   5.353   9.736 -1.3236 -1.8641  1.3469
   20SAPC   C38 2655   2.050   5.182   9.638 -0.6492 -0.3324  0.5141
   20SAPC   H8X 2656   1.962   5.114   9.628  0.3910 -1.5836 -0.1700
   20SAPC   H8Y 2657   2.132   5.114   9.666 -0.3320 -0.6013 -1.0275
   20SAPC   C39 2658   2.059   5.256   9.511  0.0581  0.1947 -0.1025
   20SAPC   H9X 2659   2.148   5.323   9.516 -0.5432  0.9288  0.9727
   20SAPC   H9Y 2660   1.979   5.330   9.490  0.6104  0.7211 -0.3616
   20SAPC  C310 2661   2.054   5.164   9.382  0.4723  0.2080  0.0717
   20SAPC  H10X 2662   1.951   5.123   9.376  1.2320 -1.3696 -3.0665
   20SAPC  H10Y 2663   2.132   5.089   9.405  1.7630  1.7784  0.9338
   20SAPC  C311 2664   2.089   5.239   9.249  0.7872  0.5302 -0.3420
   20SAPC  H11X 2665   2.191   5.283   9.255  0.2722  1.8833 -1.3156
   20SAPC  H11Y 2666   2.018   5.323   9.233  1.1774  0.3733 -3.1041
   20SAPC  C312 2667   2.083   5.164   9.121 -0.0360 -0.1744 -0.9659
   20SAPC  H12X 2668   1.990   5.108   9.099 -1.1511  1.5438 -0.7757
   20SAPC  H12Y 2669   2.159   5.084   9.132  2.2636  2.1444  1.0122
   20SAPC  C313 2670   2.114   5.243   8.993 -0.0340  0.5364 -0.2271
   20SAPC  H13X 2671   2.215   5.285   9.010  1.2561 -2.0647 -1.2385
   20SAPC  H13Y 2672   2.040   5.324   8.975 -0.5096 -0.4251 -2.9083
   20SAPC  C314 2673   2.116   5.160   8.865 -0.0138  0.7670  0.3329
   20SAPC  H14X 2674   2.028   5.107   8.824  0.2438  0.5646  0.0396
   20SAPC  H14Y 2675   2.207   5.100   8.889 -0.6432  0.1654  1.2653
   20SAPC  C315 2676   2.129   5.248   8.741  0.1294  0.4457  0.0112
   20SAPC  H15X 2677   2.220   5.312   8.737  0.9732 -0.8427 -2.0370
   20SAPC  H15Y 2678   2.042   5.315   8.728 -1.1906 -1.3095 -0.3969
   20SAPC  C316 2679   2.145   5.154   8.619  1.0824 -0.4791  0.1650
   20SAPC  H16X 2680   2.055   5.089   8.614 -0.3056  1.2247  2.0989
   20SAPC  H16Y 2681   2.231   5.086   8.635  0.6630 -1.1047 -0.2090
   20SAPC  C317 2682   2.161   5.241   8.489 -0.1156 -0.3672 -0.0732
   20SAPC  H17X 2683   2.250   5.307   8.487 -0.4052  0.0062 -0.8530
   20SAPC  H17Y 2684   2.077   5.314   8.485 -0.8338 -1.1565  0.4556
   20SAPC  C318 2685   2.164   5.149   8.363  0.2697  0.3337 -0.5605
   20SAPC  H18X 2686   2.226   5.059   8.383 -0.9371  0.1047  2.4009
   20SAPC  H18Y 2687   2.190   5.209   8.273  0.9818  0.7055 -0.1126
   20SAPC  H18Z 2688   2.062   5.109   8.347 -0.0020  0.9053 -0.2820
   21SAPC     N 2689   1.345   3.964  11.049  0.5922 -0.2711 -0.2351
   21SAPC   C12 2690   1.281   4.037  10.934 -0.4568 -0.1360  0.0526
   21SAPC  H12A 2691   1.183   4.071  10.965 -1.6250  2.1228 -5.4969
   21SAPC  H12B 2692   1.260   3.961  10.860  0.3975  0.3175 -0.6623
   21SAPC   C13 2693   1.361   4.066  11.155 -0.7130  0.7299 -0.0136
   21SAPC  H13A 2694   1.360   4.024  11.255 -0.0550 -1.6131 -0.9665
   21SAPC  H13B 2695   1.449   4.123  11.130  0.5766 -0.3531  1.9258
   21SAPC  H13C 2696   1.286   4.144  11.150  0.9665  2.4685  0.9371
   21SAPC   C14 2697   1.260   3.850  11.096 -0.8850  0.2419  0.1720
   21SAPC  H14A 2698   1.294   3.804  11.187  2.1110  1.5122 -0.2482
   21SAPC  H14B 2699   1.159   3.884  11.114 -1.3422 -1.1578  0.2962
   21SAPC  H14C 2700   1.249   3.773  11.021  0.7664  0.7489 -0.6120
   21SAPC   C15 2701   1.477   3.912  11.014 -0.5730  0.5063  0.7335
   21SAPC  H15A 2702   1.460   3.839  10.936  0.0685  0.7063  0.3992
   21SAPC  H15B 2703   1.534   3.992  10.969  1.2541 -1.1302  0.1034
   21SAPC  H15C 2704   1.525   3.861  11.096 -0.9205 -0.3925  0.3764
   21SAPC   C11 2705   1.355   4.162  10.866  0.0438 -0.0833  0.4741
   21SAPC  H11A 2706   1.364   4.239  10.946  2.8412 -1.4808  1.5713
   21SAPC  H11B 2707   1.301   4.216  10.785  0.2026  0.9857  1.0646
   21SAPC     P 2708   1.534   4.095  10.678  0.5003 -0.3066 -0.2319
   21SAPC   O13 2709   1.676   4.074  10.677  0.0533 -0.0229  0.2074
   21SAPC   O14 2710   1.452   3.986  10.621  0.4444 -0.2548 -0.1640
   21SAPC   O12 2711   1.488   4.131  10.825  0.4868  0.3070 -0.4352
   21SAPC   O11 2712   1.497   4.222  10.592  0.0886 -0.1585 -0.2196
   21SAPC    C1 2713   1.515   4.358  10.632  0.0255  0.0581 -0.1055
   21SAPC    HA 2714   1.418   4.411  10.635  0.7143  1.2942  1.7030
   21SAPC    HB 2715   1.551   4.358  10.737  2.9052 -2.3978 -1.0242
   21SAPC    C2 2716   1.623   4.432  10.546  0.1192  0.1901  0.1346
   21SAPC    HS 2717   1.597   4.539  10.556 -1.3532 -0.1582  0.1456
   21SAPC   O21 2718   1.617   4.399  10.412 -0.4830  0.5057 -0.5911
   21SAPC   C21 2719   1.492   4.385  10.350 -0.1328 -0.2313 -0.6568
   21SAPC   O22 2720   1.390   4.437  10.393  0.2401 -0.9165 -0.1168
   21SAPC   C22 2721   1.505   4.309  10.219 -1.0414  0.1254 -0.1860
   21SAPC   H2R 2722   1.413   4.327  10.159 -0.0131  0.1161 -1.8173
   21SAPC   H2S 2723   1.594   4.338  10.159 -1.5497  3.4292  0.5632
   21SAPC    C3 2724   1.768   4.401  10.600 -0.7537  0.0596  0.3702
   21SAPC    HX 2725   1.773   4.290  10.603 -1.8154  0.0388  1.7262
   21SAPC    HY 2726   1.775   4.453  10.698  2.9234  1.0044 -0.2971
   21SAPC   O31 2727   1.873   4.445  10.518 -0.7712  0.0671 -0.0409
   21SAPC   C31 2728   1.878   4.582  10.504 -0.0540 -0.8458  0.0849
   21SAPC   O32 2729   1.796   4.660  10.559  0.0590  0.3012 -0.3797
   21SAPC   C32 2730   2.003   4.614  10.420 -0.2389  0.3470 -0.0186
   21SAPC   H2X 2731   2.090   4.555  10.456 -1.0629 -1.3966 -0.8507
   21SAPC   H2Y 2732   2.038   4.718  10.441 -0.5938  0.4042  0.2927
   21SAPC   C23 2733   1.506   4.155  10.243  0.3562 -0.1571 -0.9348
   21SAPC   H3R 2734   1.411   4.127  10.293  0.5375 -0.1994 -0.6120
   21SAPC   H3S 2735   1.586   4.129  10.316 -0.6300  0.3200  0.3296
   21SAPC   C24 2736   1.533   4.068  10.120  0.6118  0.3676 -0.3298
   21SAPC   H4R 2737   1.558   3.967  10.161 -0.5731  0.4716  0.6892
   21SAPC   H4S 2738   1.619   4.105  10.061 -0.1051  0.7382 -1.1519
   21SAPC   C25 2739   1.423   4.057  10.022  0.1082 -0.1615  0.6616
   21SAPC   H5R 2740   1.317   4.057  10.051 -0.0470 -0.4386  0.0998
   21SAPC   C26 2741   1.440   4.052   9.892  0.0018 -0.0807  0.1292
   21SAPC   H6R 2742   1.353   4.046   9.825 -0.1404 -0.7681  0.3777
   21SAPC   C27 2743   1.575   4.048   9.808 -0.2375  0.0466  0.1434
   21SAPC   H7R 2744   1.662   4.060   9.876 -0.8419  1.2859  0.7109
   21SAPC   H7S 2745   1.567   4.128   9.731  0.1416  1.9648  2.0500
   21SAPC   C28 2746   1.579   3.911   9.750  0.3127 -0.1339 -0.2381
   21SAPC   H8R 2747   1.636   3.838   9.808  1.1587  0.9773  0.3351
   21SAPC   C29 2748   1.552   3.876   9.622  0.3119  0.7776  0.0501
   21SAPC   H9R 2749   1.561   3.773   9.584 -1.6320  0.4910  0.3001
   21SAPC  C210 2750   1.502   3.969   9.515 -0.1657 -0.7666  0.2504
   21SAPC  H10R 2751   1.582   3.975   9.439 -1.0749 -1.3889 -0.7778
   21SAPC  H10S 2752   1.480   4.070   9.554  0.3930 -1.5198  2.5919
   21SAPC  C211 2753   1.379   3.919   9.437  0.1695 -0.3569 -0.2037
   21SAPC  H11R 2754   1.323   3.846   9.497  0.8983  1.4877  2.8398
   21SAPC  C212 2755   1.342   3.954   9.315 -0.0872  0.3875  0.3014
   21SAPC  H12R 2756   1.253   3.909   9.270  0.1075  0.4079 -0.1030
   21SAPC  C213 2757   1.421   4.057   9.226  0.6204  0.5838  0.2169
   21SAPC  H13R 2758   1.457   4.146   9.283 -0.4671  0.2482  1.4561
   21SAPC  H13S 2759   1.348   4.102   9.155  1.0108 -2.4815 -2.2257
   21SAPC  C214 2760   1.531   3.991   9.151 -0.4166  0.2796 -0.4690
   21SAPC  H14R 2761   1.617   3.953   9.208 -0.8705  0.4429  0.3325
   21SAPC  C215 2762   1.549   3.972   9.016  0.1880 -0.6400  0.8266
   21SAPC  H15R 2763   1.639   3.918   8.984 -0.3164 -2.2615  2.0461
   21SAPC  C216 2764   1.444   4.012   8.909 -0.2291  0.2486 -0.1533
   21SAPC  H16R 2765   1.482   4.017   8.805  1.7237  0.9351  0.5742
   21SAPC  H16S 2766   1.406   4.112   8.940  0.4501  0.5459 -0.2633
   21SAPC  C217 2767   1.320   3.922   8.919  0.3304 -0.3874 -0.3961
   21SAPC  H17R 2768   1.284   3.925   9.024 -0.1878  2.5100 -0.6313
   21SAPC  H17S 2769   1.345   3.818   8.887 -1.2776 -0.3509 -1.8302
   21SAPC  C218 2770   1.207   3.966   8.835 -0.1313 -0.2266 -0.6312
   21SAPC  H18R 2771   1.241   3.964   8.729 -0.9561  1.8480 -0.9534
   21SAPC  H18S 2772   1.181   4.071   8.860 -0.8209 -0.2906 -1.0729
   21SAPC  C219 2773   1.078   3.882   8.846  0.3445 -0.1503 -0.1538
   21SAPC  H19R 2774   0.992   3.934   8.800 -0.5568 -2.4073 -1.0992
   21SAPC  H19S 2775   1.067   3.866   8.956  0.6808 -0.4951 -0.1655
   21SAPC  C220 2776   1.095   3.746   8.781 -0.3140  0.8979  0.3876
   21SAPC  H20R 2777   0.997   3.695   8.784  0.1883 -0.5777 -4.3235
   21SAPC  H20S 2778   1.165   3.679   8.836 -1.7558 -0.3415  0.7239
   21SAPC  H20T 2779   1.117   3.745   8.672 -2.1413 -1.4180  0.0198
   21SAPC   C33 2780   1.977   4.596  10.271  0.9891  0.3671  0.1621
   21SAPC   H3X 2781   1.899   4.667  10.237 -0.4722 -0.7191  1.2153
   21SAPC   H3Y 2782   1.936   4.493  10.261  0.4539  0.5402  0.5458
   21SAPC   C34 2783   2.108   4.623  10.197 -0.3509 -0.2638  0.6760
   21SAPC   H4X 2784   2.166   4.708  10.238  1.0790 -1.3371  0.8946
   21SAPC   H4Y 2785   2.085   4.638  10.090 -1.8468  0.1975  1.0443
   21SAPC   C35 2786   2.201   4.504  10.198  0.1766  0.8563 -0.2227
   21SAPC   H5X 2787   2.153   4.415  10.151  1.2006 -0.5023  1.2324
   21SAPC   H5Y 2788   2.237   4.462  10.294 -0.4367  0.5482 -0.1298
   21SAPC   C36 2789   2.334   4.531  10.126 -0.4214 -0.2739  0.6663
   21SAPC   H6X 2790   2.424   4.521  10.190  2.0355  1.3814 -2.4299
   21SAPC   H6Y 2791   2.341   4.637  10.094 -0.2415 -0.5843 -0.3492
   21SAPC   C37 2792   2.349   4.434  10.001 -0.3803  0.2091  0.5660
   21SAPC   H7X 2793   2.311   4.331  10.016  0.7462 -0.3513 -0.2525
   21SAPC   H7Y 2794   2.459   4.422   9.984 -0.3292  0.2873  0.8385
   21SAPC   C38 2795   2.296   4.497   9.878  1.0561  0.2892 -0.0956
   21SAPC   H8X 2796   2.336   4.599   9.862 -0.4364  0.5777 -2.1748
   21SAPC   H8Y 2797   2.186   4.514   9.874  0.6395 -1.6157  2.1295
   21SAPC   C39 2798   2.315   4.420   9.743 -0.7818  0.0645  0.1197
   21SAPC   H9X 2799   2.243   4.336   9.741  0.3923 -0.9472 -0.2137
   21SAPC   H9Y 2800   2.418   4.379   9.746 -1.1681 -0.8993  0.4463
   21SAPC  C310 2801   2.299   4.507   9.621  0.3928 -0.6630  0.3278
   21SAPC  H10X 2802   2.384   4.579   9.618  0.4056 -0.6506  0.9156
   21SAPC  H10Y 2803   2.202   4.561   9.618  0.8147  0.1118  0.4751
   21SAPC  C311 2804   2.302   4.417   9.493 -0.0557  0.2100 -0.8128
   21SAPC  H11X 2805   2.210   4.355   9.489  1.0659 -1.7147  1.9755
   21SAPC  H11Y 2806   2.379   4.338   9.507  0.6048  0.7773 -1.1892
   21SAPC  C312 2807   2.330   4.494   9.359  0.0691  0.5764 -0.5047
   21SAPC  H12X 2808   2.427   4.550   9.364  0.5837 -0.4663  1.9529
   21SAPC  H12Y 2809   2.240   4.559   9.358 -0.3883 -0.0747 -1.7011
   21SAPC  C313 2810   2.337   4.402   9.236  0.6312 -1.5614 -0.1511
   21SAPC  H13X 2811   2.258   4.325   9.237  0.2881 -1.2108  2.6269
   21SAPC  H13Y 2812   2.435   4.351   9.224  1.2548 -0.4261 -0.0155
   21SAPC  C314 2813   2.311   4.468   9.096 -0.3695 -0.1918  0.3002
   21SAPC  H14X 2814   2.245   4.556   9.107 -0.4052 -0.0609 -0.8379
   21SAPC  H14Y 2815   2.262   4.385   9.040  0.2060 -0.4586  0.1766
   21SAPC  C315 2816   2.433   4.523   9.025  0.5186  0.2831 -0.1215
   21SAPC  H15X 2817   2.525   4.480   9.071 -0.1948 -0.2057  0.8463
   21SAPC  H15Y 2818   2.426   4.632   9.047 -4.0358 -0.2016  1.1509
   21SAPC  C316 2819   2.456   4.488   8.878  0.9438  0.2687  0.4436
   21SAPC  H16X 2820   2.525   4.402   8.871 -4.0424 -4.1206  1.4396
   21SAPC  H16Y 2821   2.511   4.571   8.830 -0.9240  0.6460 -1.1557
   21SAPC  C317 2822   2.328   4.466   8.801  0.1341  0.6703 -0.3757
   21SAPC  H17X 2823   2.243   4.524   8.843 -0.6501 -1.1671  0.6469
   21SAPC  H17Y 2824   2.301   4.360   8.819  1.2299  0.3319 -0.7137
   21SAPC  C318 2825   2.345   4.491   8.654  0.2007 -0.2009  0.7008
   21SAPC  H18X 2826   2.244   4.499   8.608 -0.3079 -0.8389  1.6990
   21SAPC  H18Y 2827   2.398   4.412   8.597  2.1707  2.6680 -1.6032
   21SAPC  H18Z 2828   2.397   4.587   8.631 -0.8228  0.4228  0.9212
   22SAPC     N 2829   2.243   3.113  10.796 -0.6305  0.2326  0.2268
   22SAPC   C12 2830   2.100   3.104  10.840  0.1854  0.4245  1.0118
   22SAPC  H12A 2831   2.075   3.202  10.879 -0.7592  0.9668 -0.8921
   22SAPC  H12B 2832   2.106   3.030  10.918  1.5601  0.5658  1.0688
   22SAPC   C13 2833   2.304   2.981  10.767 -0.2260  0.5970  0.4463
   22SAPC  H13A 2834   2.250   2.934  10.687  0.3444  2.4214 -1.0342
   22SAPC  H13B 2835   2.403   2.989  10.724 -0.1514  0.4888  0.5942
   22SAPC  H13C 2836   2.296   2.913  10.851 -1.1521  1.2219  0.8688
   22SAPC   C14 2837   2.258   3.201  10.679 -0.3659 -0.0410  0.1097
   22SAPC  H14A 2838   2.358   3.202  10.639  0.3810 -4.0582  1.6453
   22SAPC  H14B 2839   2.198   3.157  10.600  1.0542 -0.2477 -0.8604
   22SAPC  H14C 2840   2.223   3.302  10.699  0.4155  0.3919 -0.6563
   22SAPC   C15 2841   2.324   3.180  10.903  0.4458  0.6176 -0.0640
   22SAPC  H15A 2842   2.285   3.278  10.924 -0.7468 -0.0664  1.0312
   22SAPC  H15B 2843   2.334   3.109  10.984 -0.3078 -0.1787 -0.6570
   22SAPC  H15C 2844   2.426   3.196  10.873  0.5959  2.1234  1.2072
   22SAPC   C11 2845   1.988   3.064  10.745  0.6406  0.7595 -0.1124
   22SAPC  H11A 2846   1.993   3.137  10.661 -3.1801 -0.5761 -1.5952
   22SAPC  H11B 2847   1.887   3.093  10.780  0.5686  2.2079 -1.4494
   22SAPC     P 2848   1.910   2.808  10.745  0.3203  0.0859 -0.0757
   22SAPC   O13 2849   1.975   2.753  10.869  0.2122 -0.3824  0.6897
   22SAPC   O14 2850   1.773   2.866  10.761 -0.0289 -0.2549 -0.2721
   22SAPC   O12 2851   2.004   2.923  10.694 -0.4170 -0.2737 -0.0128
   22SAPC   O11 2852   1.904   2.700  10.631  0.3461 -0.0565  0.5727
   22SAPC    C1 2853   1.963   2.714  10.499 -0.0640  0.3537  0.2196
   22SAPC    HA 2854   2.063   2.762  10.497  0.1685 -0.1544 -0.5601
   22SAPC    HB 2855   1.965   2.619  10.442 -2.7086  0.6545 -0.4472
   22SAPC    C2 2856   1.864   2.803  10.408 -0.7130 -0.8087 -0.2204
   22SAPC    HS 2857   1.865   2.902  10.459 -1.5723 -1.3016  0.7759
   22SAPC   O21 2858   1.736   2.735  10.417  0.0678  0.3163 -0.6814
   22SAPC   C21 2859   1.630   2.821  10.424  0.1509 -0.2139 -0.9049
   22SAPC   O22 2860   1.630   2.939  10.392 -0.2730  0.0124  0.7021
   22SAPC   C22 2861   1.509   2.734  10.454  0.3371 -0.2609  0.2126
   22SAPC   H2R 2862   1.548   2.663  10.530  2.4071 -0.4698 -1.0182
   22SAPC   H2S 2863   1.433   2.794  10.509  0.8730  0.1247  0.5427
   22SAPC    C3 2864   1.908   2.816  10.264  0.2284 -0.2487 -0.4644
   22SAPC    HX 2865   2.019   2.822  10.267  0.2757 -1.1526 -0.1996
   22SAPC    HY 2866   1.844   2.896  10.221 -1.0176 -1.3230 -0.6368
   22SAPC   O31 2867   1.880   2.687  10.197 -0.0970 -0.4403  0.3512
   22SAPC   C31 2868   1.795   2.694  10.095  0.2249 -0.3384 -0.8077
   22SAPC   O32 2869   1.723   2.791  10.063 -0.3289  0.1124 -0.2590
   22SAPC   C32 2870   1.802   2.562  10.030  0.0651 -0.1580 -0.8856
   22SAPC   H2X 2871   1.714   2.502  10.059 -0.5309  0.6046 -1.0827
   22SAPC   H2Y 2872   1.894   2.508  10.061 -0.7178 -0.4374  1.0181
   22SAPC   C23 2873   1.438   2.664  10.340  0.0701  0.4357  0.0502
   22SAPC   H3R 2874   1.361   2.594  10.379 -1.4247  0.5118 -2.6500
   22SAPC   H3S 2875   1.505   2.606  10.274  2.1999  1.6067  1.1477
   22SAPC   C24 2876   1.352   2.761  10.253 -0.0905  0.3529 -0.1063
   22SAPC   H4R 2877   1.398   2.862  10.254 -0.7467  0.6759 -1.2339
   22SAPC   H4S 2878   1.253   2.779  10.299  0.7004  3.6605  0.4343
   22SAPC   C25 2879   1.335   2.703  10.109  0.1587 -0.4029 -0.3622
   22SAPC   H5R 2880   1.429   2.701  10.052  2.4481 -0.5517  3.2562
   22SAPC   C26 2881   1.216   2.665  10.053 -0.0835  0.0837 -0.7619
   22SAPC   H6R 2882   1.216   2.631   9.949 -0.8222 -2.3543  0.0060
   22SAPC   C27 2883   1.078   2.666  10.111  0.5570  0.4114 -0.7163
   22SAPC   H7R 2884   1.010   2.729  10.050 -1.2976  0.1019  0.9443
   22SAPC   H7S 2885   1.076   2.703  10.216  1.9468 -0.7172 -0.2778
   22SAPC   C28 2886   1.023   2.528  10.107 -0.1114  0.0820  0.2612
   22SAPC   H8R 2887   1.083   2.448  10.155  0.5873 -1.3132 -2.8126
   22SAPC   C29 2888   0.906   2.494  10.050 -0.1475 -0.2209  0.7102
   22SAPC   H9R 2889   0.879   2.388  10.051 -0.4127 -0.1681 -0.5931
   22SAPC  C210 2890   0.801   2.585   9.992  0.1002  0.3962 -0.0372
   22SAPC  H10R 2891   0.823   2.694   9.989 -0.2890  0.4276 -2.5095
   22SAPC  H10S 2892   0.713   2.581  10.060  0.4152 -2.7793  0.2803
   22SAPC  C211 2893   0.765   2.527   9.855  0.3806 -0.7439  0.6964
   22SAPC  H11R 2894   0.711   2.432   9.857 -0.0007 -0.5374  0.0532
   22SAPC  C212 2895   0.807   2.574   9.733 -0.3347  0.0453 -0.1087
   22SAPC  H12R 2896   0.757   2.530   9.645 -1.7566 -0.8002  1.0954
   22SAPC  C213 2897   0.914   2.681   9.729  0.2927 -0.1411  0.3360
   22SAPC  H13R 2898   0.953   2.699   9.831  0.6218  0.7863  0.0574
   22SAPC  H13S 2899   0.859   2.776   9.708  3.2866  1.4756 -0.4934
   22SAPC  C214 2900   1.011   2.670   9.616 -0.5116  0.1705  0.1622
   22SAPC  H14R 2901   0.978   2.599   9.539  0.7422 -0.7069  0.4234
   22SAPC  C215 2902   1.136   2.733   9.615 -0.2723 -0.0502 -0.2403
   22SAPC  H15R 2903   1.201   2.717   9.527  0.7005  3.4588 -0.2204
   22SAPC  C216 2904   1.190   2.828   9.719 -0.0218 -0.6061  0.4929
   22SAPC  H16R 2905   1.247   2.767   9.793  0.7361 -0.6583 -0.1280
   22SAPC  H16S 2906   1.100   2.878   9.760  0.2345  1.7395 -1.7141
   22SAPC  C217 2907   1.281   2.928   9.643  0.2700  0.0878 -0.5532
   22SAPC  H17R 2908   1.233   2.943   9.543  1.5094 -1.0554 -1.3344
   22SAPC  H17S 2909   1.379   2.877   9.634 -0.3239 -1.1858 -0.0613
   22SAPC  C218 2910   1.290   3.065   9.704  0.5889 -0.2873  0.2729
   22SAPC  H18R 2911   1.190   3.102   9.736 -0.0043 -1.4594 -0.2141
   22SAPC  H18S 2912   1.337   3.132   9.629  0.3028 -0.8014 -0.3763
   22SAPC  C219 2913   1.366   3.060   9.840  0.2028  0.0107  0.1680
   22SAPC  H19R 2914   1.475   3.048   9.819  0.4642  0.8189  1.0164
   22SAPC  H19S 2915   1.328   2.971   9.893 -2.9479  2.1079  1.5514
   22SAPC  C220 2916   1.342   3.187   9.916  0.0610  0.0093  0.1102
   22SAPC  H20R 2917   1.361   3.280   9.859  1.3742  0.0495  0.5856
   22SAPC  H20S 2918   1.400   3.189  10.010  2.1328 -0.4065 -1.1175
   22SAPC  H20T 2919   1.237   3.194   9.949 -0.4836 -0.0327 -1.5392
   22SAPC   C33 2920   1.789   2.581   9.879  0.2750 -0.4057  0.0793
   22SAPC   H3X 2921   1.695   2.637   9.858 -0.2766 -1.2035  0.3967
   22SAPC   H3Y 2922   1.778   2.478   9.840 -0.5650  0.6252 -2.5243
   22SAPC   C34 2923   1.907   2.651   9.807 -0.2938  0.2822 -0.5650
   22SAPC   H4X 2924   1.998   2.623   9.865 -1.9805 -0.7468  1.6584
   22SAPC   H4Y 2925   1.895   2.759   9.830 -1.1195 -0.3581  2.1426
   22SAPC   C35 2926   1.928   2.628   9.657 -0.0779  0.3620  0.2048
   22SAPC   H5X 2927   1.955   2.523   9.632 -0.5886  0.1003  0.7221
   22SAPC   H5Y 2928   2.019   2.679   9.620 -1.4961  0.9911 -2.5176
   22SAPC   C36 2929   1.816   2.679   9.563  0.0707  0.1270 -1.6218
   22SAPC   H6X 2930   1.806   2.789   9.572  0.2297  0.0026  0.2535
   22SAPC   H6Y 2931   1.717   2.632   9.582  0.6921 -0.9703 -1.0439
   22SAPC   C37 2932   1.840   2.646   9.412  0.4379 -0.1928 -0.0278
   22SAPC   H7X 2933   1.740   2.660   9.367 -1.0185 -0.2648  3.0428
   22SAPC   H7Y 2934   1.856   2.536   9.405  1.6460 -0.0136 -0.1464
   22SAPC   C38 2935   1.956   2.712   9.345 -0.0633  0.0690  0.8301
   22SAPC   H8X 2936   2.049   2.707   9.405 -0.9451 -2.8723  2.0522
   22SAPC   H8Y 2937   1.937   2.821   9.337  1.9912  0.2994 -1.4289
   22SAPC   C39 2938   1.968   2.652   9.204 -0.1357 -0.3514 -0.3998
   22SAPC   H9X 2939   1.868   2.679   9.163 -0.6037  0.8851  1.4548
   22SAPC   H9Y 2940   1.995   2.545   9.217  0.8328 -0.0800 -0.1549
   22SAPC  C310 2941   2.070   2.720   9.114  0.7642 -0.3061  0.2834
   22SAPC  H10X 2942   2.174   2.702   9.149  0.1880 -0.8261  1.8065
   22SAPC  H10Y 2943   2.046   2.828   9.118  0.2645 -0.3583 -1.2858
   22SAPC  C311 2944   2.050   2.680   8.968 -0.7381 -0.4739 -0.2004
   22SAPC  H11X 2945   1.945   2.676   8.931  0.1788 -1.9426 -2.7586
   22SAPC  H11Y 2946   2.078   2.574   8.957  1.2880  0.2347 -2.2241
   22SAPC  C312 2947   2.138   2.763   8.867  0.1674  0.1912 -0.2598
   22SAPC  H12X 2948   2.246   2.751   8.894 -0.4515 -4.1380  0.7266
   22SAPC  H12Y 2949   2.113   2.871   8.873 -0.1031  0.1739 -0.9547
   22SAPC  C313 2950   2.117   2.735   8.719 -0.2874  0.0244 -0.8179
   22SAPC  H13X 2951   2.117   2.625   8.700  2.7191 -0.7333  2.9447
   22SAPC  H13Y 2952   2.204   2.778   8.665 -0.4292  0.3989 -0.7437
   22SAPC  C314 2953   1.989   2.798   8.654  0.3707 -0.1461  0.5643
   22SAPC  H14X 2954   1.989   2.904   8.685 -0.4331 -0.7013  2.6034
   22SAPC  H14Y 2955   1.904   2.744   8.703  0.7966 -1.2987  0.0498
   22SAPC  C315 2956   1.981   2.791   8.500  0.6798  0.2944  0.5379
   22SAPC  H15X 2957   1.882   2.810   8.453  1.6243  1.2173 -1.1211
   22SAPC  H15Y 2958   2.003   2.687   8.468 -0.2649 -0.5170  2.4240
   22SAPC  C316 2959   2.087   2.866   8.422 -0.9983 -0.0345  0.3459
   22SAPC  H16X 2960   2.193   2.850   8.451 -0.8614  0.8092  0.3383
   22SAPC  H16Y 2961   2.064   2.974   8.435  0.0626  0.2516 -0.0877
   22SAPC  C317 2962   2.097   2.836   8.268 -0.0469 -0.6332 -0.1700
   22SAPC  H17X 2963   2.002   2.867   8.219 -1.2018 -1.7772  1.3107
   22SAPC  H17Y 2964   2.101   2.726   8.253 -2.4833 -0.6829 -0.6469
   22SAPC  C318 2965   2.213   2.905   8.189  0.4610 -0.4631 -0.1096
   22SAPC  H18X 2966   2.231   2.893   8.080 -1.7991  0.2911 -0.6033
   22SAPC  H18Y 2967   2.307   2.876   8.239  0.4389  0.2569  0.3526
   22SAPC  H18Z 2968   2.204   3.015   8.203  2.1735 -0.1896 -1.1111
   23SAPC     N 2969   2.976   4.061  10.969  0.1530  0.0351 -0.2692
   23SAPC   C12 2970   2.888   3.986  10.879 -0.1807 -0.0314 -0.3715
   23SAPC  H12A 2971   2.867   3.888  10.920  0.7144  0.2998  0.9346
   23SAPC  H12B 2972   2.947   3.955  10.794 -0.7191  1.7333 -1.3930
   23SAPC   C13 2973   3.077   3.960  11.028  0.0978  0.2208 -0.4582
   23SAPC  H13A 2974   3.125   3.901  10.951 -3.0692 -0.2120 -2.2028
   23SAPC  H13B 2975   3.147   4.016  11.088 -3.9951  1.1161  3.7591
   23SAPC  H13C 2976   3.026   3.900  11.102  1.8112  1.0897  1.4660
   23SAPC   C14 2977   3.051   4.181  10.910  0.2985 -0.6610  0.4760
   23SAPC  H14A 2978   2.983   4.256  10.873  0.8875 -0.5050 -0.3031
   23SAPC  H14B 2979   3.096   4.240  10.988 -1.2964  1.6100 -0.2628
   23SAPC  H14C 2980   3.114   4.153  10.826 -0.1238  2.0540 -0.8140
   23SAPC   C15 2981   2.896   4.118  11.083 -0.1770  0.2206 -0.3051
   23SAPC  H15A 2982   2.836   4.041  11.130  1.1349  0.6361  2.1488
   23SAPC  H15B 2983   2.958   4.172  11.153 -0.3073  2.2912 -1.7479
   23SAPC  H15C 2984   2.829   4.189  11.039  0.5361 -0.0642 -1.8692
   23SAPC   C11 2985   2.758   4.058  10.841 -0.1955 -0.6537  0.3182
   23SAPC  H11A 2986   2.685   4.074  10.924 -2.1324  1.5894 -1.7612
   23SAPC  H11B 2987   2.694   3.987  10.785  1.4693 -1.8391 -0.1008
   23SAPC     P 2988   2.801   4.181  10.613  0.6511  0.0356  0.0338
   23SAPC   O13 2989   2.682   4.118  10.554  0.2144 -0.1816 -0.2451
   23SAPC   O14 2990   2.853   4.308  10.561  0.0238 -0.4136  0.2406
   23SAPC   O12 2991   2.781   4.183  10.769  0.4465 -0.3316  0.4954
   23SAPC   O11 2992   2.924   4.086  10.595 -0.2882  0.4979  0.4235
   23SAPC    C1 2993   3.057   4.127  10.570  0.2378  0.1438 -0.7124
   23SAPC    HA 2994   3.074   4.235  10.589 -2.5059  0.9211 -2.3131
   23SAPC    HB 2995   3.117   4.072  10.645 -2.1006 -1.5600 -0.0352
   23SAPC    C2 2996   3.098   4.094  10.427 -0.0403  0.3689  0.2329
   23SAPC    HS 2997   3.029   4.143  10.354  1.0106  0.7415 -0.5130
   23SAPC   O21 2998   3.080   3.954  10.402 -0.0803  0.0205 -0.7663
   23SAPC   C21 2999   3.055   3.920  10.268  0.1699  0.8103  0.4944
   23SAPC   O22 3000   3.047   3.998  10.175  0.0445 -0.0769 -0.7143
   23SAPC   C22 3001   3.051   3.764  10.249 -0.2781  0.2872  0.0702
   23SAPC   H2R 3002   3.151   3.715  10.251  0.1239  1.1002 -0.0023
   23SAPC   H2S 3003   3.007   3.731  10.346  0.5862 -0.7505  0.1184
   23SAPC    C3 3004   3.246   4.138  10.395 -0.2319  0.4855 -0.0756
   23SAPC    HX 3005   3.311   4.070  10.455 -0.7815 -1.7565 -1.9356
   23SAPC    HY 3006   3.259   4.245  10.419  0.1610  0.6490 -0.9987
   23SAPC   O31 3007   3.285   4.109  10.259 -0.6971  0.0896  0.8378
   23SAPC   C31 3008   3.268   4.184  10.159 -0.4510  1.0603  0.3300
   23SAPC   O32 3009   3.208   4.293  10.168  0.9659  0.4299  0.5598
   23SAPC   C32 3010   3.339   4.136  10.029  0.6755 -0.5009 -0.1492
   23SAPC   H2X 3011   3.387   4.038  10.050  1.4332 -0.1755 -0.3169
   23SAPC   H2Y 3012   3.423   4.210  10.027  1.4047 -1.3398 -0.7566
   23SAPC   C23 3013   2.958   3.726  10.132  0.9528  0.4137  0.3359
   23SAPC   H3R 3014   3.005   3.757  10.036  3.1356  0.6258  1.4599
   23SAPC   H3S 3015   2.859   3.773  10.151  0.3671 -1.4446  2.0235
   23SAPC   C24 3016   2.941   3.568  10.146  0.6218 -0.3868 -0.4433
   23SAPC   H4R 3017   2.843   3.529  10.110 -0.6880 -0.1195  2.6963
   23SAPC   H4S 3018   2.944   3.541  10.254  0.2606 -2.0475 -0.8373
   23SAPC   C25 3019   3.059   3.505  10.075  0.6024  0.4923  0.5862
   23SAPC   H5R 3020   3.142   3.471  10.139 -0.0493 -1.1628  0.5703
   23SAPC   C26 3021   3.074   3.503   9.941 -0.4079 -0.6141  0.0041
   23SAPC   H6R 3022   3.165   3.461   9.897  0.3131  1.3074 -0.3779
   23SAPC   C27 3023   2.981   3.571   9.840  0.2976  0.5074 -0.8201
   23SAPC   H7R 3024   2.896   3.630   9.879 -2.4233 -1.2307 -3.8688
   23SAPC   H7S 3025   2.933   3.495   9.774 -0.9819  0.7582 -0.1890
   23SAPC   C28 3026   3.052   3.674   9.766 -0.5575 -0.6488 -0.7606
   23SAPC   H8R 3027   3.114   3.742   9.827 -1.2130  0.0390 -0.8511
   23SAPC   C29 3028   3.066   3.689   9.633 -0.5287  0.3666  0.3766
   23SAPC   H9R 3029   3.129   3.772   9.597  2.1881 -1.3919  0.9723
   23SAPC  C210 3030   3.000   3.600   9.541 -0.9484 -0.4113 -0.0599
   23SAPC  H10R 3031   2.961   3.663   9.459  0.1688 -0.9646 -1.0167
   23SAPC  H10S 3032   2.901   3.561   9.574 -1.2958 -0.3190 -0.9815
   23SAPC  C211 3033   3.091   3.496   9.484 -0.4550 -0.6763 -0.1959
   23SAPC  H11R 3034   3.112   3.409   9.549  1.7279 -0.9963 -1.2756
   23SAPC  C212 3035   3.142   3.504   9.360  0.2525  0.4420  0.9106
   23SAPC  H12R 3036   3.221   3.437   9.323  0.2568  0.8683  0.1360
   23SAPC  C213 3037   3.114   3.609   9.257  0.3297 -0.0460  0.0771
   23SAPC  H13R 3038   3.145   3.704   9.305  3.1982  0.5852 -2.8839
   23SAPC  H13S 3039   3.006   3.628   9.240 -0.3070 -3.0532  0.4438
   23SAPC  C214 3040   3.194   3.607   9.129  0.0679 -1.1108  0.2271
   23SAPC  H14R 3041   3.284   3.545   9.135  0.1277 -0.9613  0.8924
   23SAPC  C215 3042   3.160   3.659   9.015  0.1944  0.3586 -0.1153
   23SAPC  H15R 3043   3.222   3.623   8.931 -1.8815 -0.1587 -1.4442
   23SAPC  C216 3044   3.039   3.738   8.984  0.0758  0.3483  0.6069
   23SAPC  H16R 3045   3.060   3.845   8.966  0.0868  0.4266  1.0838
   23SAPC  H16S 3046   2.964   3.728   9.065  0.3843 -0.2533  0.8262
   23SAPC  C217 3047   2.967   3.700   8.854 -0.7720  0.2435  0.2487
   23SAPC  H17R 3048   2.863   3.727   8.882 -1.9859 -3.1034 -0.7937
   23SAPC  H17S 3049   2.966   3.589   8.849 -1.2178  0.2554  0.0797
   23SAPC  C218 3050   3.020   3.772   8.732 -0.1458 -0.6912 -0.2345
   23SAPC  H18R 3051   3.001   3.881   8.733 -1.6077 -0.9331  1.8729
   23SAPC  H18S 3052   2.955   3.731   8.652  0.3900  1.7854 -1.9963
   23SAPC  C219 3053   3.159   3.752   8.698 -0.4566 -0.0905  0.6076
   23SAPC  H19R 3054   3.232   3.780   8.776 -1.0091 -1.5520  1.6593
   23SAPC  H19S 3055   3.189   3.811   8.609 -0.3428 -0.1374  0.6156
   23SAPC  C220 3056   3.184   3.613   8.660  0.2022  0.5408  0.4842
   23SAPC  H20R 3057   3.151   3.535   8.733 -0.8289  0.3360 -0.1820
   23SAPC  H20S 3058   3.293   3.598   8.645 -0.0548  0.4416 -1.3844
   23SAPC  H20T 3059   3.140   3.584   8.562  0.0832  2.8152 -0.1598
   23SAPC   C33 3060   3.241   4.145   9.908  0.2457  0.1779 -0.0048
   23SAPC   H3X 3061   3.200   4.248   9.900 -3.2459 -1.1607 -0.5658
   23SAPC   H3Y 3062   3.157   4.073   9.921 -0.3434  0.8525 -0.0666
   23SAPC   C34 3063   3.317   4.128   9.781  0.1616  0.1740 -0.5515
   23SAPC   H4X 3064   3.367   4.032   9.805 -0.6627  0.0955  0.9262
   23SAPC   H4Y 3065   3.388   4.213   9.774 -1.8545  1.7965 -2.0886
   23SAPC   C35 3066   3.229   4.113   9.656  0.8479 -0.1020  0.2414
   23SAPC   H5X 3067   3.171   4.205   9.639  0.3161 -0.0126  2.3592
   23SAPC   H5Y 3068   3.160   4.031   9.688 -1.2383  1.3717 -0.4054
   23SAPC   C36 3069   3.325   4.063   9.543  0.0745 -0.0055 -0.2287
   23SAPC   H6X 3070   3.383   3.973   9.573 -0.1817  1.0778  3.8229
   23SAPC   H6Y 3071   3.401   4.143   9.525  0.9600 -0.7160  0.2832
   23SAPC   C37 3072   3.250   4.036   9.403 -0.1271 -0.2601 -0.1721
   23SAPC   H7X 3073   3.181   4.123   9.392  1.7120  1.3563  0.7855
   23SAPC   H7Y 3074   3.191   3.942   9.408  1.0040 -1.0095 -0.8682
   23SAPC   C38 3075   3.351   4.015   9.291  0.1481  0.1293  0.0522
   23SAPC   H8X 3076   3.420   3.939   9.332  2.5136  2.1731 -0.0075
   23SAPC   H8Y 3077   3.396   4.116   9.282 -0.6611  0.5956  1.2049
   23SAPC   C39 3078   3.293   3.965   9.156 -0.0897 -0.8534  0.0675
   23SAPC   H9X 3079   3.191   4.002   9.134 -0.1480 -2.3593 -2.3920
   23SAPC   H9Y 3080   3.281   3.854   9.164  1.1411 -1.1073 -1.3213
   23SAPC  C310 3081   3.381   3.982   9.036 -0.3569  0.3052  0.1069
   23SAPC  H10X 3082   3.343   3.927   8.947  1.4002  1.3938 -1.3485
   23SAPC  H10Y 3083   3.473   3.928   9.068 -1.5213 -2.6201 -1.3470
   23SAPC  C311 3084   3.427   4.126   8.992 -0.4607 -0.1680 -0.4814
   23SAPC  H11X 3085   3.485   4.123   8.898 -0.3847  2.4592 -0.5304
   23SAPC  H11Y 3086   3.496   4.166   9.069  1.0177 -0.1793 -1.7923
   23SAPC  C312 3087   3.311   4.219   8.970 -0.0884 -0.1804 -0.0607
   23SAPC  H12X 3088   3.346   4.321   8.944  0.0940 -0.0759  0.6014
   23SAPC  H12Y 3089   3.261   4.231   9.068  0.1645 -0.4294  0.0985
   23SAPC  C313 3090   3.217   4.172   8.855 -0.4529 -0.3453  0.1004
   23SAPC  H13X 3091   3.134   4.245   8.845 -0.0285  0.1702  0.2320
   23SAPC  H13Y 3092   3.175   4.070   8.862 -0.1994 -0.5810 -1.6093
   23SAPC  C314 3093   3.282   4.179   8.715 -0.0702  0.0353 -0.1840
   23SAPC  H14X 3094   3.336   4.083   8.705 -0.8805 -0.1939 -2.6113
   23SAPC  H14Y 3095   3.348   4.269   8.711 -0.1676  0.1965  1.3322
   23SAPC  C315 3096   3.176   4.161   8.610 -0.3200 -0.2044 -0.2904
   23SAPC  H15X 3097   3.123   4.259   8.598  1.6477  0.9200 -0.0211
   23SAPC  H15Y 3098   3.100   4.082   8.627  0.1205 -1.0001 -1.9027
   23SAPC  C316 3099   3.216   4.116   8.476 -0.6419 -0.7641  0.3159
   23SAPC  H16X 3100   3.285   4.033   8.503  0.5631  0.5811  1.4956
   23SAPC  H16Y 3101   3.274   4.193   8.420  2.4573 -1.9343  1.7880
   23SAPC  C317 3102   3.099   4.065   8.395  0.3891 -0.0558  0.1379
   23SAPC  H17X 3103   3.020   4.143   8.387 -1.0455 -1.1536  3.1067
   23SAPC  H17Y 3104   3.050   3.987   8.456  2.6326 -0.2895  1.6797
   23SAPC  C318 3105   3.141   4.017   8.258  1.0615 -0.3452  0.2533
   23SAPC  H18X 3106   3.049   4.003   8.197  0.9419  0.1445  0.3209
   23SAPC  H18Y 3107   3.199   3.922   8.262 -0.6057 -1.4957 -1.7452
   23SAPC  H18Z 3108   3.200   4.096   8.208 -2.0314  0.3527 -2.4446
   24SAPC     N 3109   5.624   5.032  11.127 -0.1335 -0.7887 -0.2079
   24SAPC   C12 3110   5.712   4.923  11.069 -0.0819  0.0708  0.0117
   24SAPC  H12A 3111   5.784   4.885  11.141  0.4940 -0.7143 -0.9567
   24SAPC  H12B 3112   5.768   4.968  10.988  0.0415  0.4210  0.2954
   24SAPC   C13 3113   5.561   4.977  11.253  0.2657  0.0430 -0.2386
   24SAPC  H13A 3114   5.514   4.882  11.231  0.7559 -0.5048  1.0062
   24SAPC  H13B 3115   5.638   4.982  11.329 -0.7254 -1.2042  0.8705
   24SAPC  H13C 3116   5.485   5.045  11.289  0.4720  0.6339 -0.9116
   24SAPC   C14 3117   5.707   5.159  11.152 -0.5603 -0.8723  0.3288
   24SAPC  H14A 3118   5.727   5.203  11.055 -1.0028 -0.1904  0.5461
   24SAPC  H14B 3119   5.640   5.218  11.212 -0.0148 -0.1162  0.1928
   24SAPC  H14C 3120   5.796   5.138  11.209 -0.2959  0.6230  0.4600
   24SAPC   C15 3121   5.511   5.059  11.035  0.3560  0.1305  0.0394
   24SAPC  H15A 3122   5.535   5.134  10.960  2.0079 -0.8987 -0.4920
   24SAPC  H15B 3123   5.474   4.973  10.982  0.3239 -1.0909  2.0062
   24SAPC  H15C 3124   5.426   5.108  11.081 -0.0890  0.0285 -0.6607
   24SAPC   C11 3125   5.645   4.795  11.013  0.5956  0.3020 -0.2046
   24SAPC  H11A 3126   5.721   4.731  10.963  2.1490  0.7039  1.6015
   24SAPC  H11B 3127   5.570   4.834  10.940  0.4062  1.7611  0.7614
   24SAPC     P 3128   5.433   4.665  11.085  0.0259  0.2427  0.0309
   24SAPC   O13 3129   5.396   4.557  11.183  0.1932 -0.2115  0.2428
   24SAPC   O14 3130   5.339   4.780  11.082 -0.7291  0.3269 -0.1934
   24SAPC   O12 3131   5.579   4.722  11.118 -0.3361  0.3349  0.1899
   24SAPC   O11 3132   5.444   4.607  10.945 -0.2888 -0.0259 -0.5264
   24SAPC    C1 3133   5.506   4.488  10.913  0.3083  0.5652  0.5289
   24SAPC    HA 3134   5.616   4.501  10.923  0.6935  0.5278 -3.2382
   24SAPC    HB 3135   5.480   4.407  10.984  1.3235  1.2829  1.7451
   24SAPC    C2 3136   5.476   4.427  10.762 -0.4607 -0.2566 -0.5334
   24SAPC    HS 3137   5.545   4.341  10.757  1.0436  0.6486  2.9322
   24SAPC   O21 3138   5.515   4.516  10.657  0.2202 -0.3488 -0.2633
   24SAPC   C21 3139   5.645   4.558  10.647 -0.5273 -0.6282  0.1057
   24SAPC   O22 3140   5.741   4.517  10.714  0.2173  0.5830 -0.1364
   24SAPC   C22 3141   5.659   4.666  10.534 -0.4407  0.0090 -0.3580
   24SAPC   H2R 3142   5.564   4.715  10.502 -1.2346 -0.8586  0.6588
   24SAPC   H2S 3143   5.733   4.741  10.570 -1.6036 -0.4753  3.1268
   24SAPC    C3 3144   5.331   4.382  10.743  0.2488  0.1013 -0.4809
   24SAPC    HX 3145   5.269   4.466  10.705 -1.1215 -0.6881 -0.0232
   24SAPC    HY 3146   5.293   4.360  10.845  1.5718 -0.0874 -0.0258
   24SAPC   O31 3147   5.314   4.265  10.665  0.1988  0.2405  0.2693
   24SAPC   C31 3148   5.304   4.288  10.534  0.2505  0.2882 -0.1676
   24SAPC   O32 3149   5.298   4.396  10.479 -0.2774 -0.1725 -0.6414
   24SAPC   C32 3150   5.301   4.148  10.471  0.2425  0.5021  0.6316
   24SAPC   H2X 3151   5.216   4.092  10.515 -1.3509  2.1499 -0.2730
   24SAPC   H2Y 3152   5.396   4.092  10.485 -0.5104 -1.1226 -0.6742
   24SAPC   C23 3153   5.724   4.598  10.408  0.6731  0.1000  0.6131
   24SAPC   H3R 3154   5.827   4.569  10.439  0.4960  0.7939  1.9056
   24SAPC   H3S 3155   5.743   4.673  10.329  1.5224 -1.5758 -0.8097
   24SAPC   C24 3156   5.652   4.480  10.334  0.3002  0.5782 -0.3355
   24SAPC   H4R 3157   5.637   4.407  10.417 -1.0855  1.8864  0.5808
   24SAPC   H4S 3158   5.734   4.444  10.268  2.3533  0.7290  2.0247
   24SAPC   C25 3159   5.530   4.522  10.258 -0.1695  0.3171  0.1381
   24SAPC   H5R 3160   5.439   4.521  10.319 -0.6241 -0.9354 -0.5472
   24SAPC   C26 3161   5.527   4.553  10.120  0.0175  0.4936  0.1072
   24SAPC   H6R 3162   5.437   4.591  10.070 -0.8106 -0.9308  0.4795
   24SAPC   C27 3163   5.654   4.534  10.038 -0.2120 -0.5661  0.6683
   24SAPC   H7R 3164   5.749   4.528  10.094  1.4532  0.2940 -1.9788
   24SAPC   H7S 3165   5.667   4.628   9.981  1.2480 -0.3423  1.3735
   24SAPC   C28 3166   5.637   4.411   9.954  0.5801 -0.1445 -0.1465
   24SAPC   H8R 3167   5.637   4.315  10.008 -1.2484 -0.4502 -0.6603
   24SAPC   C29 3168   5.628   4.416   9.817 -0.0101  0.4105 -0.5473
   24SAPC   H9R 3169   5.594   4.331   9.757  2.8422 -0.0917 -1.5067
   24SAPC  C210 3170   5.628   4.540   9.725  0.2099 -0.0137 -0.2742
   24SAPC  H10R 3171   5.540   4.602   9.754  1.2093  0.6074  1.4484
   24SAPC  H10S 3172   5.609   4.502   9.622  2.3607 -0.5444 -0.4843
   24SAPC  C211 3173   5.750   4.626   9.714  0.1979 -0.4578  0.1785
   24SAPC  H11R 3174   5.809   4.630   9.807  0.8396 -1.9084 -0.1546
   24SAPC  C212 3175   5.773   4.718   9.617 -0.5079 -0.3479  0.3511
   24SAPC  H12R 3176   5.867   4.773   9.627 -0.6119 -0.3567  1.3719
   24SAPC  C213 3177   5.692   4.754   9.496 -0.1424 -0.2894  0.0517
   24SAPC  H13R 3178   5.652   4.857   9.505  0.0030 -0.3875  2.1683
   24SAPC  H13S 3179   5.603   4.687   9.493  0.8982 -1.7031 -0.1616
   24SAPC  C214 3180   5.761   4.744   9.366  0.0575  0.1225 -0.4762
   24SAPC  H14R 3181   5.785   4.639   9.341 -0.0824 -0.3320  1.2679
   24SAPC  C215 3182   5.758   4.838   9.269 -0.0166 -0.5749 -0.1047
   24SAPC  H15R 3183   5.797   4.812   9.169 -0.8935  1.4219 -1.0072
   24SAPC  C216 3184   5.694   4.972   9.269  0.0257  0.3216 -0.4900
   24SAPC  H16R 3185   5.750   5.036   9.198  0.3088 -1.0898 -1.5384
   24SAPC  H16S 3186   5.708   5.021   9.368  0.8465 -0.9145  0.0140
   24SAPC  C217 3187   5.553   4.960   9.214 -0.1914  1.2378  0.0343
   24SAPC  H17R 3188   5.484   4.926   9.294  0.3087 -0.1566 -0.1176
   24SAPC  H17S 3189   5.536   4.880   9.139 -1.1833  2.0309 -0.5916
   24SAPC  C218 3190   5.515   5.101   9.162  0.4881  0.1971  0.2559
   24SAPC  H18R 3191   5.582   5.130   9.079  0.6814 -0.1033  0.3086
   24SAPC  H18S 3192   5.512   5.184   9.236  2.7042  0.3418  0.2108
   24SAPC  C219 3193   5.373   5.087   9.110 -0.3926  0.1612  0.1166
   24SAPC  H19R 3194   5.317   5.064   9.203  1.1751  1.3092  1.3580
   24SAPC  H19S 3195   5.359   5.008   9.033 -0.6651  0.7457 -0.4285
   24SAPC  C220 3196   5.321   5.216   9.052  0.3460  0.0122 -0.2698
   24SAPC  H20R 3197   5.385   5.231   8.963 -0.2045  0.7199 -0.5597
   24SAPC  H20S 3198   5.336   5.298   9.125  0.4186  0.4469 -0.7622
   24SAPC  H20T 3199   5.213   5.206   9.025  0.4839 -0.9702 -0.4867
   24SAPC   C33 3200   5.275   4.141  10.318  0.7375 -0.7971 -0.0668
   24SAPC   H3X 3201   5.203   4.220  10.286  2.1498  0.6175  0.1976
   24SAPC   H3Y 3202   5.226   4.043  10.299  0.6919 -0.7880  0.0055
   24SAPC   C34 3203   5.401   4.147  10.220 -0.2009 -0.1840 -0.8167
   24SAPC   H4X 3204   5.477   4.093  10.280  0.0429  0.4330 -0.5689
   24SAPC   H4Y 3205   5.440   4.248  10.199 -1.0441  0.1265 -0.9294
   24SAPC   C35 3206   5.375   4.078  10.090  0.1671 -0.6551  0.1250
   24SAPC   H5X 3207   5.300   4.003  10.124 -2.5493  2.0329  0.1537
   24SAPC   H5Y 3208   5.464   4.022  10.052  1.7176  1.8420 -0.0279
   24SAPC   C36 3209   5.322   4.157   9.972 -0.2554 -0.1978 -0.7050
   24SAPC   H6X 3210   5.402   4.215   9.921  0.2414 -1.2200 -1.0951
   24SAPC   H6Y 3211   5.250   4.232  10.010  2.2628  2.1581 -0.4132
   24SAPC   C37 3212   5.247   4.069   9.869  0.2765  0.0135  0.8496
   24SAPC   H7X 3213   5.164   4.017   9.922  0.7923 -0.2609  1.3971
   24SAPC   H7Y 3214   5.319   4.004   9.815  0.7691  1.5719 -0.4044
   24SAPC   C38 3215   5.196   4.163   9.763  0.3189 -0.8518  0.3606
   24SAPC   H8X 3216   5.278   4.232   9.735 -1.0935  0.7640  0.1113
   24SAPC   H8Y 3217   5.112   4.224   9.802 -0.0814 -2.0164  1.3782
   24SAPC   C39 3218   5.136   4.088   9.637 -0.2607  0.3910  0.1819
   24SAPC   H9X 3219   5.063   4.014   9.673  0.2457  0.3576  1.1413
   24SAPC   H9Y 3220   5.220   4.023   9.604  0.0192 -0.4360  2.4767
   24SAPC  C310 3221   5.091   4.175   9.524 -0.0132  1.1899  0.2663
   24SAPC  H10X 3222   5.179   4.205   9.464 -0.3039  0.4532 -0.5457
   24SAPC  H10Y 3223   5.043   4.270   9.555  0.2317  2.0115 -1.7787
   24SAPC  C311 3224   5.002   4.094   9.435  0.6816  0.3911 -0.2251
   24SAPC  H11X 3225   4.950   4.016   9.496  0.3714  1.8441  1.4133
   24SAPC  H11Y 3226   5.062   4.031   9.366 -0.1536 -0.8713  0.1767
   24SAPC  C312 3227   4.892   4.164   9.351  0.0334  0.2395 -0.4182
   24SAPC  H12X 3228   4.942   4.248   9.298  1.2974 -1.8723 -2.6876
   24SAPC  H12Y 3229   4.835   4.205   9.438  1.3207  2.5930 -0.6253
   24SAPC  C313 3230   4.822   4.066   9.260  0.4660  0.2882  0.1277
   24SAPC  H13X 3231   4.717   4.090   9.233 -0.3182 -1.6634  1.3320
   24SAPC  H13Y 3232   4.827   3.963   9.302 -3.6730  0.6457  1.7565
   24SAPC  C314 3233   4.871   4.040   9.122  0.4791 -0.4647 -0.4691
   24SAPC  H14X 3234   4.980   4.019   9.129  1.4201  3.7964 -1.0698
   24SAPC  H14Y 3235   4.863   4.128   9.054  1.4437  0.4397  0.5634
   24SAPC  C315 3236   4.811   3.915   9.055  0.5071  0.6337  0.2223
   24SAPC  H15X 3237   4.704   3.943   9.049  0.8894  1.9250 -0.7514
   24SAPC  H15Y 3238   4.822   3.829   9.125  2.7955 -0.3262 -1.2785
   24SAPC  C316 3239   4.860   3.877   8.922  0.4081 -0.3423  0.0963
   24SAPC  H16X 3240   4.883   3.966   8.861  1.5847  0.5626  1.8094
   24SAPC  H16Y 3241   4.784   3.813   8.872  1.2983 -0.4807 -1.0969
   24SAPC  C317 3242   4.981   3.792   8.924 -0.4663  0.7174 -0.6197
   24SAPC  H17X 3243   4.957   3.713   8.999  0.5900  2.8452  2.0366
   24SAPC  H17Y 3244   5.064   3.857   8.958  2.0963 -0.0636 -5.0374
   24SAPC  C318 3245   5.021   3.726   8.797 -0.1242 -0.1702  0.4974
   24SAPC  H18X 3246   5.031   3.796   8.711 -3.4770  0.9058  0.9248
   24SAPC  H18Y 3247   4.955   3.644   8.764 -0.9878  2.0300 -3.5296
   24SAPC  H18Z 3248   5.122   3.684   8.818  0.1494 -0.3890 -1.2244
   25SAPC     N 3249   1.828   2.775   5.726 -0.7265 -0.0750  0.5644
   25SAPC   C12 3250   1.866   2.764   5.871  1.0169  0.2652 -0.2723
   25SAPC  H12A 3251   1.893   2.862   5.907  0.9976  0.6512 -1.2937
   25SAPC  H12B 3252   1.958   2.707   5.875  0.5667 -0.4260  0.2943
   25SAPC   C13 3253   1.821   2.639   5.661  0.2755  0.3925  0.6472
   25SAPC  H13A 3254   1.731   2.589   5.691  0.1267 -0.2177 -0.7712
   25SAPC  H13B 3255   1.812   2.653   5.554 -3.2069 -0.3094  0.8017
   25SAPC  H13C 3256   1.909   2.579   5.678 -1.5864 -2.4468  0.5248
   25SAPC   C14 3257   1.703   2.852   5.699 -0.2005  0.5760 -1.2522
   25SAPC  H14A 3258   1.617   2.808   5.747  0.9628 -1.7093 -1.1674
   25SAPC  H14B 3259   1.705   2.953   5.736 -2.2451  0.3610 -0.4915
   25SAPC  H14C 3260   1.682   2.850   5.593  2.4609  1.5485 -1.8561
   25SAPC   C15 3261   1.937   2.863   5.659  0.5221 -0.2153 -0.4923
   25SAPC  H15A 3262   2.032   2.813   5.670  0.0643 -1.0137 -0.1774
   25SAPC  H15B 3263   1.926   2.869   5.552 -0.2145  1.2152 -0.3626
   25SAPC  H15C 3264   1.937   2.961   5.705  2.0646  0.6648 -2.3297
   25SAPC   C11 3265   1.760   2.682   5.960  0.2713  0.0133 -0.0611
   25SAPC  H11A 3266   1.671   2.748   5.966  0.4507  0.1538  1.1257
   25SAPC  H11B 3267   1.808   2.675   6.059  0.9757 -1.4472 -0.4850
   25SAPC     P 3268   1.790   2.421   5.959  0.0956  0.1218 -0.0750
   25SAPC   O13 3269   1.719   2.307   5.899 -0.2222 -0.0654 -0.5414
   25SAPC   O14 3270   1.937   2.417   5.938 -0.2414 -0.3799  0.2880
   25SAPC   O12 3271   1.732   2.556   5.898  0.1390  0.2696 -0.9036
   25SAPC   O11 3272   1.757   2.429   6.115  0.0145  0.4114 -0.3618
   25SAPC    C1 3273   1.716   2.313   6.190  0.2360  0.2992  0.1394
   25SAPC    HA 3274   1.626   2.272   6.139  0.3450  0.6521 -0.3378
   25SAPC    HB 3275   1.793   2.233   6.197 -0.2498 -0.6460 -3.7187
   25SAPC    C2 3276   1.653   2.353   6.323  0.0740  0.4312  0.1945
   25SAPC    HS 3277   1.732   2.389   6.393 -1.4087 -0.0987  2.1943
   25SAPC   O21 3278   1.579   2.239   6.378  0.2246 -0.0063 -0.5697
   25SAPC   C21 3279   1.646   2.139   6.430  0.4934 -0.0151  0.3175
   25SAPC   O22 3280   1.765   2.125   6.423 -0.1705  0.1994  0.4035
   25SAPC   C22 3281   1.555   2.045   6.508  0.2430  0.2680  0.5996
   25SAPC   H2R 3282   1.463   2.020   6.451  0.1154  0.0496  0.9000
   25SAPC   H2S 3283   1.615   1.953   6.495 -0.7239 -0.2662 -0.0714
   25SAPC    C3 3284   1.551   2.471   6.312  0.4873 -0.0478 -0.1016
   25SAPC    HX 3285   1.465   2.424   6.261  2.0102 -2.7324 -0.3020
   25SAPC    HY 3286   1.602   2.545   6.248 -0.0784  1.2938  0.9652
   25SAPC   O31 3287   1.509   2.522   6.444  0.3566 -0.5478 -0.0186
   25SAPC   C31 3288   1.599   2.602   6.494 -0.2464  0.1010  0.8783
   25SAPC   O32 3289   1.702   2.638   6.440  0.0317  0.1808  0.3741
   25SAPC   C32 3290   1.547   2.644   6.627 -0.0683 -0.5232 -0.5791
   25SAPC   H2X 3291   1.502   2.551   6.667 -0.0763 -1.1830 -2.0720
   25SAPC   H2Y 3292   1.467   2.720   6.612  1.3408  1.1985  0.5459
   25SAPC   C23 3293   1.553   2.081   6.661  0.2622  0.1181 -0.7490
   25SAPC   H3R 3294   1.653   2.074   6.709  0.0038 -0.2483 -0.2682
   25SAPC   H3S 3295   1.478   2.020   6.717 -1.8879  2.6114 -0.8016
   25SAPC   C24 3296   1.529   2.238   6.677 -0.3859 -0.3354 -0.1302
   25SAPC   H4R 3297   1.611   2.304   6.642 -1.1562  0.2532 -0.8403
   25SAPC   H4S 3298   1.531   2.260   6.786  1.8634  2.5921 -0.6925
   25SAPC   C25 3299   1.398   2.287   6.636  0.1732  0.0953 -0.0883
   25SAPC   H5R 3300   1.381   2.323   6.533 -1.6865 -3.2182 -1.0058
   25SAPC   C26 3301   1.276   2.295   6.701 -0.3238 -0.1773  0.2425
   25SAPC   H6R 3302   1.199   2.360   6.657  0.1562  0.7832  0.8221
   25SAPC   C27 3303   1.253   2.255   6.846 -0.4197  0.6035  0.1420
   25SAPC   H7R 3304   1.166   2.310   6.888 -0.4682  0.4665  0.2229
   25SAPC   H7S 3305   1.341   2.278   6.911 -0.3592 -0.8410  0.6129
   25SAPC   C28 3306   1.231   2.112   6.870 -0.1489  0.0432  0.5175
   25SAPC   H8R 3307   1.246   2.052   6.779  2.3742  0.7866  0.4148
   25SAPC   C29 3308   1.167   2.059   6.978  0.2813 -0.4111  0.4480
   25SAPC   H9R 3309   1.161   1.951   6.993  2.5606 -0.5899  0.2968
   25SAPC  C210 3310   1.111   2.135   7.100 -0.3128  0.0657  0.2975
   25SAPC  H10R 3311   1.030   2.080   7.151 -0.3105  0.7053  1.0033
   25SAPC  H10S 3312   1.069   2.232   7.066  0.7283  0.3942 -0.0712
   25SAPC  C211 3313   1.207   2.168   7.206 -0.9916  0.1102 -1.1074
   25SAPC  H11R 3314   1.305   2.203   7.169  1.0507 -1.3051  2.6925
   25SAPC  C212 3315   1.195   2.174   7.341  0.3192 -0.4196 -0.4307
   25SAPC  H12R 3316   1.279   2.200   7.406  1.2344  0.5580 -1.9883
   25SAPC  C213 3317   1.056   2.138   7.404 -0.6394 -0.6190  0.9037
   25SAPC  H13R 3318   1.017   2.046   7.355  0.3995 -1.8540  2.3289
   25SAPC  H13S 3319   0.992   2.225   7.381 -0.3769 -0.7287 -0.3046
   25SAPC  C214 3320   1.069   2.104   7.553  0.3347  0.5225 -0.2231
   25SAPC  H14R 3321   1.095   1.998   7.566 -0.6183  0.4662  1.3091
   25SAPC  C215 3322   1.057   2.185   7.657  0.0543 -0.7735  0.1529
   25SAPC  H15R 3323   1.067   2.147   7.760  1.1272  2.9617  1.4898
   25SAPC  C216 3324   1.017   2.332   7.642 -0.4223  0.2445  0.7065
   25SAPC  H16R 3325   0.925   2.350   7.701 -1.3246 -1.4605 -0.1413
   25SAPC  H16S 3326   0.988   2.360   7.538  2.7793  0.8669 -0.0734
   25SAPC  C217 3327   1.117   2.446   7.683  0.0115 -0.0869  0.6289
   25SAPC  H17R 3328   1.063   2.541   7.671 -0.0061  0.0472  1.6546
   25SAPC  H17S 3329   1.206   2.452   7.616  0.3503  2.6293  1.2717
   25SAPC  C218 3330   1.180   2.448   7.824 -0.3511  0.3365 -1.2741
   25SAPC  H18R 3331   1.261   2.524   7.826 -1.8575  2.0076 -2.6830
   25SAPC  H18S 3332   1.208   2.343   7.849 -0.0762 -0.3356 -4.2074
   25SAPC  C219 3333   1.083   2.484   7.934  0.0209  0.4150  0.5385
   25SAPC  H19R 3334   1.019   2.396   7.958 -0.1400  0.7242  1.2717
   25SAPC  H19S 3335   1.019   2.573   7.914 -0.5851  0.3725  2.1533
   25SAPC  C220 3336   1.157   2.513   8.071  0.3590  0.4255  0.0443
   25SAPC  H20R 3337   1.216   2.607   8.074  1.2678 -0.1638  0.8367
   25SAPC  H20S 3338   1.231   2.433   8.089  0.3349  0.2145 -0.7571
   25SAPC  H20T 3339   1.082   2.519   8.153  1.7954  0.0248  1.3916
   25SAPC   C33 3340   1.655   2.696   6.731  0.6216 -0.5871 -0.1848
   25SAPC   H3X 3341   1.751   2.639   6.736  1.2279  0.5754  2.6983
   25SAPC   H3Y 3342   1.615   2.687   6.835 -2.5570 -1.0841 -1.4139
   25SAPC   C34 3343   1.685   2.844   6.711  0.0914 -0.3985 -0.0384
   25SAPC   H4X 3344   1.597   2.911   6.702 -1.0531 -2.1458 -2.3278
   25SAPC   H4Y 3345   1.737   2.851   6.613  0.6890 -0.2111  0.2881
   25SAPC   C35 3346   1.783   2.888   6.817 -0.5660 -0.1931 -0.7829
   25SAPC   H5X 3347   1.826   2.983   6.779  1.4800 -0.1801  1.4404
   25SAPC   H5Y 3348   1.862   2.814   6.839  0.1640  0.7464 -0.2008
   25SAPC   C36 3349   1.715   2.924   6.949  0.0062 -0.5416 -0.2713
   25SAPC   H6X 3350   1.674   2.829   6.990 -1.3359  0.9099  1.7944
   25SAPC   H6Y 3351   1.625   2.986   6.930 -0.2021 -0.4432  0.9863
   25SAPC   C37 3352   1.810   2.996   7.045  0.4019  0.3095 -0.3358
   25SAPC   H7X 3353   1.824   3.105   7.026 -1.2361  0.7813  1.0027
   25SAPC   H7Y 3354   1.912   2.951   7.039  0.0759 -0.4396 -0.2648
   25SAPC   C38 3355   1.750   2.995   7.186  0.5272 -0.6202  0.1641
   25SAPC   H8X 3356   1.708   2.895   7.208  2.8243 -1.6205  0.1642
   25SAPC   H8Y 3357   1.658   3.056   7.171  0.9640  0.2275  0.8677
   25SAPC   C39 3358   1.836   3.043   7.301 -0.1023  0.2361 -0.2942
   25SAPC   H9X 3359   1.878   3.142   7.273  1.3915 -0.1254  0.6434
   25SAPC   H9Y 3360   1.920   2.974   7.322 -1.3266 -0.5864  2.0460
   25SAPC  C310 3361   1.752   3.061   7.430  1.1841  0.4573  0.0516
   25SAPC  H10X 3362   1.736   2.957   7.466 -1.4472  0.2693 -1.5344
   25SAPC  H10Y 3363   1.660   3.118   7.405  0.3494 -0.2200  1.5129
   25SAPC  C311 3364   1.829   3.138   7.538  0.6483 -0.2322 -0.0989
   25SAPC  H11X 3365   1.820   3.247   7.518  1.1305 -0.3693 -1.0788
   25SAPC  H11Y 3366   1.931   3.096   7.534  2.1220  2.9379  2.2083
   25SAPC  C312 3367   1.769   3.102   7.674  0.4424  0.1555  0.6773
   25SAPC  H12X 3368   1.764   2.993   7.693 -2.8362 -0.0552 -1.0841
   25SAPC  H12Y 3369   1.660   3.125   7.675  0.2640 -0.5343  4.1929
   25SAPC  C313 3370   1.852   3.174   7.783  0.0420 -0.4578  0.6825
   25SAPC  H13X 3371   1.846   3.283   7.764  0.6279 -0.5620 -0.1183
   25SAPC  H13Y 3372   1.956   3.133   7.778 -0.9563 -3.1245  0.9857
   25SAPC  C314 3373   1.789   3.156   7.921 -0.1259  0.2917 -0.5282
   25SAPC  H14X 3374   1.794   3.046   7.932 -0.1055  0.0650 -2.6428
   25SAPC  H14Y 3375   1.679   3.170   7.921 -0.2097 -0.1595  1.5044
   25SAPC  C315 3376   1.880   3.214   8.022  0.1123 -0.4389  0.3161
   25SAPC  H15X 3377   1.897   3.314   7.978 -0.9827 -0.3364  0.1083
   25SAPC  H15Y 3378   1.973   3.154   8.014  1.8957  2.5939 -2.9685
   25SAPC  C316 3379   1.831   3.209   8.166 -0.5074  0.0020  0.9737
   25SAPC  H16X 3380   1.793   3.109   8.197 -0.7478  0.0330  0.7854
   25SAPC  H16Y 3381   1.747   3.281   8.177 -2.0592 -1.4061 -1.0904
   25SAPC  C317 3382   1.943   3.256   8.265 -0.1836 -0.2544 -0.0293
   25SAPC  H17X 3383   2.039   3.210   8.235  0.8945  1.1147  1.2063
   25SAPC  H17Y 3384   1.919   3.223   8.369 -1.1116  0.5851  0.0298
   25SAPC  C318 3385   1.951   3.407   8.264 -0.4813 -0.4657  0.0024
   25SAPC  H18X 3386   1.961   3.448   8.161 -0.1186 -0.8420 -0.1148
   25SAPC  H18Y 3387   2.039   3.439   8.324 -1.6773  3.5131 -0.2293
   25SAPC  H18Z 3388   1.871   3.448   8.329 -0.1050 -0.1304  0.2613
   26SAPC     N 3389   0.945   4.703   6.038 -0.4486 -0.0618  0.0237
   26SAPC   C12 3390   0.806   4.728   6.082 -0.9203 -0.2103  0.3821
   26SAPC  H12A 3391   0.741   4.716   5.997  1.3569  1.2349 -1.6304
   26SAPC  H12B 3392   0.801   4.835   6.098 -0.5184 -0.2860  1.0431
   26SAPC   C13 3393   0.990   4.813   5.951 -0.0859  0.0404 -0.1479
   26SAPC  H13A 3394   0.927   4.833   5.866  1.2324  3.2670 -0.4545
   26SAPC  H13B 3395   1.002   4.911   5.995  0.3210  1.3641 -3.0761
   26SAPC  H13C 3396   1.094   4.802   5.926 -0.0112 -0.6875  0.4590
   26SAPC   C14 3397   1.039   4.709   6.155 -0.6714  0.1345 -0.3740
   26SAPC  H14A 3398   1.138   4.687   6.117 -0.5006 -1.7011  1.0493
   26SAPC  H14B 3399   1.040   4.811   6.192  0.9244 -1.5024  4.5076
   26SAPC  H14C 3400   1.012   4.638   6.232  0.6194  0.1252  0.0852
   26SAPC   C15 3401   0.964   4.568   5.976  0.1094 -0.3412  0.2783
   26SAPC  H15A 3402   0.894   4.497   6.019  2.0944 -0.2920  3.7817
   26SAPC  H15B 3403   0.938   4.588   5.874  3.2062 -0.5549 -0.6034
   26SAPC  H15C 3404   1.069   4.544   5.978  0.6194  1.4039 -3.1619
   26SAPC   C11 3405   0.750   4.659   6.211  0.1252 -0.2524  0.0951
   26SAPC  H11A 3406   0.643   4.681   6.235 -0.2277 -2.5910  0.7978
   26SAPC  H11B 3407   0.796   4.705   6.301  1.2096  1.9655 -1.5579
   26SAPC     P 3408   0.674   4.417   6.134 -0.0072 -0.0210  0.3051
   26SAPC   O13 3409   0.576   4.496   6.052 -0.1940 -0.4019  0.0930
   26SAPC   O14 3410   0.746   4.311   6.065  0.6061  0.3047  0.6111
   26SAPC   O12 3411   0.770   4.510   6.214 -0.1692  0.1713  0.3926
   26SAPC   O11 3412   0.586   4.357   6.251 -0.8650  0.2384  0.0879
   26SAPC    C1 3413   0.644   4.271   6.346  0.1966  0.3223  0.0189
   26SAPC    HA 3414   0.569   4.191   6.362  0.3279  0.1870 -0.0494
   26SAPC    HB 3415   0.743   4.233   6.315  1.8721  3.6468  0.9833
   26SAPC    C2 3416   0.662   4.334   6.486 -0.9036 -0.3751  0.1219
   26SAPC    HS 3417   0.769   4.354   6.509 -0.4852 -2.5813  0.2135
   26SAPC   O21 3418   0.613   4.244   6.590 -0.6713 -0.0186  0.2606
   26SAPC   C21 3419   0.699   4.148   6.612 -0.2905  0.2279 -0.3324
   26SAPC   O22 3420   0.802   4.127   6.546 -0.0012 -0.3904  0.3769
   26SAPC   C22 3421   0.660   4.064   6.740  0.1406  0.0315 -0.3620
   26SAPC   H2R 3422   0.549   4.072   6.740  0.0829 -0.7330 -1.1504
   26SAPC   H2S 3423   0.693   3.965   6.703 -2.0034 -1.6328  2.0192
   26SAPC    C3 3424   0.587   4.467   6.494  0.2018  0.6535 -0.1479
   26SAPC    HX 3425   0.488   4.451   6.447 -1.2311  0.8088  2.7146
   26SAPC    HY 3426   0.642   4.534   6.426 -0.2455 -0.2215 -1.3884
   26SAPC   O31 3427   0.565   4.511   6.631 -0.0514 -0.3039  0.6555
   26SAPC   C31 3428   0.669   4.577   6.681 -0.1979 -0.0686 -0.4214
   26SAPC   O32 3429   0.786   4.579   6.631  0.1372 -0.4168  0.0730
   26SAPC   C32 3430   0.624   4.663   6.802 -0.5044 -0.0225  0.3106
   26SAPC   H2X 3431   0.555   4.737   6.757  0.2182 -1.1029 -2.6619
   26SAPC   H2Y 3432   0.712   4.716   6.843 -0.7557  0.1335  0.6540
   26SAPC   C23 3433   0.732   4.103   6.869 -0.0995 -0.0816  0.7750
   26SAPC   H3R 3434   0.699   4.207   6.890  1.2742  0.6205 -0.4517
   26SAPC   H3S 3435   0.842   4.098   6.852 -0.3927  0.5380 -1.5604
   26SAPC   C24 3436   0.702   4.005   6.979  0.7675 -0.0317 -0.3671
   26SAPC   H4R 3437   0.795   3.998   7.040 -0.6543 -0.4552  1.7853
   26SAPC   H4S 3438   0.671   3.906   6.940 -0.8560  0.2364  0.2062
   26SAPC   C25 3439   0.589   4.043   7.069  0.1334 -0.5989  0.1275
   26SAPC   H5R 3440   0.522   4.121   7.030 -1.9751 -0.7311  3.2946
   26SAPC   C26 3441   0.564   3.991   7.191 -0.9713  0.3740 -1.0336
   26SAPC   H6R 3442   0.479   4.026   7.251  0.0874  1.6053 -0.2103
   26SAPC   C27 3443   0.654   3.888   7.260 -0.0790 -0.6308 -0.6458
   26SAPC   H7R 3444   0.733   3.850   7.191 -0.1020  0.9797 -1.6027
   26SAPC   H7S 3445   0.586   3.805   7.287 -0.3999  0.7084  2.9342
   26SAPC   C28 3446   0.722   3.933   7.389 -0.0111 -0.4985 -0.2123
   26SAPC   H8R 3447   0.806   4.004   7.376  0.7957 -1.5103 -0.5845
   26SAPC   C29 3448   0.687   3.901   7.519  0.4384 -0.2702  0.1297
   26SAPC   H9R 3449   0.755   3.925   7.601  1.7304 -0.6301 -0.8148
   26SAPC  C210 3450   0.561   3.817   7.562  0.7870 -0.1412 -0.2649
   26SAPC  H10R 3451   0.580   3.708   7.562 -1.6982 -0.6166  0.2462
   26SAPC  H10S 3452   0.488   3.843   7.482 -2.0191 -0.9831  1.9140
   26SAPC  C211 3453   0.497   3.846   7.694 -0.0756 -0.2014 -0.3697
   26SAPC  H11R 3454   0.392   3.875   7.680 -0.6730 -0.3926  3.1871
   26SAPC  C212 3455   0.539   3.868   7.821 -0.4527  0.2940 -0.4090
   26SAPC  H12R 3456   0.469   3.901   7.899  1.6760  0.6495  1.4036
   26SAPC  C213 3457   0.679   3.851   7.882  0.0198  0.2232  0.0180
   26SAPC  H13R 3458   0.720   3.952   7.904  0.1319  0.5962 -1.7714
   26SAPC  H13S 3459   0.743   3.803   7.804 -2.1733 -0.8117 -1.1933
   26SAPC  C214 3460   0.695   3.768   8.009  0.3133 -0.3447  0.2583
   26SAPC  H14R 3461   0.725   3.663   8.000  1.8588  0.1125 -0.0900
   26SAPC  C215 3462   0.637   3.800   8.130 -0.6161 -0.8620 -0.0233
   26SAPC  H15R 3463   0.666   3.743   8.219  1.2339 -0.2526 -0.2046
   26SAPC  C216 3464   0.576   3.931   8.167  0.0365 -0.3386 -0.7235
   26SAPC  H16R 3465   0.590   4.001   8.082  0.4080 -0.1668 -0.5210
   26SAPC  H16S 3466   0.630   3.979   8.251 -0.3147 -0.6645 -0.3121
   26SAPC  C217 3467   0.426   3.928   8.196 -0.0092 -1.0362  0.3495
   26SAPC  H17R 3468   0.374   3.877   8.112 -0.4570 -0.2141  0.1252
   26SAPC  H17S 3469   0.383   4.030   8.205  1.8456 -0.2085  0.1316
   26SAPC  C218 3470   0.403   3.873   8.340  0.0262 -0.1047  0.0189
   26SAPC  H18R 3471   0.465   3.929   8.413 -1.4125 -0.3749  1.4541
   26SAPC  H18S 3472   0.440   3.769   8.340  1.4037  0.3747  0.2089
   26SAPC  C219 3473   0.256   3.880   8.391  0.0330  0.0368  0.5226
   26SAPC  H19R 3474   0.220   3.983   8.369 -2.0569 -1.2036 -2.0744
   26SAPC  H19S 3475   0.263   3.854   8.499 -1.3795 -0.7125  0.4365
   26SAPC  C220 3476   0.167   3.782   8.314  0.3482 -0.3137  0.5808
   26SAPC  H20R 3477   0.058   3.797   8.334 -0.1459  0.0695 -2.1580
   26SAPC  H20S 3478   0.193   3.680   8.349 -0.4268 -1.1158 -1.1465
   26SAPC  H20T 3479   0.174   3.781   8.203 -1.4014 -2.7235  0.4454
   26SAPC   C33 3480   0.558   4.591   6.913 -0.1054  0.1513  0.3175
   26SAPC   H3X 3481   0.480   4.522   6.874 -0.0687 -0.0780  0.6398
   26SAPC   H3Y 3482   0.510   4.667   6.978 -1.5520 -0.1482 -0.3899
   26SAPC   C34 3483   0.671   4.528   6.990 -0.0897 -0.4869  0.1868
   26SAPC   H4X 3484   0.743   4.608   7.017 -0.7679 -0.0052  0.5839
   26SAPC   H4Y 3485   0.728   4.465   6.920 -1.7278 -1.3397 -0.4028
   26SAPC   C35 3486   0.629   4.443   7.118  0.3868 -1.0841 -0.3452
   26SAPC   H5X 3487   0.560   4.366   7.077 -0.4072  0.2934 -1.6466
   26SAPC   H5Y 3488   0.574   4.509   7.189 -1.3844 -0.3526 -2.3525
   26SAPC   C36 3489   0.742   4.366   7.190  0.6453  0.1208  0.4366
   26SAPC   H6X 3490   0.823   4.437   7.216 -0.4434  1.1515  1.0459
   26SAPC   H6Y 3491   0.784   4.297   7.113  2.3236  2.4290 -0.7855
   26SAPC   C37 3492   0.697   4.299   7.317 -0.2921  0.4812  0.5100
   26SAPC   H7X 3493   0.773   4.218   7.324  1.2694  1.7441 -1.2529
   26SAPC   H7Y 3494   0.599   4.248   7.310 -0.0443  0.1106 -0.2475
   26SAPC   C38 3495   0.694   4.389   7.441 -0.8271 -0.5202 -0.1055
   26SAPC   H8X 3496   0.613   4.466   7.439 -0.4352 -0.0741  0.8210
   26SAPC   H8Y 3497   0.781   4.457   7.450  0.0531 -1.7659  1.1603
   26SAPC   C39 3498   0.676   4.310   7.569  0.3813 -0.3225 -0.4163
   26SAPC   H9X 3499   0.762   4.240   7.574  2.0516  1.7858  1.6891
   26SAPC   H9Y 3500   0.578   4.260   7.557  0.3257 -0.6434  1.2678
   26SAPC  C310 3501   0.679   4.404   7.689 -0.7938  0.0932 -0.4697
   26SAPC  H10X 3502   0.585   4.463   7.689 -0.9057 -0.0457  1.1365
   26SAPC  H10Y 3503   0.767   4.470   7.679  1.5258 -2.6735  1.0221
   26SAPC  C311 3504   0.676   4.327   7.827  0.0071  0.0654 -0.3803
   26SAPC  H11X 3505   0.770   4.285   7.870 -0.0059  2.4154  2.1044
   26SAPC  H11Y 3506   0.613   4.237   7.810 -2.1131  1.6895 -1.2924
   26SAPC  C312 3507   0.616   4.424   7.935  0.4777 -0.1288  0.5397
   26SAPC  H12X 3508   0.539   4.489   7.889  0.2212  0.3204  1.6053
   26SAPC  H12Y 3509   0.690   4.501   7.964 -0.5915  1.0001  0.3197
   26SAPC  C313 3510   0.563   4.352   8.062 -0.5687 -0.0100  0.1392
   26SAPC  H13X 3511   0.512   4.258   8.031  1.0116 -0.3881 -1.3888
   26SAPC  H13Y 3512   0.482   4.420   8.095  0.9137  1.2993  1.1209
   26SAPC  C314 3513   0.669   4.325   8.168  0.5355 -0.4455  0.3002
   26SAPC  H14X 3514   0.739   4.410   8.154 -0.4224  0.3067  0.0714
   26SAPC  H14Y 3515   0.718   4.227   8.147 -0.3100 -0.7401 -0.3129
   26SAPC  C315 3516   0.602   4.314   8.302 -0.2881  0.0261  0.3560
   26SAPC  H15X 3517   0.534   4.226   8.293 -0.7114  0.5667 -2.1937
   26SAPC  H15Y 3518   0.523   4.390   8.317 -1.8996 -1.2995 -1.1556
   26SAPC  C316 3519   0.698   4.295   8.416 -0.8117  0.5498 -0.4113
   26SAPC  H16X 3520   0.763   4.384   8.404 -0.8301  0.4237 -1.5417
   26SAPC  H16Y 3521   0.753   4.201   8.396  0.0761  1.3647 -1.8891
   26SAPC  C317 3522   0.630   4.291   8.550  0.2988  0.5915  0.0982
   26SAPC  H17X 3523   0.559   4.377   8.552 -0.3995  0.0084  0.8338
   26SAPC  H17Y 3524   0.707   4.300   8.630  0.5597 -0.7272 -0.0075
   26SAPC  C318 3525   0.553   4.159   8.578  0.3273 -0.2241 -0.5387
   26SAPC  H18X 3526   0.615   4.068   8.565 -1.7313 -1.6077 -1.0049
   26SAPC  H18Y 3527   0.464   4.165   8.511 -0.0681  2.9904  0.1885
   26SAPC  H18Z 3528   0.520   4.159   8.684 -1.3534 -1.3499 -1.0430
   27SAPC     N 3529   5.246   4.822   6.558 -0.7572 -0.3453  0.2874
   27SAPC   C12 3530   5.396   4.848   6.563 -0.0729 -0.0048 -0.0664
   27SAPC  H12A 3531   5.410   4.955   6.574 -1.9011  0.2002  0.3720
   27SAPC  H12B 3532   5.445   4.829   6.468 -1.4163  0.6146 -0.8938
   27SAPC   C13 3533   5.215   4.679   6.579 -0.0679  0.6827 -0.4740
   27SAPC  H13A 3534   5.114   4.651   6.606  0.3953 -1.4710 -0.9543
   27SAPC  H13B 3535   5.248   4.626   6.491 -0.8909  1.1681 -1.0895
   27SAPC  H13C 3536   5.269   4.649   6.667  0.7818  2.5816 -0.3110
   27SAPC   C14 3537   5.179   4.888   6.668 -1.1427  0.2670  0.1817
   27SAPC  H14A 3538   5.074   4.873   6.648 -0.8120 -0.1387 -1.3285
   27SAPC  H14B 3539   5.204   4.847   6.765  1.3939 -0.2720 -0.6631
   27SAPC  H14C 3540   5.196   4.995   6.672  0.5595  0.0627 -0.9964
   27SAPC   C15 3541   5.187   4.873   6.433 -0.3388 -0.1418  0.1576
   27SAPC  H15A 3542   5.084   4.887   6.459 -0.7098 -0.6463 -0.9699
   27SAPC  H15B 3543   5.235   4.965   6.404 -3.7307  1.7419  0.4142
   27SAPC  H15C 3544   5.196   4.798   6.355  0.7293  1.4537 -1.2864
   27SAPC   C11 3545   5.468   4.774   6.676  0.6928  0.3170  0.2137
   27SAPC  H11A 3546   5.433   4.811   6.775  1.1856 -0.2968  0.6225
   27SAPC  H11B 3547   5.575   4.802   6.669 -0.4086  4.9084  0.3127
   27SAPC     P 3548   5.531   4.538   6.765 -0.1921 -0.1663  0.2350
   27SAPC   O13 3549   5.647   4.478   6.701 -0.1818 -0.8460 -0.0770
   27SAPC   O14 3550   5.556   4.617   6.888 -0.0167  0.1640  0.1822
   27SAPC   O12 3551   5.460   4.630   6.659 -0.0749  0.3705 -0.0335
   27SAPC   O11 3552   5.428   4.420   6.800  0.3404  0.4085  0.0271
   27SAPC    C1 3553   5.318   4.391   6.712 -0.3879 -0.5024  0.3943
   27SAPC    HA 3554   5.227   4.447   6.741  0.0959  0.3185  0.3509
   27SAPC    HB 3555   5.346   4.406   6.605  0.1487  1.2038  0.7527
   27SAPC    C2 3556   5.288   4.245   6.715  0.0585 -0.2405  0.0692
   27SAPC    HS 3557   5.213   4.210   6.641 -1.0490 -0.2515  1.1976
   27SAPC   O21 3558   5.249   4.216   6.850 -0.3508 -0.0652  0.3717
   27SAPC   C21 3559   5.120   4.214   6.882 -0.8465 -0.6168  0.2520
   27SAPC   O22 3560   5.032   4.265   6.811 -0.2040  0.0842  0.1217
   27SAPC   C22 3561   5.094   4.157   7.023  0.1760 -0.1663 -0.3032
   27SAPC   H2R 3562   5.127   4.053   7.005  2.2029  0.1694  1.3069
   27SAPC   H2S 3563   5.158   4.214   7.093 -1.3215 -2.5765  3.1308
   27SAPC    C3 3564   5.400   4.152   6.676 -0.3934 -0.1194 -0.4243
   27SAPC    HX 3565   5.493   4.202   6.711  0.8079 -2.2316 -0.4944
   27SAPC    HY 3566   5.401   4.150   6.565  3.3288  1.0594 -0.4870
   27SAPC   O31 3567   5.390   4.014   6.729 -0.1477  0.0325 -0.1842
   27SAPC   C31 3568   5.503   3.951   6.722  0.2657 -0.2706  0.6114
   27SAPC   O32 3569   5.611   4.001   6.693  0.4024 -0.0022  0.1967
   27SAPC   C32 3570   5.484   3.808   6.766  0.9222 -0.3551 -0.0812
   27SAPC   H2X 3571   5.563   3.746   6.717 -1.1701 -2.1814 -1.2573
   27SAPC   H2Y 3572   5.382   3.774   6.738 -0.4007  0.4160  3.4950
   27SAPC   C23 3573   4.942   4.151   7.053 -0.0979 -0.0645 -0.0663
   27SAPC   H3R 3574   4.907   4.072   7.122  0.1024  0.8649  1.1138
   27SAPC   H3S 3575   4.897   4.120   6.956  1.1280  2.0561 -1.3601
   27SAPC   C24 3576   4.891   4.281   7.111  0.1329 -0.4901  0.1122
   27SAPC   H4R 3577   4.933   4.368   7.056 -1.3618 -0.0550 -0.3654
   27SAPC   H4S 3578   4.917   4.307   7.216  0.7400  1.4979 -0.5186
   27SAPC   C25 3579   4.736   4.299   7.103 -0.3390 -0.0283  0.3699
   27SAPC   H5R 3580   4.691   4.327   7.007 -2.4222 -0.6569  1.1299
   27SAPC   C26 3581   4.656   4.258   7.201 -0.0765 -0.1929 -0.2303
   27SAPC   H6R 3582   4.548   4.272   7.191  0.0818  0.0558 -1.7359
   27SAPC   C27 3583   4.698   4.201   7.334 -0.0680 -0.4224 -0.4627
   27SAPC   H7R 3584   4.808   4.183   7.332 -0.0505 -0.2056 -2.5396
   27SAPC   H7S 3585   4.658   4.098   7.336 -1.8332  0.2131 -1.7168
   27SAPC   C28 3586   4.658   4.277   7.459  0.0391 -0.0236 -0.2295
   27SAPC   H8R 3587   4.564   4.335   7.451 -1.3509 -2.1919 -0.1207
   27SAPC   C29 3588   4.726   4.287   7.577 -0.5203  0.7564  0.4226
   27SAPC   H9R 3589   4.678   4.337   7.662  0.1884 -0.2601  1.4446
   27SAPC  C210 3590   4.859   4.219   7.604  0.3291  0.0930  0.2964
   27SAPC  H10R 3591   4.922   4.219   7.513 -2.6109 -0.0421 -1.8173
   27SAPC  H10S 3592   4.839   4.113   7.631 -0.5081  0.6124  1.7800
   27SAPC  C211 3593   4.930   4.292   7.716  0.2457 -0.7335  0.3182
   27SAPC  H11R 3594   4.986   4.383   7.690 -2.1774  2.1470  4.4384
   27SAPC  C212 3595   4.917   4.277   7.853  0.2020 -0.1242 -0.5041
   27SAPC  H12R 3596   4.974   4.347   7.916 -0.2689  0.5746 -0.8380
   27SAPC  C213 3597   4.835   4.164   7.924 -0.0953  0.0168 -0.2030
   27SAPC  H13R 3598   4.900   4.074   7.936  0.1306  0.2398  0.3058
   27SAPC  H13S 3599   4.741   4.143   7.870 -0.3664  0.0849  0.2351
   27SAPC  C214 3600   4.793   4.199   8.070 -0.3958  1.0984 -0.5623
   27SAPC  H14R 3601   4.702   4.260   8.079  0.3634  2.9453 -4.3675
   27SAPC  C215 3602   4.868   4.176   8.181 -0.1119 -0.5198  0.1187
   27SAPC  H15R 3603   4.828   4.195   8.281  1.0967 -1.6297  0.8297
   27SAPC  C216 3604   5.003   4.111   8.191  0.6170 -0.1103  0.8577
   27SAPC  H16R 3605   5.046   4.055   8.105 -1.4917 -1.0765  0.3919
   27SAPC  H16S 3606   4.994   4.039   8.275 -2.0646 -1.1543 -0.2679
   27SAPC  C217 3607   5.101   4.223   8.215  0.2675 -0.1425 -0.0710
   27SAPC  H17R 3608   5.073   4.274   8.310 -2.2493 -1.9755  0.2245
   27SAPC  H17S 3609   5.101   4.304   8.140  1.0054 -0.7087 -0.6840
   27SAPC  C218 3610   5.247   4.188   8.246  0.2945 -0.4819 -0.1607
   27SAPC  H18R 3611   5.285   4.143   8.152  0.2593  1.3516 -1.0573
   27SAPC  H18S 3612   5.247   4.124   8.337  3.5031  0.5839  0.6364
   27SAPC  C219 3613   5.317   4.321   8.282 -0.0667  0.3122  0.3163
   27SAPC  H19R 3614   5.242   4.374   8.345 -0.4853  0.7590 -0.5526
   27SAPC  H19S 3615   5.343   4.390   8.199  0.0554  0.0069  0.0992
   27SAPC  C220 3616   5.446   4.286   8.353 -0.2130 -0.0439  0.8021
   27SAPC  H20R 3617   5.436   4.247   8.456  1.1174  1.8652  1.6855
   27SAPC  H20S 3618   5.495   4.384   8.368  0.7906 -0.6570  1.6265
   27SAPC  H20T 3619   5.502   4.215   8.288 -0.4103  1.7806 -1.4370
   27SAPC   C33 3620   5.503   3.788   6.919  0.4895 -0.0605 -0.1505
   27SAPC   H3X 3621   5.609   3.810   6.944  0.0561  0.5225  1.2195
   27SAPC   H3Y 3622   5.480   3.684   6.950  2.4273 -0.5229 -0.2581
   27SAPC   C34 3623   5.414   3.875   7.009 -0.5627  0.1673 -0.0066
   27SAPC   H4X 3624   5.310   3.839   6.997  0.0419 -1.2716 -1.0050
   27SAPC   H4Y 3625   5.409   3.980   6.973 -2.6023  1.5157  3.9107
   27SAPC   C35 3626   5.462   3.893   7.151 -1.1235 -0.4013 -0.6901
   27SAPC   H5X 3627   5.560   3.945   7.154 -0.8383 -0.9790  0.1175
   27SAPC   H5Y 3628   5.475   3.798   7.206  1.8804  0.0181 -0.5708
   27SAPC   C36 3629   5.366   3.968   7.233  0.3364 -0.2251  0.5738
   27SAPC   H6X 3630   5.275   3.906   7.244  0.9401 -1.3614 -0.6088
   27SAPC   H6Y 3631   5.329   4.056   7.176 -1.3545 -1.6285 -0.5534
   27SAPC   C37 3632   5.412   4.019   7.364 -0.6040  0.4195 -0.5635
   27SAPC   H7X 3633   5.494   4.093   7.357  0.9108 -1.1313  0.2806
   27SAPC   H7Y 3634   5.452   3.933   7.423 -1.5309  0.4888  0.1723
   27SAPC   C38 3635   5.289   4.074   7.447 -0.1906  0.4141  0.2195
   27SAPC   H8X 3636   5.230   3.981   7.462  0.6939 -0.4436 -1.4169
   27SAPC   H8Y 3637   5.219   4.138   7.390 -1.4000  1.2349  2.5634
   27SAPC   C39 3638   5.321   4.151   7.578 -0.2042 -0.1585 -0.0471
   27SAPC   H9X 3639   5.222   4.192   7.608 -1.0310 -1.3224 -1.1703
   27SAPC   H9Y 3640   5.390   4.239   7.569  1.3037 -1.2892  0.3186
   27SAPC  C310 3641   5.377   4.061   7.693 -0.8948 -0.9622 -0.5627
   27SAPC  H10X 3642   5.471   4.019   7.652  0.0970 -1.7079  2.3258
   27SAPC  H10Y 3643   5.307   3.980   7.722 -1.6362  0.4241  1.6783
   27SAPC  C311 3644   5.408   4.142   7.819  0.1574 -0.1523  0.1130
   27SAPC  H11X 3645   5.319   4.184   7.870  1.3754 -1.0766  3.1343
   27SAPC  H11Y 3646   5.483   4.214   7.779 -0.9333  0.8987 -0.0652
   27SAPC  C312 3647   5.488   4.062   7.918  0.5709  0.3287 -0.1176
   27SAPC  H12X 3648   5.523   4.133   7.995  0.3486  0.5347 -0.2039
   27SAPC  H12Y 3649   5.577   4.029   7.861  0.1827 -0.1074 -0.4820
   27SAPC  C313 3650   5.413   3.935   7.977 -0.5524  0.5181 -0.0427
   27SAPC  H13X 3651   5.380   3.860   7.903  1.5954 -0.2386 -0.2642
   27SAPC  H13Y 3652   5.319   3.979   8.016  2.7322  3.8644  4.6954
   27SAPC  C314 3653   5.482   3.866   8.096  0.0486  1.0350 -0.3626
   27SAPC  H14X 3654   5.499   3.932   8.184  0.3916  0.7755 -0.2355
   27SAPC  H14Y 3655   5.577   3.813   8.073 -0.6113 -0.5533  0.5530
   27SAPC  C315 3656   5.387   3.754   8.154 -0.8648 -0.5021  0.0303
   27SAPC  H15X 3657   5.454   3.699   8.223 -1.3327 -0.0361  0.8626
   27SAPC  H15Y 3658   5.348   3.683   8.078 -3.7369  2.6723 -1.6112
   27SAPC  C316 3659   5.274   3.799   8.239  0.0332  0.3888  0.3478
   27SAPC  H16X 3660   5.201   3.841   8.167 -1.9650 -1.4529  1.2663
   27SAPC  H16Y 3661   5.298   3.881   8.311  2.7034  0.4669 -0.5727
   27SAPC  C317 3662   5.204   3.686   8.331  0.2676 -0.7313 -0.3962
   27SAPC  H17X 3663   5.275   3.678   8.416 -2.3300 -1.2023  1.7710
   27SAPC  H17Y 3664   5.184   3.597   8.267 -0.0700  0.1056 -1.4638
   27SAPC  C318 3665   5.065   3.731   8.379  0.3440 -0.0575  0.5495
   27SAPC  H18X 3666   5.013   3.657   8.444 -0.8651  0.6988  0.4417
   27SAPC  H18Y 3667   5.006   3.755   8.289  0.4280  0.1450  0.5471
   27SAPC  H18Z 3668   5.080   3.833   8.421  1.2431 -0.9737  2.5543
   28SAPC     N 3669   4.041   1.242   6.006  0.5210 -0.2211 -0.1190
   28SAPC   C12 3670   3.982   1.159   6.117  0.2056  0.1107 -0.2334
   28SAPC  H12A 3671   3.932   1.068   6.087  0.6099  0.0887 -0.8525
   28SAPC  H12B 3672   3.905   1.216   6.168 -0.0454 -0.4634  0.0328
   28SAPC   C13 3673   4.162   1.177   5.944 -0.0999 -0.0834 -0.0433
   28SAPC  H13A 3674   4.249   1.198   6.005 -0.4062  1.8286 -0.2200
   28SAPC  H13B 3675   4.138   1.072   5.942  0.7554 -0.3020  0.8345
   28SAPC  H13C 3676   4.184   1.219   5.847  1.6889 -1.1890 -0.1280
   28SAPC   C14 3677   3.946   1.261   5.888  0.2880  0.1236  0.8711
   28SAPC  H14A 3678   3.861   1.317   5.925 -1.3933 -2.4651  1.0356
   28SAPC  H14B 3679   3.988   1.322   5.809  2.3446 -1.9490  0.3363
   28SAPC  H14C 3680   3.909   1.166   5.852 -0.9961 -0.4105  3.4533
   28SAPC   C15 3681   4.075   1.386   6.046  0.3618  0.1538  0.0728
   28SAPC  H15A 3682   3.986   1.437   6.079  2.2115  1.8516  2.6394
   28SAPC  H15B 3683   4.138   1.384   6.134  1.5617  0.4644 -0.7627
   28SAPC  H15C 3684   4.125   1.450   5.975  1.7276 -0.2999  0.5887
   28SAPC   C11 3685   4.086   1.128   6.227  0.7269 -0.0691 -0.8771
   28SAPC  H11A 3686   4.189   1.125   6.186  0.2029 -0.5897 -2.1649
   28SAPC  H11B 3687   4.056   1.037   6.283  3.4918  0.0047  0.7906
   28SAPC     P 3688   4.164   1.278   6.420 -0.0051 -0.2835 -0.2123
   28SAPC   O13 3689   4.279   1.330   6.343  0.1597 -0.6438 -0.0799
   28SAPC   O14 3690   4.093   1.379   6.505 -0.0593  0.4351  0.6507
   28SAPC   O12 3691   4.058   1.229   6.322  0.2961  0.2466 -0.2386
   28SAPC   O11 3692   4.217   1.150   6.498  0.3092  0.4804 -0.1405
   28SAPC    C1 3693   4.143   1.096   6.614  0.2072  0.2012 -0.1604
   28SAPC    HA 3694   4.035   1.121   6.607  0.1153 -0.5831 -1.6659
   28SAPC    HB 3695   4.142   0.985   6.609  0.5125  0.1779  0.2308
   28SAPC    C2 3696   4.194   1.123   6.759 -0.4537 -0.4183  0.7587
   28SAPC    HS 3697   4.128   1.070   6.831 -1.4289  2.2184  1.8935
   28SAPC   O21 3698   4.205   1.262   6.794 -0.6676  0.7805 -0.0500
   28SAPC   C21 3699   4.094   1.334   6.812  0.5459 -0.0585 -0.1307
   28SAPC   O22 3700   3.979   1.298   6.821  0.1488  0.4589  0.6384
   28SAPC   C22 3701   4.138   1.479   6.851 -0.3874  0.1144  1.0786
   28SAPC   H2R 3702   4.179   1.477   6.955  1.8666 -1.7833  0.2005
   28SAPC   H2S 3703   4.223   1.506   6.785  0.7526 -4.3054  0.5841
   28SAPC    C3 3704   4.333   1.062   6.778 -0.1743 -0.6435  0.3323
   28SAPC    HX 3705   4.407   1.132   6.735  0.6382 -1.0782  1.0090
   28SAPC    HY 3706   4.338   0.969   6.717  1.6391  1.1123 -2.3055
   28SAPC   O31 3707   4.356   1.039   6.919  0.3118  0.2178  0.1062
   28SAPC   C31 3708   4.436   1.121   6.982  0.2277  0.0389 -0.2275
   28SAPC   O32 3709   4.506   1.208   6.935  0.6537 -0.3320 -0.3411
   28SAPC   C32 3710   4.410   1.099   7.126 -0.1247  0.1992 -0.0011
   28SAPC   H2X 3711   4.458   1.186   7.177 -0.6476  1.4885 -1.6541
   28SAPC   H2Y 3712   4.451   0.998   7.148  1.9451  1.4785  2.4120
   28SAPC   C23 3713   4.019   1.575   6.823  0.4477 -0.0149  0.2375
   28SAPC   H3R 3714   3.929   1.549   6.883  1.9560 -2.2826  1.5875
   28SAPC   H3S 3715   3.996   1.565   6.715  1.1688  2.4012 -0.1712
   28SAPC   C24 3716   4.051   1.721   6.847 -0.5947  0.0160  0.4784
   28SAPC   H4R 3717   4.127   1.752   6.773 -1.2414  1.4117  0.3767
   28SAPC   H4S 3718   3.956   1.774   6.824 -1.1562 -0.8348  0.8109
   28SAPC   C25 3719   4.097   1.755   6.989 -0.2095 -0.1779 -0.8128
   28SAPC   H5R 3720   4.196   1.719   7.018 -0.6332 -0.7495 -0.0591
   28SAPC   C26 3721   4.027   1.834   7.078  1.2422 -0.2643 -0.5827
   28SAPC   H6R 3722   4.071   1.856   7.177 -0.7019  1.0988  0.0043
   28SAPC   C27 3723   3.894   1.903   7.054  0.2013  0.8170  0.3074
   28SAPC   H7R 3724   3.816   1.828   7.077 -1.5500  1.9590 -1.6865
   28SAPC   H7S 3725   3.874   1.914   6.945  1.1848 -2.6752 -0.3092
   28SAPC   C28 3726   3.870   2.028   7.139 -0.3784 -0.4002 -0.4432
   28SAPC   H8R 3727   3.894   2.123   7.089 -2.1202 -0.4535 -1.4304
   28SAPC   C29 3728   3.825   2.025   7.264 -0.3617 -0.6469  0.2263
   28SAPC   H9R 3729   3.819   2.119   7.320 -0.4153 -0.6203  0.1756
   28SAPC  C210 3730   3.780   1.909   7.343  0.7352 -0.3700  0.1987
   28SAPC  H10R 3731   3.774   1.817   7.281 -0.2629 -0.4938  0.4844
   28SAPC  H10S 3732   3.681   1.929   7.388 -0.2060  1.7591 -2.6273
   28SAPC  C211 3733   3.880   1.881   7.451  0.2821  0.8615  0.6229
   28SAPC  H11R 3734   3.971   1.830   7.413  0.1200 -0.3846  1.8350
   28SAPC  C212 3735   3.889   1.923   7.579 -0.2428  0.7516 -0.6565
   28SAPC  H12R 3736   3.977   1.894   7.638 -1.7676  1.8489  2.2958
   28SAPC  C213 3737   3.791   2.019   7.656 -0.0168 -0.2106 -0.0792
   28SAPC  H13R 3738   3.711   2.068   7.596  0.1977 -0.4459 -0.5605
   28SAPC  H13S 3739   3.858   2.100   7.693 -2.2108  1.0646  1.1719
   28SAPC  C214 3740   3.731   1.966   7.786  0.5390  0.1831  0.2250
   28SAPC  H14R 3741   3.626   1.934   7.782  0.6574 -0.0866 -0.9493
   28SAPC  C215 3742   3.785   1.969   7.910  1.0366 -0.7375 -0.6462
   28SAPC  H15R 3743   3.726   1.922   7.990 -1.1208  0.6262 -1.3820
   28SAPC  C216 3744   3.919   2.012   7.954 -0.0277 -0.0038 -0.0628
   28SAPC  H16R 3745   3.995   2.015   7.872  0.9051  3.1599  0.8692
   28SAPC  H16S 3746   3.965   1.923   8.003 -0.0582 -0.7199 -1.3073
   28SAPC  C217 3747   3.931   2.128   8.054 -0.3512  0.5288  0.1382
   28SAPC  H17R 3748   3.866   2.208   8.013  1.1967  3.3832  2.9897
   28SAPC  H17S 3749   4.037   2.158   8.067  1.0951 -3.7216 -1.0291
   28SAPC  C218 3750   3.867   2.091   8.185 -0.2084  0.0856  0.5209
   28SAPC  H18R 3751   3.922   2.004   8.227  0.0530  0.2333  0.4830
   28SAPC  H18S 3752   3.765   2.060   8.154  0.1907  0.8557 -1.6226
   28SAPC  C219 3753   3.838   2.207   8.289  0.0195  0.3868  0.3885
   28SAPC  H19R 3754   3.794   2.292   8.233 -1.1157 -2.1404 -2.7103
   28SAPC  H19S 3755   3.939   2.240   8.322 -1.4780  3.2015  2.2712
   28SAPC  C220 3756   3.747   2.161   8.406 -0.2564 -0.0450 -0.1072
   28SAPC  H20R 3757   3.763   2.055   8.434  4.7904  1.0118  1.4616
   28SAPC  H20S 3758   3.638   2.168   8.387 -0.4255 -1.8699  0.1018
   28SAPC  H20T 3759   3.763   2.230   8.491 -4.5419 -0.2198  0.9470
   28SAPC   C33 3760   4.268   1.102   7.169 -0.0722  0.3460  0.1586
   28SAPC   H3X 3761   4.265   1.055   7.270  1.1149  0.3659  0.2060
   28SAPC   H3Y 3762   4.200   1.044   7.103 -1.7312  0.9476  1.2899
   28SAPC   C34 3763   4.204   1.241   7.180  0.8547  0.2230 -0.2649
   28SAPC   H4X 3764   4.196   1.285   7.078 -1.9955  1.0740  0.2616
   28SAPC   H4Y 3765   4.264   1.302   7.250  0.3408  1.5168 -0.9228
   28SAPC   C35 3766   4.057   1.223   7.230  0.0056  0.1614  0.0298
   28SAPC   H5X 3767   4.041   1.191   7.335 -0.1037 -2.0742 -0.6539
   28SAPC   H5Y 3768   4.020   1.140   7.167  0.7674 -0.9846  1.0868
   28SAPC   C36 3769   3.980   1.354   7.208  0.2568 -0.2712  0.1520
   28SAPC   H6X 3770   3.876   1.348   7.247  0.3230  0.1649  0.4028
   28SAPC   H6Y 3771   3.974   1.382   7.101  2.8740  0.3285  0.1464
   28SAPC   C37 3772   4.044   1.469   7.277 -0.4926 -0.0812  0.6502
   28SAPC   H7X 3773   3.983   1.561   7.270 -0.6242 -0.2531 -0.6267
   28SAPC   H7Y 3774   4.146   1.491   7.239  0.3148 -0.2002  2.6665
   28SAPC   C38 3775   4.074   1.452   7.424  0.6837 -0.3016 -0.1138
   28SAPC   H8X 3776   4.139   1.365   7.443  0.0322 -0.6418  0.6396
   28SAPC   H8Y 3777   3.975   1.448   7.476  1.2287 -0.1929  0.9581
   28SAPC   C39 3778   4.134   1.581   7.485  0.0793  0.2291 -0.1392
   28SAPC   H9X 3779   4.052   1.656   7.488  0.4391  0.6271 -0.2531
   28SAPC   H9Y 3780   4.218   1.627   7.429  1.3000  0.1848  1.6017
   28SAPC  C310 3781   4.185   1.567   7.631  0.2983  0.1572 -0.1625
   28SAPC  H10X 3782   4.224   1.669   7.653 -1.7919  1.3451 -1.7236
   28SAPC  H10Y 3783   4.270   1.495   7.626 -1.7954 -2.3535 -0.4948
   28SAPC  C311 3784   4.088   1.524   7.745  0.3399 -0.3523  1.0484
   28SAPC  H11X 3785   4.148   1.519   7.839  1.3538  2.5497  0.5968
   28SAPC  H11Y 3786   4.051   1.421   7.722  1.8838 -0.7047  0.0475
   28SAPC  C312 3787   3.964   1.612   7.755 -0.3642  0.0574  0.0538
   28SAPC  H12X 3788   3.917   1.608   7.655  1.4266  1.4448 -0.8851
   28SAPC  H12Y 3789   4.001   1.714   7.778 -2.0016  1.0017 -1.4110
   28SAPC  C313 3790   3.868   1.549   7.854  0.4112 -0.4208 -0.0414
   28SAPC  H13X 3791   3.832   1.447   7.825 -0.4644  0.2984 -1.5667
   28SAPC  H13Y 3792   3.771   1.603   7.856  1.4752  1.4917  0.5346
   28SAPC  C314 3793   3.916   1.557   7.999  0.0786  0.1759 -0.2456
   28SAPC  H14X 3794   3.881   1.656   8.035 -1.1106  0.1165 -1.1748
   28SAPC  H14Y 3795   4.026   1.551   8.012  0.6800 -1.2967 -5.0193
   28SAPC  C315 3796   3.864   1.438   8.086 -0.9069 -0.5259 -0.1097
   28SAPC  H15X 3797   3.755   1.431   8.065 -0.5554 -0.4844 -2.1112
   28SAPC  H15Y 3798   3.866   1.453   8.196 -1.8000 -0.0071 -0.1545
   28SAPC  C316 3799   3.932   1.305   8.048 -0.6021 -0.2936 -0.4528
   28SAPC  H16X 3800   4.041   1.314   8.067 -1.1007  2.0135  1.4637
   28SAPC  H16Y 3801   3.921   1.284   7.939 -1.1865  1.7015 -0.7921
   28SAPC  C317 3802   3.882   1.177   8.121  0.3473 -0.0094 -0.4051
   28SAPC  H17X 3803   3.777   1.175   8.087  0.5833 -1.8892 -1.0773
   28SAPC  H17Y 3804   3.903   1.197   8.228  0.2934 -2.1623  0.0178
   28SAPC  C318 3805   3.937   1.050   8.067 -0.6709 -0.5867  0.2522
   28SAPC  H18X 3806   4.042   1.043   8.102 -0.3746  2.3176  0.0618
   28SAPC  H18Y 3807   3.937   1.050   7.956 -0.2804  1.1675  0.2380
   28SAPC  H18Z 3808   3.884   0.965   8.115 -2.7638  0.1613 -0.6451
   29SAPC     N 3809   6.743   4.791   6.065  0.7954 -0.3084 -0.7152
   29SAPC   C12 3810   6.683   4.690   6.160 -0.1767 -0.4511 -0.1192
   29SAPC  H12A 3811   6.724   4.593   6.133  1.3354  1.0431 -3.4627
   29SAPC  H12B 3812   6.578   4.673   6.144 -0.6838  2.4025  0.0343
   29SAPC   C13 3813   6.724   4.731   5.934  0.3380 -0.1066  0.3845
   29SAPC  H13A 3814   6.620   4.717   5.909  0.5029  0.8498 -0.9347
   29SAPC  H13B 3815   6.767   4.791   5.854  2.5230 -2.9279 -0.6676
   29SAPC  H13C 3816   6.761   4.630   5.929 -0.0967 -0.2593  0.2475
   29SAPC   C14 3817   6.685   4.926   6.068 -0.1402 -0.3364 -0.5890
   29SAPC  H14A 3818   6.694   4.970   6.166  1.3287  0.7373 -1.1856
   29SAPC  H14B 3819   6.723   4.994   5.993  1.7183 -0.6721  0.0426
   29SAPC  H14C 3820   6.577   4.917   6.058 -0.0979 -0.2557 -1.1896
   29SAPC   C15 3821   6.890   4.808   6.088 -0.6340  0.0169 -0.1257
   29SAPC  H15A 3822   6.938   4.713   6.069  0.0510  0.7518 -2.2076
   29SAPC  H15B 3823   6.928   4.891   6.030  0.2932 -1.4236 -1.6176
   29SAPC  H15C 3824   6.908   4.827   6.193  1.5101 -0.8585 -0.3180
   29SAPC   C11 3825   6.723   4.719   6.312 -0.1814  0.4749 -0.3200
   29SAPC  H11A 3826   6.824   4.680   6.339 -1.7705 -2.1429  2.0925
   29SAPC  H11B 3827   6.670   4.642   6.372 -0.5645  0.5578 -0.5516
   29SAPC     P 3828   6.608   4.899   6.467  0.3291  0.5952  0.0133
   29SAPC   O13 3829   6.665   5.008   6.544  0.1216  0.8936  0.6763
   29SAPC   O14 3830   6.476   4.929   6.408 -0.1029  0.0200  0.3407
   29SAPC   O12 3831   6.711   4.853   6.359  0.0001  0.1466  0.3595
   29SAPC   O11 3832   6.594   4.772   6.561 -0.4359  0.6085  0.3348
   29SAPC    C1 3833   6.701   4.722   6.650 -0.4435 -0.3963  0.5924
   29SAPC    HA 3834   6.697   4.618   6.690  0.4286 -0.1491  1.3525
   29SAPC    HB 3835   6.791   4.742   6.588  0.7486  1.9558  2.9806
   29SAPC    C2 3836   6.713   4.803   6.782  0.1940 -0.3501 -0.0830
   29SAPC    HS 3837   6.722   4.910   6.753  0.2105 -0.9461 -2.3603
   29SAPC   O21 3838   6.834   4.753   6.849 -0.3262 -0.0028 -0.8594
   29SAPC   C21 3839   6.928   4.848   6.858 -0.2789 -0.5338 -0.4573
   29SAPC   O22 3840   6.914   4.967   6.833  0.2851  0.0301  0.5390
   29SAPC   C22 3841   7.051   4.782   6.923  0.5206  0.5747 -0.5735
   29SAPC   H2R 3842   7.018   4.695   6.984  1.4543  1.2366  0.8894
   29SAPC   H2S 3843   7.104   4.732   6.839  0.5547 -1.0141  0.3673
   29SAPC    C3 3844   6.578   4.780   6.862 -0.9100  0.1818  0.9760
   29SAPC    HX 3845   6.565   4.670   6.860  0.8778 -0.0322  0.0142
   29SAPC    HY 3846   6.498   4.832   6.805  0.3834  0.1039 -0.9577
   29SAPC   O31 3847   6.571   4.818   7.003  0.3776  0.3234 -0.5116
   29SAPC   C31 3848   6.550   4.945   7.018  0.0435 -0.6379  0.5781
   29SAPC   O32 3849   6.559   5.031   6.931 -0.2113  0.3541 -0.1049
   29SAPC   C32 3850   6.522   4.990   7.166 -0.1965  0.3590  0.4565
   29SAPC   H2X 3851   6.412   4.999   7.179 -0.2543 -1.2689  1.1624
   29SAPC   H2Y 3852   6.555   5.096   7.173  2.3969 -0.4106  0.1543
   29SAPC   C23 3853   7.144   4.889   6.994 -0.5834  0.3233 -0.4049
   29SAPC   H3R 3854   7.151   4.972   6.920 -0.9604 -0.7042 -1.6175
   29SAPC   H3S 3855   7.246   4.854   7.022 -0.3092  1.4143 -0.0158
   29SAPC   C24 3856   7.074   4.940   7.124  0.0019 -0.4541 -0.3451
   29SAPC   H4R 3857   6.976   4.986   7.099 -0.2681 -1.9820 -2.2152
   29SAPC   H4S 3858   7.136   5.020   7.169 -1.5742  1.1724 -0.9956
   29SAPC   C25 3859   7.054   4.825   7.224  0.6313 -0.3880 -0.5452
   29SAPC   H5R 3860   6.958   4.773   7.216  0.8064 -0.6983 -0.6376
   29SAPC   C26 3861   7.133   4.797   7.323 -0.9827  0.7499 -0.4838
   29SAPC   H6R 3862   7.111   4.716   7.393 -0.8663  1.1077 -0.0288
   29SAPC   C27 3863   7.263   4.882   7.341 -0.1081 -0.0961 -0.2796
   29SAPC   H7R 3864   7.300   4.924   7.245 -0.8453  0.1539 -0.4608
   29SAPC   H7S 3865   7.349   4.815   7.365  0.6469  1.2526  0.8455
   29SAPC   C28 3866   7.252   4.989   7.441  0.3410 -0.5504  0.2672
   29SAPC   H8R 3867   7.261   5.087   7.392 -1.3597 -0.4689  0.1067
   29SAPC   C29 3868   7.241   4.979   7.575  0.2529  0.2612  0.0017
   29SAPC   H9R 3869   7.232   5.073   7.631 -0.9410 -0.2211  0.6392
   29SAPC  C210 3870   7.232   4.857   7.659  0.0449 -0.0756 -0.5686
   29SAPC  H10R 3871   7.300   4.879   7.744  1.3164  0.9149 -1.8334
   29SAPC  H10S 3872   7.274   4.769   7.606 -0.7876 -1.7463  1.4788
   29SAPC  C211 3873   7.089   4.808   7.694 -0.7228  0.0035 -0.1407
   29SAPC  H11R 3874   7.021   4.798   7.608  0.3159  0.7491 -1.0677
   29SAPC  C212 3875   7.043   4.783   7.815 -0.0089 -0.5074  0.4419
   29SAPC  H12R 3876   6.937   4.759   7.831 -0.2021 -1.4538 -1.9274
   29SAPC  C213 3877   7.120   4.785   7.947 -0.5991 -0.2003  0.3272
   29SAPC  H13R 3878   7.158   4.889   7.958 -1.1948 -0.1482  2.0289
   29SAPC  H13S 3879   7.207   4.718   7.932 -1.5692 -1.3958 -0.0483
   29SAPC  C214 3880   7.031   4.759   8.066 -0.0643  0.7634 -0.7118
   29SAPC  H14R 3881   6.999   4.654   8.062 -2.2006  1.4476 -2.6948
   29SAPC  C215 3882   7.003   4.843   8.167 -0.1205 -0.1387 -0.1375
   29SAPC  H15R 3883   6.935   4.806   8.245 -0.4473 -1.1350 -0.8921
   29SAPC  C216 3884   7.059   4.979   8.181 -1.4660 -0.0057  0.0321
   29SAPC  H16R 3885   7.053   5.030   8.082  0.2053  1.1064  0.4956
   29SAPC  H16S 3886   7.165   4.965   8.211 -1.8863 -1.7145  0.7950
   29SAPC  C217 3887   6.983   5.075   8.273  0.1463  0.1646  0.0079
   29SAPC  H17R 3888   6.878   5.078   8.235  0.4347 -1.0489 -0.9122
   29SAPC  H17S 3889   7.005   5.184   8.275  2.3598 -0.2590  0.1777
   29SAPC  C218 3890   6.969   5.023   8.419  0.3127  0.0522  0.2848
   29SAPC  H18R 3891   7.067   4.990   8.459  0.2758  0.2700  0.5572
   29SAPC  H18S 3892   6.902   4.935   8.419  2.4980 -1.6452 -0.0977
   29SAPC  C219 3893   6.914   5.139   8.511  0.3522 -0.0017  0.5755
   29SAPC  H19R 3894   6.828   5.100   8.571 -0.1718 -0.9709 -0.7670
   29SAPC  H19S 3895   6.876   5.220   8.446  1.1477 -0.6854 -0.7690
   29SAPC  C220 3896   7.015   5.178   8.616  0.0254  0.1140  0.2398
   29SAPC  H20R 3897   6.994   5.266   8.680 -2.4484 -0.7889  0.6876
   29SAPC  H20S 3898   7.101   5.217   8.557  2.5319  0.1732  3.7833
   29SAPC  H20T 3899   7.062   5.092   8.668 -1.2925 -0.8579 -0.1599
   29SAPC   C33 3900   6.578   4.896   7.280  0.2051  0.0227 -0.0189
   29SAPC   H3X 3901   6.689   4.896   7.273  0.1431  0.4264 -1.1223
   29SAPC   H3Y 3902   6.530   4.796   7.275  0.5871 -0.2212  1.0582
   29SAPC   C34 3903   6.548   4.948   7.423  0.0706  0.2706  0.0176
   29SAPC   H4X 3904   6.443   4.965   7.453 -0.0418  0.9668 -0.7713
   29SAPC   H4Y 3905   6.594   5.049   7.434  0.6669  0.0623 -0.5494
   29SAPC   C35 3906   6.604   4.849   7.525 -0.2278 -0.3495 -0.6010
   29SAPC   H5X 3907   6.712   4.839   7.503  0.0975 -0.8017  1.0842
   29SAPC   H5Y 3908   6.552   4.752   7.512  0.6094 -0.8477 -0.2898
   29SAPC   C36 3909   6.593   4.902   7.669 -0.4812 -0.3463 -0.5605
   29SAPC   H6X 3910   6.497   4.955   7.684  0.1443  0.5354  0.4125
   29SAPC   H6Y 3911   6.673   4.978   7.678 -1.7154  0.9178 -0.1574
   29SAPC   C37 3912   6.594   4.781   7.766 -0.2506  0.3922 -0.4668
   29SAPC   H7X 3913   6.686   4.720   7.755 -1.3357 -1.3216 -0.2344
   29SAPC   H7Y 3914   6.518   4.703   7.744 -0.1733 -0.9210  3.4936
   29SAPC   C38 3915   6.582   4.833   7.911  0.1001 -0.1721 -0.0533
   29SAPC   H8X 3916   6.485   4.885   7.925  1.8542  2.9418  1.0318
   29SAPC   H8Y 3917   6.666   4.900   7.936  0.1893  0.3685 -1.7129
   29SAPC   C39 3918   6.569   4.716   8.006 -0.2546 -0.2238 -0.4208
   29SAPC   H9X 3919   6.664   4.660   8.013  0.2015  0.5838 -0.1360
   29SAPC   H9Y 3920   6.487   4.645   7.979  0.3875 -1.0632 -0.1567
   29SAPC  C310 3921   6.555   4.767   8.146 -0.3001  0.0262 -0.1784
   29SAPC  H10X 3922   6.471   4.840   8.147  0.3844  0.8192  1.3246
   29SAPC  H10Y 3923   6.651   4.812   8.178  0.0684 -1.4352  0.8553
   29SAPC  C311 3924   6.512   4.648   8.234 -0.0644  0.0419 -0.3368
   29SAPC  H11X 3925   6.579   4.561   8.251  0.1136  0.2124 -0.1651
   29SAPC  H11Y 3926   6.414   4.614   8.195 -0.9947  1.8295  0.3806
   29SAPC  C312 3927   6.466   4.706   8.374 -0.3034 -0.0163 -0.2391
   29SAPC  H12X 3928   6.397   4.792   8.362 -1.2469 -0.5378  1.3639
   29SAPC  H12Y 3929   6.558   4.726   8.433 -1.0488  0.3871  0.7937
   29SAPC  C313 3930   6.377   4.598   8.447  0.1074 -0.4880  0.0867
   29SAPC  H13X 3931   6.441   4.515   8.482  0.5418  0.1474  0.8239
   29SAPC  H13Y 3932   6.295   4.560   8.383 -0.2282  0.7004 -0.2022
   29SAPC  C314 3933   6.301   4.654   8.579 -0.3132  1.2269 -0.1710
   29SAPC  H14X 3934   6.231   4.736   8.553  2.5201  4.2568  1.3843
   29SAPC  H14Y 3935   6.378   4.702   8.643  0.3267 -1.7551  1.4011
   29SAPC  C315 3936   6.219   4.550   8.656  0.6463  0.6422 -0.5867
   29SAPC  H15X 3937   6.277   4.460   8.685 -0.1768  0.5108  0.6966
   29SAPC  H15Y 3938   6.138   4.523   8.584 -0.7094  1.5702  0.5540
   29SAPC  C316 3939   6.160   4.618   8.788 -0.1024 -0.3401 -0.5214
   29SAPC  H16X 3940   6.096   4.703   8.755  0.7908  1.0528  1.2934
   29SAPC  H16Y 3941   6.249   4.656   8.843  0.1143 -1.0088 -0.4073
   29SAPC  C317 3942   6.082   4.517   8.874 -0.0605 -0.5374  0.9339
   29SAPC  H17X 3943   5.997   4.473   8.819  0.2939  1.6032 -1.4170
   29SAPC  H17Y 3944   6.040   4.577   8.957 -2.5139 -0.2300 -0.5017
   29SAPC  C318 3945   6.165   4.405   8.932 -0.3311 -0.4347 -0.1509
   29SAPC  H18X 3946   6.239   4.441   9.007 -2.0262 -0.3777  1.5213
   29SAPC  H18Y 3947   6.217   4.342   8.857 -0.5973  0.3396 -1.0076
   29SAPC  H18Z 3948   6.098   4.336   8.987 -0.4036 -0.3067 -0.0786
   30SAPC     N 3949   1.047   5.457   6.242 -0.6683  0.4611 -0.5139
   30SAPC   C12 3950   1.136   5.350   6.170  0.6669 -0.9922  0.1122
   30SAPC  H12A 3951   1.070   5.296   6.104 -0.1590  0.5700 -0.3796
   30SAPC  H12B 3952   1.177   5.284   6.245  0.4167  0.2027  1.3308
   30SAPC   C13 3953   0.936   5.388   6.311  0.3287 -0.4615 -0.3566
   30SAPC  H13A 3954   0.862   5.356   6.239 -2.0281 -0.6386  2.0733
   30SAPC  H13B 3955   0.962   5.299   6.367 -2.2571 -0.6708  0.5897
   30SAPC  H13C 3956   0.893   5.461   6.379 -1.0562  1.4156 -3.1224
   30SAPC   C14 3957   1.128   5.525   6.351 -0.3766  0.8563 -0.7119
   30SAPC  H14A 3958   1.068   5.597   6.404  1.4696  1.9214 -0.0288
   30SAPC  H14B 3959   1.150   5.442   6.416 -2.2444 -1.1112 -2.4957
   30SAPC  H14C 3960   1.216   5.564   6.301  0.4810 -0.1484 -0.0145
   30SAPC   C15 3961   0.999   5.556   6.141 -0.0079  0.0128 -0.0906
   30SAPC  H15A 3962   0.910   5.611   6.168 -0.5193 -1.1478  0.6057
   30SAPC  H15B 3963   1.076   5.627   6.112  0.2411 -0.8554 -1.6035
   30SAPC  H15C 3964   0.985   5.505   6.047 -0.3745 -0.0018 -0.0259
   30SAPC   C11 3965   1.248   5.401   6.080  0.2548 -0.1236 -0.4957
   30SAPC  H11A 3966   1.210   5.488   6.021 -1.1501  0.0263  0.6070
   30SAPC  H11B 3967   1.285   5.329   6.004  0.7303  1.3015 -1.6589
   30SAPC     P 3968   1.489   5.373   6.160  0.3560 -0.1299  0.0297
   30SAPC   O13 3969   1.454   5.228   6.177  0.8703  0.1850  0.0294
   30SAPC   O14 3970   1.583   5.408   6.050  0.0200  0.2800  0.0397
   30SAPC   O12 3971   1.354   5.455   6.158  0.2195  0.9027 -0.2737
   30SAPC   O11 3972   1.556   5.428   6.287  0.7444  0.3071 -0.3889
   30SAPC    C1 3973   1.541   5.565   6.313  0.2918  0.2020 -0.2491
   30SAPC    HA 3974   1.625   5.620   6.264 -0.4225  0.2614 -1.4085
   30SAPC    HB 3975   1.453   5.613   6.266 -0.5390 -0.4546  0.6454
   30SAPC    C2 3976   1.542   5.585   6.466 -0.4398  0.1304  0.4428
   30SAPC    HS 3977   1.642   5.553   6.500 -1.1388 -0.5838  1.8540
   30SAPC   O21 3978   1.439   5.500   6.522  0.4328  0.5698 -0.3654
   30SAPC   C21 3979   1.484   5.392   6.590 -0.1595 -0.0785  0.3282
   30SAPC   O22 3980   1.603   5.353   6.587 -0.6826 -0.3505 -0.1109
   30SAPC   C22 3981   1.362   5.326   6.668  0.3635 -0.8307 -0.7763
   30SAPC   H2R 3982   1.289   5.407   6.689 -0.0928 -1.0032 -1.6529
   30SAPC   H2S 3983   1.312   5.264   6.591  1.3882 -2.2743 -0.3072
   30SAPC    C3 3984   1.515   5.731   6.519  0.7722  0.5760 -0.3188
   30SAPC    HX 3985   1.408   5.745   6.492  0.5334 -1.2109 -0.3602
   30SAPC    HY 3986   1.573   5.803   6.457 -1.9864  4.5859  1.5507
   30SAPC   O31 3987   1.560   5.736   6.660 -0.2944 -0.2246  0.4765
   30SAPC   C31 3988   1.465   5.740   6.754 -0.3363 -0.2840 -0.0308
   30SAPC   O32 3989   1.347   5.744   6.725  0.3796  0.0749 -0.1389
   30SAPC   C32 3990   1.528   5.758   6.887  0.3235  0.0691 -0.3694
   30SAPC   H2X 3991   1.573   5.858   6.903 -1.3059  0.3806  2.5533
   30SAPC   H2Y 3992   1.601   5.675   6.902  0.5937  0.4946  0.7876
   30SAPC   C23 3993   1.406   5.236   6.784 -0.0197 -0.1012  0.2777
   30SAPC   H3R 3994   1.489   5.170   6.749  0.5467  0.1942  1.0555
   30SAPC   H3S 3995   1.328   5.160   6.809  2.1761 -1.9771  1.6222
   30SAPC   C24 3996   1.446   5.315   6.911 -0.1592  0.2487 -0.1413
   30SAPC   H4R 3997   1.525   5.385   6.877  2.0704 -1.9424  0.3717
   30SAPC   H4S 3998   1.490   5.238   6.978  0.1654 -1.0112 -1.7694
   30SAPC   C25 3999   1.324   5.388   6.962 -0.7524  1.3087 -0.6247
   30SAPC   H5R 4000   1.277   5.461   6.895 -1.7940  1.3682  0.1649
   30SAPC   C26 4001   1.285   5.375   7.092  0.2629  0.2511 -0.8672
   30SAPC   H6R 4002   1.204   5.447   7.112 -0.2644 -0.3097 -0.9586
   30SAPC   C27 4003   1.333   5.284   7.204  0.3773 -0.0252  0.3591
   30SAPC   H7R 4004   1.408   5.210   7.170  1.5415  1.2472  0.1266
   30SAPC   H7S 4005   1.247   5.225   7.244 -1.0264 -0.6966 -3.4540
   30SAPC   C28 4006   1.388   5.377   7.314  0.7493 -0.5637  0.9098
   30SAPC   H8R 4007   1.422   5.474   7.275 -1.9491 -0.2779 -0.8370
   30SAPC   C29 4008   1.389   5.353   7.443  0.4486 -0.2266  0.9562
   30SAPC   H9R 4009   1.432   5.424   7.514  1.0526 -0.0627  0.4284
   30SAPC  C210 4010   1.336   5.224   7.509 -0.6793 -0.6935 -0.2120
   30SAPC  H10R 4011   1.335   5.140   7.436 -0.3602 -0.3069 -0.6638
   30SAPC  H10S 4012   1.229   5.227   7.539 -1.0858  0.0929 -1.6966
   30SAPC  C211 4013   1.427   5.170   7.617  0.1907 -0.5895  0.1206
   30SAPC  H11R 4014   1.528   5.144   7.581  0.1991  1.1815 -1.2136
   30SAPC  C212 4015   1.392   5.144   7.745  0.2905 -0.6470  0.3384
   30SAPC  H12R 4016   1.473   5.101   7.806  0.5258 -1.8531 -0.8171
   30SAPC  C213 4017   1.259   5.163   7.818 -0.2280 -0.4338 -0.0251
   30SAPC  H13R 4018   1.173   5.173   7.748 -1.6075 -0.5783  1.6094
   30SAPC  H13S 4019   1.258   5.265   7.863 -1.7173 -0.0107 -0.9544
   30SAPC  C214 4020   1.227   5.049   7.910  0.0342 -0.3093  0.0905
   30SAPC  H14R 4021   1.278   4.959   7.873 -2.1145 -1.5294 -0.0163
   30SAPC  C215 4022   1.174   5.044   8.033  0.4006  0.4504 -0.1565
   30SAPC  H15R 4023   1.168   4.947   8.085  0.7618  1.7432  2.3304
   30SAPC  C216 4024   1.120   5.159   8.112 -0.6234 -0.4514 -0.1931
   30SAPC  H16R 4025   1.010   5.161   8.101 -0.6203  2.2658  0.1280
   30SAPC  H16S 4026   1.144   5.258   8.067 -0.7145 -0.7768 -0.9811
   30SAPC  C217 4027   1.165   5.154   8.262  0.0832  0.7777  0.4682
   30SAPC  H17R 4028   1.132   5.252   8.302 -1.6582  0.3380  0.1526
   30SAPC  H17S 4029   1.276   5.146   8.269 -0.0113  0.7343  2.0828
   30SAPC  C218 4030   1.103   5.049   8.355 -0.4079  0.1818  0.6616
   30SAPC  H18R 4031   1.141   4.945   8.344  0.8535  0.8437 -1.5566
   30SAPC  H18S 4032   0.995   5.036   8.334  0.0363  0.8745 -2.1914
   30SAPC  C219 4033   1.121   5.098   8.498 -0.3881 -0.4388  1.3193
   30SAPC  H19R 4034   1.090   5.205   8.500  1.6746  0.2053  0.0864
   30SAPC  H19S 4035   1.230   5.098   8.519  0.0954  2.1339 -0.9212
   30SAPC  C220 4036   1.048   5.009   8.594  0.0905 -0.1291 -0.0811
   30SAPC  H20R 4037   1.063   5.009   8.704 -0.8569 -2.3973  0.0871
   30SAPC  H20S 4038   1.057   4.901   8.566 -0.3664 -0.5877  1.5048
   30SAPC  H20T 4039   0.941   5.036   8.578  0.0593  0.0383  0.4188
   30SAPC   C33 4040   1.422   5.760   6.999  0.2358  0.6786 -0.5152
   30SAPC   H3X 4041   1.348   5.684   6.966  1.2984 -0.1257 -1.0799
   30SAPC   H3Y 4042   1.366   5.855   7.009 -0.5839  0.3673 -2.0328
   30SAPC   C34 4043   1.471   5.735   7.139  0.3076 -0.1900  0.0734
   30SAPC   H4X 4044   1.557   5.801   7.160 -0.5426  0.9709 -0.0668
   30SAPC   H4Y 4045   1.504   5.629   7.147  0.0652 -0.6589 -3.9691
   30SAPC   C35 4046   1.370   5.763   7.247  0.5302 -0.9809 -0.1819
   30SAPC   H5X 4047   1.298   5.679   7.244  0.4268 -0.8704 -0.8682
   30SAPC   H5Y 4048   1.321   5.858   7.216  1.8269 -0.6529 -1.3251
   30SAPC   C36 4049   1.428   5.774   7.376 -0.2788 -0.1905 -0.6779
   30SAPC   H6X 4050   1.498   5.859   7.389 -1.7858  0.9232  0.4796
   30SAPC   H6Y 4051   1.483   5.681   7.401 -0.1440  0.4176  1.4012
   30SAPC   C37 4052   1.325   5.799   7.483  0.9103  0.1712 -0.0255
   30SAPC   H7X 4053   1.239   5.729   7.477  1.5753 -0.7155  0.6278
   30SAPC   H7Y 4054   1.271   5.895   7.472 -3.2229 -1.9148  0.9200
   30SAPC   C38 4055   1.383   5.792   7.626  0.0415 -1.1187 -0.5109
   30SAPC   H8X 4056   1.301   5.823   7.694  1.0258  1.4099 -0.4172
   30SAPC   H8Y 4057   1.462   5.870   7.631 -0.5449 -0.6107  0.7635
   30SAPC   C39 4058   1.453   5.661   7.668  0.3331 -0.2087  0.9083
   30SAPC   H9X 4059   1.545   5.651   7.606 -1.8843 -1.8458 -2.3020
   30SAPC   H9Y 4060   1.381   5.583   7.635  1.2323  0.5455 -3.0727
   30SAPC  C310 4061   1.481   5.654   7.816  0.2161  0.4628  0.7221
   30SAPC  H10X 4062   1.508   5.755   7.852  2.5871  0.0401  0.2053
   30SAPC  H10Y 4063   1.565   5.586   7.837 -0.3513  0.2234  2.2995
   30SAPC  C311 4064   1.365   5.592   7.898 -0.1821  0.7344  0.0140
   30SAPC  H11X 4065   1.340   5.491   7.860  0.0987  0.2074  1.2152
   30SAPC  H11Y 4066   1.269   5.647   7.884  0.3713  1.4063 -1.2178
   30SAPC  C312 4067   1.399   5.580   8.046 -0.7291  0.1883  1.0927
   30SAPC  H12X 4068   1.431   5.684   8.065 -2.2298  0.4393  2.3455
   30SAPC  H12Y 4069   1.481   5.507   8.060  0.6576  1.6369  0.5949
   30SAPC  C313 4070   1.285   5.549   8.142  0.6559 -0.7612 -0.9111
   30SAPC  H13X 4071   1.245   5.447   8.120 -0.4852 -1.0696  2.2566
   30SAPC  H13Y 4072   1.216   5.633   8.120  0.8818  0.0282  1.3008
   30SAPC  C314 4073   1.320   5.559   8.292  0.2000 -0.0987  0.3136
   30SAPC  H14X 4074   1.365   5.657   8.320  0.6427  0.3011 -1.7253
   30SAPC  H14Y 4075   1.384   5.473   8.322  0.8810  0.6420  1.0142
   30SAPC  C315 4076   1.196   5.568   8.388 -0.7865  0.0784  0.9849
   30SAPC  H15X 4077   1.152   5.466   8.377  1.1679 -0.8356  1.3422
   30SAPC  H15Y 4078   1.121   5.645   8.364  0.9185  1.5976  0.4381
   30SAPC  C316 4079   1.237   5.598   8.523  0.4288 -0.0235 -0.3063
   30SAPC  H16X 4080   1.329   5.548   8.561 -1.1454 -2.3896  0.4854
   30SAPC  H16Y 4081   1.152   5.566   8.586 -0.9548 -0.2831 -2.2421
   30SAPC  C317 4082   1.261   5.749   8.562  0.1615  0.1317 -0.0743
   30SAPC  H17X 4083   1.179   5.816   8.529  1.3024  0.4174 -2.5086
   30SAPC  H17Y 4084   1.349   5.790   8.507 -0.7152 -0.6620 -2.1284
   30SAPC  C318 4085   1.280   5.771   8.708 -0.1163 -0.0506  0.2454
   30SAPC  H18X 4086   1.378   5.729   8.739  0.5883  1.7665  0.5814
   30SAPC  H18Y 4087   1.199   5.715   8.759 -0.0329  0.5792  1.0792
   30SAPC  H18Z 4088   1.271   5.873   8.752 -0.8892 -0.3521  0.7897
   31SAPC     N 4089   2.549   5.575   6.190  0.2661  0.4228  0.5862
   31SAPC   C12 4090   2.506   5.621   6.329  0.2772  0.0877  0.2687
   31SAPC  H12A 4091   2.579   5.593   6.403  1.1083 -0.7201 -0.8297
   31SAPC  H12B 4092   2.412   5.573   6.353 -0.1786  0.0486 -1.5091
   31SAPC   C13 4093   2.646   5.676   6.124 -0.7047  0.3986  0.0257
   31SAPC  H13A 4094   2.672   5.640   6.026  3.1172  2.3614  0.2195
   31SAPC  H13B 4095   2.620   5.780   6.117  2.3450  1.0338 -3.4536
   31SAPC  H13C 4096   2.742   5.668   6.175 -1.5284  0.4579  1.6065
   31SAPC   C14 4097   2.599   5.434   6.182  0.0132  0.0763  0.6580
   31SAPC  H14A 4098   2.682   5.413   6.248  0.0688  2.2966  1.3546
   31SAPC  H14B 4099   2.521   5.361   6.197 -0.7060  1.0424  1.6408
   31SAPC  H14C 4100   2.643   5.415   6.085  1.3675 -0.9822  1.4508
   31SAPC   C15 4101   2.421   5.593   6.104 -1.1086 -0.0961  0.2130
   31SAPC  H15A 4102   2.444   5.585   5.998  1.2549  1.8536  0.5336
   31SAPC  H15B 4103   2.341   5.523   6.124 -1.9060  0.7083 -0.1471
   31SAPC  H15C 4104   2.380   5.689   6.131 -3.2171 -0.4531 -1.5924
   31SAPC   C11 4105   2.474   5.778   6.337  0.3900  0.2715 -0.1411
   31SAPC  H11A 4106   2.418   5.800   6.430 -0.7313  0.8275 -0.9348
   31SAPC  H11B 4107   2.387   5.808   6.275 -0.9760 -0.9518  1.1802
   31SAPC     P 4108   2.703   5.871   6.431 -0.1777  0.0258  0.5254
   31SAPC   O13 4109   2.832   5.854   6.357  0.3024 -0.0647 -0.3070
   31SAPC   O14 4110   2.689   5.996   6.510 -0.3634  0.1668 -0.5170
   31SAPC   O12 4111   2.589   5.865   6.326 -0.2380  0.5530 -0.1160
   31SAPC   O11 4112   2.692   5.749   6.530 -0.5879  0.3817  0.3663
   31SAPC    C1 4113   2.598   5.737   6.642  0.1705 -0.1620  0.0344
   31SAPC    HA 4114   2.529   5.823   6.653  0.4286  0.2014 -1.0546
   31SAPC    HB 4115   2.532   5.649   6.630 -2.8013  2.1230 -1.2176
   31SAPC    C2 4116   2.681   5.716   6.774  0.7440 -0.3143  0.0282
   31SAPC    HS 4117   2.731   5.618   6.768  4.0188  1.2871  0.3442
   31SAPC   O21 4118   2.578   5.732   6.880 -0.2350 -0.5121  0.6322
   31SAPC   C21 4119   2.586   5.636   6.972  0.0096 -0.1299 -0.6604
   31SAPC   O22 4120   2.679   5.560   6.989 -0.4366 -0.1217 -0.1320
   31SAPC   C22 4121   2.453   5.632   7.052  0.4531  0.0896  0.1108
   31SAPC   H2R 4122   2.433   5.736   7.085  2.2013 -0.0794  1.8362
   31SAPC   H2S 4123   2.375   5.633   6.973 -0.1348  3.0035  0.6741
   31SAPC    C3 4124   2.794   5.819   6.790 -0.6119 -0.2947  0.3189
   31SAPC    HX 4125   2.848   5.806   6.693 -0.8313  0.6815  0.0612
   31SAPC    HY 4126   2.850   5.781   6.878 -2.5284 -0.5890  1.4250
   31SAPC   O31 4127   2.751   5.958   6.800  0.4250  0.0842  0.2321
   31SAPC   C31 4128   2.819   6.058   6.755  0.0437 -0.2161  0.1422
   31SAPC   O32 4129   2.932   6.045   6.701 -0.3654 -0.3087  0.0280
   31SAPC   C32 4130   2.756   6.192   6.796 -0.2592  0.7194  0.4691
   31SAPC   H2X 4131   2.649   6.174   6.818 -0.0255 -0.9613  0.3469
   31SAPC   H2Y 4132   2.755   6.254   6.704 -0.8219  2.9756  1.9544
   31SAPC   C23 4133   2.438   5.523   7.160 -0.3885 -0.5355  0.4672
   31SAPC   H3R 4134   2.476   5.426   7.122  0.1064 -0.4536  0.7402
   31SAPC   H3S 4135   2.330   5.515   7.182 -0.4487  0.9084  0.7890
   31SAPC   C24 4136   2.516   5.548   7.291 -0.0325 -0.2259 -0.4865
   31SAPC   H4R 4137   2.621   5.563   7.259 -0.3724  0.3782 -1.3543
   31SAPC   H4S 4138   2.512   5.447   7.337 -0.9060 -0.8840 -1.9815
   31SAPC   C25 4139   2.456   5.649   7.384 -0.1923 -0.4128  1.1034
   31SAPC   H5R 4140   2.380   5.711   7.335 -0.2507 -0.7956  0.7115
   31SAPC   C26 4141   2.479   5.663   7.513  0.6819  0.4849 -0.4885
   31SAPC   H6R 4142   2.418   5.738   7.566 -0.6588 -0.6771 -0.3816
   31SAPC   C27 4143   2.562   5.574   7.610  0.0272  0.4452  0.0149
   31SAPC   H7R 4144   2.520   5.471   7.615 -3.1079  1.5654 -2.1269
   31SAPC   H7S 4145   2.536   5.616   7.709 -0.5430  2.7522 -1.0944
   31SAPC   C28 4146   2.714   5.561   7.581  0.2793  0.0795 -0.0511
   31SAPC   H8R 4147   2.766   5.578   7.485  0.2789  1.1753  0.1370
   31SAPC   C29 4148   2.796   5.533   7.689  0.8488 -0.3555  0.1569
   31SAPC   H9R 4149   2.905   5.526   7.674  0.5816 -2.1915 -1.0915
   31SAPC  C210 4150   2.756   5.529   7.833  0.8835 -0.0055 -0.9151
   31SAPC  H10R 4151   2.664   5.468   7.843 -0.8403  2.7201  0.3728
   31SAPC  H10S 4152   2.721   5.631   7.859 -0.5954 -0.9970  1.1409
   31SAPC  C211 4153   2.852   5.472   7.940 -0.2143  0.7997  0.6423
   31SAPC  H11R 4154   2.919   5.391   7.907 -0.7251  0.0299  1.4669
   31SAPC  C212 4155   2.865   5.501   8.074 -0.1005  0.2004 -0.4861
   31SAPC  H12R 4156   2.935   5.436   8.127 -0.2934  0.1521 -0.2856
   31SAPC  C213 4157   2.795   5.602   8.167 -0.1412  0.0158  0.1671
   31SAPC  H13R 4158   2.754   5.544   8.252  0.4214 -1.3514 -0.4720
   31SAPC  H13S 4159   2.704   5.637   8.114 -0.0410  1.5775  1.0163
   31SAPC  C214 4160   2.878   5.716   8.220  0.6855 -0.9081  0.5118
   31SAPC  H14R 4161   2.979   5.739   8.181 -0.1741  3.3780  0.5400
   31SAPC  C215 4162   2.832   5.809   8.311  0.0785  0.3447  0.7062
   31SAPC  H15R 4163   2.892   5.897   8.338  1.5790 -0.7171  0.8558
   31SAPC  C216 4164   2.696   5.805   8.380  0.6193 -0.0856 -0.0571
   31SAPC  H16R 4165   2.726   5.805   8.487 -1.8917 -1.5998  0.6858
   31SAPC  H16S 4166   2.629   5.718   8.367  0.0787  0.3034  0.1328
   31SAPC  C217 4167   2.607   5.926   8.344 -0.0441  0.3894  0.3676
   31SAPC  H17R 4168   2.577   5.917   8.237  3.2740  2.2787 -0.7886
   31SAPC  H17S 4169   2.667   6.019   8.355  0.7121  0.0371 -0.6608
   31SAPC  C218 4170   2.477   5.926   8.423  0.2020  0.0470  1.1239
   31SAPC  H18R 4171   2.497   5.896   8.528  0.3935 -2.0596  0.5173
   31SAPC  H18S 4172   2.412   5.845   8.383  2.0286 -0.3457 -1.1714
   31SAPC  C219 4173   2.407   6.058   8.407 -0.4310 -0.5166  0.3202
   31SAPC  H19R 4174   2.420   6.092   8.302 -0.1122  1.5068  0.9974
   31SAPC  H19S 4175   2.448   6.136   8.475  0.4384 -0.3886 -0.3529
   31SAPC  C220 4176   2.258   6.046   8.443 -0.1626  0.3283  0.4490
   31SAPC  H20R 4177   2.244   6.016   8.549  0.6903 -1.4152  0.0778
   31SAPC  H20S 4178   2.193   5.975   8.387 -0.2377  0.5589  0.2417
   31SAPC  H20T 4179   2.204   6.143   8.438 -0.7089 -0.0022 -0.0917
   31SAPC   C33 4180   2.829   6.267   6.909  0.3695  0.5362  0.1780
   31SAPC   H3X 4181   2.813   6.375   6.887  0.7886  0.0184 -2.9382
   31SAPC   H3Y 4182   2.934   6.231   6.905 -0.3394 -1.7376  1.5428
   31SAPC   C34 4183   2.782   6.237   7.052  0.4841 -0.3416  0.1024
   31SAPC   H4X 4184   2.674   6.260   7.066  0.1399 -0.7950 -1.6677
   31SAPC   H4Y 4185   2.829   6.299   7.131  1.2886  0.1523 -0.7643
   31SAPC   C35 4186   2.806   6.094   7.097  0.1485  0.5466 -0.3249
   31SAPC   H5X 4187   2.913   6.076   7.074 -0.0751  0.8180 -1.6024
   31SAPC   H5Y 4188   2.751   6.010   7.051  0.7710  0.3534 -0.7183
   31SAPC   C36 4189   2.797   6.069   7.252 -0.9759 -0.0269 -0.0793
   31SAPC   H6X 4190   2.703   6.103   7.300 -0.1757 -1.2594  2.4723
   31SAPC   H6Y 4191   2.878   6.127   7.300 -1.6817  0.7741  0.1661
   31SAPC   C37 4192   2.826   5.913   7.281 -0.2566  0.3318 -0.5309
   31SAPC   H7X 4193   2.900   5.871   7.208  0.6037  1.2487 -0.1976
   31SAPC   H7Y 4194   2.727   5.867   7.260 -0.6624  1.0138 -0.1094
   31SAPC   C38 4195   2.865   5.885   7.429 -0.2055 -0.0516  0.0850
   31SAPC   H8X 4196   2.950   5.952   7.454 -1.8086  1.2862  2.1253
   31SAPC   H8Y 4197   2.889   5.778   7.451  3.0591  0.7850  0.9300
   31SAPC   C39 4198   2.765   5.924   7.537  0.2720  0.6069 -0.1088
   31SAPC   H9X 4199   2.680   5.853   7.530  1.0340 -0.5630  2.0950
   31SAPC   H9Y 4200   2.731   6.028   7.518 -0.1141  0.5490  0.2692
   31SAPC  C310 4201   2.821   5.921   7.682 -0.4379  0.7337  0.6247
   31SAPC  H10X 4202   2.919   5.973   7.687 -0.1402  0.2333  0.0525
   31SAPC  H10Y 4203   2.839   5.813   7.702  1.3255  1.1668  1.4454
   31SAPC  C311 4204   2.723   5.968   7.783 -0.7256  0.3584  0.4147
   31SAPC  H11X 4205   2.633   5.903   7.774 -0.1294 -0.3590 -0.4440
   31SAPC  H11Y 4206   2.674   6.065   7.760  2.6182  2.1420  0.5470
   31SAPC  C312 4207   2.774   5.974   7.930 -0.8319 -0.9191  0.4448
   31SAPC  H12X 4208   2.817   5.881   7.972 -0.9017 -1.4037 -0.5372
   31SAPC  H12Y 4209   2.690   6.008   7.995 -0.4785 -0.2069  0.5302
   31SAPC  C313 4210   2.895   6.076   7.947  0.2396 -0.1919 -0.1446
   31SAPC  H13X 4211   2.870   6.181   7.920 -1.6181  0.1401  2.6674
   31SAPC  H13Y 4212   2.980   6.029   7.892  0.6662 -1.1193  1.2796
   31SAPC  C314 4213   2.932   6.082   8.095 -0.4418  0.0394 -0.0343
   31SAPC  H14X 4214   2.947   5.977   8.126  0.1657  0.5573  1.4659
   31SAPC  H14Y 4215   2.851   6.120   8.160  0.2987 -0.5281  1.2425
   31SAPC  C315 4216   3.069   6.149   8.117 -0.5394 -0.7657 -0.6351
   31SAPC  H15X 4217   3.065   6.259   8.099  1.3728 -0.3459  1.2333
   31SAPC  H15Y 4218   3.147   6.121   8.044 -0.6405  0.1417 -1.1055
   31SAPC  C316 4219   3.140   6.125   8.256 -0.3379  0.6119  0.0066
   31SAPC  H16X 4220   3.066   6.146   8.336 -0.0036  0.7748  0.2728
   31SAPC  H16Y 4221   3.234   6.182   8.266 -0.5694  1.0027 -0.0249
   31SAPC  C317 4222   3.184   5.978   8.275 -0.5539  0.6747  0.8669
   31SAPC  H17X 4223   3.255   5.948   8.196 -1.8319 -0.5150  0.1471
   31SAPC  H17Y 4224   3.094   5.913   8.271 -0.4722  0.6180 -0.0903
   31SAPC  C318 4225   3.254   5.946   8.404 -0.0590  0.2171 -0.1806
   31SAPC  H18X 4226   3.341   6.014   8.418 -1.1641  1.9438 -1.4995
   31SAPC  H18Y 4227   3.288   5.841   8.395 -2.1819 -0.6391  1.3428
   31SAPC  H18Z 4228   3.185   5.946   8.491  0.2440  1.6888  0.0670
   32SAPC     N 4229   5.196   0.626   5.857  0.3857 -0.3274  0.3781
   32SAPC   C12 4230   5.106   0.499   5.859 -0.5709 -0.0615  0.8673
   32SAPC  H12A 4231   5.169   0.413   5.843 -0.1391  0.8614 -3.0254
   32SAPC  H12B 4232   5.046   0.517   5.771  0.8699  2.9517  0.4288
   32SAPC   C13 4233   5.300   0.616   5.960 -0.7877 -0.1798  0.3973
   32SAPC  H13A 4234   5.353   0.703   5.996  1.7830 -2.1974  1.6856
   32SAPC  H13B 4235   5.250   0.595   6.053  1.4293  0.6413  1.8261
   32SAPC  H13C 4236   5.371   0.536   5.945 -1.9536 -0.9321 -1.1594
   32SAPC   C14 4237   5.271   0.636   5.726  1.1765 -0.0793  0.3028
   32SAPC  H14A 4238   5.343   0.716   5.729  1.7734 -0.5552 -1.0124
   32SAPC  H14B 4239   5.323   0.545   5.698 -0.7219 -0.5296 -1.9334
   32SAPC  H14C 4240   5.197   0.651   5.649  1.5559 -0.2887 -0.1010
   32SAPC   C15 4241   5.114   0.754   5.872  0.1850 -0.4737  0.4048
   32SAPC  H15A 4242   5.170   0.846   5.877 -1.8264  0.7580  0.7555
   32SAPC  H15B 4243   5.037   0.772   5.800 -0.3633  0.2734  1.1752
   32SAPC  H15C 4244   5.061   0.751   5.966  1.1114 -0.9979  0.9290
   32SAPC   C11 4245   5.008   0.466   5.979 -0.0971  0.6328  0.5062
   32SAPC  H11A 4246   4.943   0.379   5.956  3.1492 -1.0496 -2.7908
   32SAPC  H11B 4247   4.933   0.548   5.984 -2.8887 -1.8946  2.1344
   32SAPC     P 4248   5.131   0.313   6.135 -0.2575 -0.0612 -0.3190
   32SAPC   O13 4249   5.185   0.235   6.020  0.2699  0.0726  1.1797
   32SAPC   O14 4250   5.235   0.344   6.237 -0.1253 -0.2229 -0.4780
   32SAPC   O12 4251   5.081   0.452   6.097  0.0845 -0.7814  0.0587
   32SAPC   O11 4252   5.010   0.236   6.196 -0.3632 -0.4901  0.7132
   32SAPC    C1 4253   4.889   0.298   6.235  0.9822  0.0309  0.5166
   32SAPC    HA 4254   4.900   0.408   6.226  0.5030 -0.1012 -1.9096
   32SAPC    HB 4255   4.809   0.275   6.161  1.5312  1.9000 -0.6680
   32SAPC    C2 4256   4.833   0.254   6.375 -0.1582 -0.9008  0.1449
   32SAPC    HS 4257   4.733   0.303   6.381 -0.3862 -1.4217  0.7390
   32SAPC   O21 4258   4.923   0.279   6.484  0.3287  0.1703  0.5338
   32SAPC   C21 4259   4.934   0.405   6.537  0.1278  0.9218  1.4910
   32SAPC   O22 4260   4.860   0.496   6.504  0.0533 -0.1989  0.2047
   32SAPC   C22 4261   5.020   0.395   6.664  0.1054  0.0703 -0.3667
   32SAPC   H2R 4262   5.094   0.314   6.647 -0.2689 -0.5808  1.0367
   32SAPC   H2S 4263   5.077   0.487   6.685  0.1023 -0.4196  1.8918
   32SAPC    C3 4264   4.788   0.108   6.370 -0.4175  0.5899 -0.6544
   32SAPC    HX 4265   4.876   0.050   6.336  2.0643  3.4185  0.6380
   32SAPC    HY 4266   4.712   0.087   6.293 -0.7264 -0.6451 -0.0121
   32SAPC   O31 4267   4.747   0.050   6.496  0.1152 -0.0937 -0.0024
   32SAPC   C31 4268   4.771  -0.085   6.519 -0.2323 -0.2745  0.6892
   32SAPC   O32 4269   4.826  -0.154   6.432 -0.1698 -0.2478 -0.3436
   32SAPC   C32 4270   4.740  -0.127   6.656  0.5598  0.5588  0.5455
   32SAPC   H2X 4271   4.772  -0.233   6.662  0.2859  0.4429 -0.0053
   32SAPC   H2Y 4272   4.631  -0.138   6.674  0.6499 -1.3003  0.0819
   32SAPC   C23 4273   4.934   0.353   6.790  0.1900 -0.6210  0.7966
   32SAPC   H3R 4274   4.905   0.247   6.770  0.2041 -0.6143  0.7398
   32SAPC   H3S 4275   4.845   0.419   6.797  0.3200 -0.2757 -0.6614
   32SAPC   C24 4276   5.010   0.361   6.921 -0.0792 -0.4593 -0.9363
   32SAPC   H4R 4277   5.089   0.438   6.910 -0.5914  0.0133 -1.3173
   32SAPC   H4S 4278   5.059   0.261   6.924  0.0873 -0.4363 -2.5115
   32SAPC   C25 4279   4.922   0.398   7.032  0.0496 -0.4203 -0.2542
   32SAPC   H5R 4280   4.862   0.490   7.020  0.2657  0.2808  3.2938
   32SAPC   C26 4281   4.899   0.331   7.152 -0.0480  0.3620  0.3057
   32SAPC   H6R 4282   4.828   0.378   7.221 -2.1629 -1.4515 -0.5938
   32SAPC   C27 4283   4.964   0.204   7.198  0.3814  0.1431  0.0985
   32SAPC   H7R 4284   4.990   0.145   7.107 -1.0118 -2.8591  1.5837
   32SAPC   H7S 4285   4.892   0.138   7.250  0.6754 -1.9275 -2.0531
   32SAPC   C28 4286   5.085   0.210   7.283 -0.0139 -0.2803 -0.1161
   32SAPC   H8R 4287   5.182   0.217   7.231 -0.5230  0.5112 -0.9864
   32SAPC   C29 4288   5.093   0.197   7.416 -0.3975 -0.3909  0.0224
   32SAPC   H9R 4289   5.189   0.209   7.470 -0.4544  0.7519 -0.1027
   32SAPC  C210 4290   4.984   0.184   7.522  0.2558  0.4339  0.7818
   32SAPC  H10R 4291   4.970   0.077   7.550  0.9615  0.9212  3.0543
   32SAPC  H10S 4292   4.886   0.212   7.477 -0.5409  0.6006  2.5828
   32SAPC  C211 4293   4.994   0.280   7.641 -0.1091 -0.5336  0.1758
   32SAPC  H11R 4294   5.040   0.377   7.616  1.1950 -1.1976 -0.0984
   32SAPC  C212 4295   4.968   0.255   7.773 -0.4218 -0.0466 -0.0395
   32SAPC  H12R 4296   4.991   0.337   7.842 -0.5733  0.1248 -0.1893
   32SAPC  C213 4297   4.929   0.129   7.842  0.3541  0.5343 -0.1855
   32SAPC  H13R 4298   4.960   0.138   7.948 -0.5100  3.7174 -0.1599
   32SAPC  H13S 4299   4.998   0.056   7.795  0.4425  1.1190 -0.9913
   32SAPC  C214 4300   4.789   0.083   7.838 -0.4476 -0.4016  0.6735
   32SAPC  H14R 4301   4.721   0.169   7.830 -0.3422 -0.3352  0.4703
   32SAPC  C215 4302   4.753  -0.043   7.817  0.1506 -0.3138 -0.2044
   32SAPC  H15R 4303   4.646  -0.063   7.828  0.4822 -2.1446 -0.0146
   32SAPC  C216 4304   4.834  -0.171   7.804  0.8503 -0.5493  0.1554
   32SAPC  H16R 4305   4.841  -0.232   7.897 -3.1480 -1.3679 -0.0022
   32SAPC  H16S 4306   4.943  -0.165   7.783  0.5058  0.3397 -1.4922
   32SAPC  C217 4307   4.806  -0.261   7.682 -0.6152  0.1834 -0.7870
   32SAPC  H17R 4308   4.820  -0.200   7.590 -1.5720  1.7567  0.0797
   32SAPC  H17S 4309   4.704  -0.305   7.682 -0.8011  0.5942 -2.1626
   32SAPC  C218 4310   4.903  -0.377   7.666  0.0321  0.7817 -0.2652
   32SAPC  H18R 4311   4.878  -0.452   7.745  0.3558 -1.5855 -2.3600
   32SAPC  H18S 4312   5.009  -0.358   7.693 -0.2226  2.9048 -0.7364
   32SAPC  C219 4313   4.900  -0.440   7.530  0.2324 -0.0360  0.2070
   32SAPC  H19R 4314   4.996  -0.492   7.508  0.1391  1.0858 -3.1185
   32SAPC  H19S 4315   4.906  -0.353   7.462 -2.4006  0.3560  0.4263
   32SAPC  C220 4316   4.771  -0.529   7.502 -1.1095 -0.1858 -0.7537
   32SAPC  H20R 4317   4.691  -0.452   7.496 -1.0891  0.0918  2.0473
   32SAPC  H20S 4318   4.749  -0.587   7.594  0.2258 -0.3469 -0.5219
   32SAPC  H20T 4319   4.788  -0.595   7.414 -0.7994 -1.0522 -0.0403
   32SAPC   C33 4320   4.808  -0.031   6.754  0.4254  0.2082 -0.2752
   32SAPC   H3X 4321   4.752   0.065   6.749  0.1408  0.0130 -0.9207
   32SAPC   H3Y 4322   4.905  -0.006   6.705  1.4595 -1.0176  1.0788
   32SAPC   C34 4323   4.815  -0.093   6.891  0.1942  0.2037  0.0953
   32SAPC   H4X 4324   4.872  -0.007   6.932  1.7451 -1.0074  0.5352
   32SAPC   H4Y 4325   4.889  -0.176   6.891  0.3374  0.3282 -0.1536
   32SAPC   C35 4326   4.693  -0.116   6.974 -0.2671  0.2323 -0.1330
   32SAPC   H5X 4327   4.649  -0.214   6.944 -0.3618 -0.4696  2.2244
   32SAPC   H5Y 4328   4.615  -0.042   6.944  0.7086  1.0892 -0.5789
   32SAPC   C36 4329   4.705  -0.113   7.127 -0.3288  0.4329 -0.0461
   32SAPC   H6X 4330   4.742  -0.012   7.155 -0.5207  0.4814  0.0320
   32SAPC   H6Y 4331   4.777  -0.191   7.161 -1.5610 -0.1591  1.2547
   32SAPC   C37 4332   4.572  -0.130   7.184  0.1257  0.5135 -0.7123
   32SAPC   H7X 4333   4.532  -0.232   7.166  1.5448 -0.2360  0.2920
   32SAPC   H7Y 4334   4.504  -0.051   7.144  1.8329  1.7043 -1.2888
   32SAPC   C38 4335   4.590  -0.126   7.336  0.5599  0.0451  0.1664
   32SAPC   H8X 4336   4.641  -0.030   7.360  1.0676  0.3845 -2.1288
   32SAPC   H8Y 4337   4.649  -0.214   7.369 -0.3952 -0.0016  1.8173
   32SAPC   C39 4338   4.456  -0.140   7.421 -0.1904  0.1970  0.4113
   32SAPC   H9X 4339   4.408  -0.241   7.425 -2.8343  1.4016  0.0115
   32SAPC   H9Y 4340   4.390  -0.063   7.376  0.5963  1.2067  0.9576
   32SAPC  C310 4341   4.483  -0.103   7.565  0.4080 -0.3908  1.3591
   32SAPC  H10X 4342   4.542  -0.009   7.561 -1.2144  0.6861  1.7318
   32SAPC  H10Y 4343   4.550  -0.176   7.615 -1.2922  0.6811  5.4618
   32SAPC  C311 4344   4.350  -0.081   7.646 -0.2260 -0.2589 -0.0380
   32SAPC  H11X 4345   4.315  -0.183   7.668  0.0167 -0.4334 -0.4515
   32SAPC  H11Y 4346   4.280  -0.024   7.580  0.5338  1.2812  0.4546
   32SAPC  C312 4347   4.369  -0.023   7.788  0.4303 -0.0783 -0.4063
   32SAPC  H12X 4348   4.387   0.086   7.787 -1.2394  0.2329  0.7114
   32SAPC  H12Y 4349   4.459  -0.068   7.834  1.8498  2.0773 -1.0601
   32SAPC  C313 4350   4.238  -0.033   7.869 -0.0401  0.0195 -0.1910
   32SAPC  H13X 4351   4.213  -0.141   7.879 -0.6765  0.1202 -0.7117
   32SAPC  H13Y 4352   4.161   0.010   7.803 -2.2014 -0.8955  1.6851
   32SAPC  C314 4353   4.243   0.022   8.006  0.2704  0.4014 -0.7609
   32SAPC  H14X 4354   4.341  -0.007   8.050 -1.0108 -2.3334  0.4216
   32SAPC  H14Y 4355   4.159  -0.008   8.071  1.7346  0.1712  1.0685
   32SAPC  C315 4356   4.237   0.175   8.007 -0.8388  0.3639  0.6144
   32SAPC  H15X 4357   4.138   0.217   7.980 -1.1403 -0.8784 -0.3015
   32SAPC  H15Y 4358   4.302   0.220   7.928  0.1935  1.7794  2.2507
   32SAPC  C316 4359   4.276   0.230   8.137 -0.4398  0.4492 -0.0723
   32SAPC  H16X 4360   4.364   0.182   8.184 -0.4150  1.6034  1.0840
   32SAPC  H16Y 4361   4.187   0.235   8.205 -0.5295  1.8120 -0.2740
   32SAPC  C317 4362   4.339   0.369   8.128 -0.3953  0.8460  0.0721
   32SAPC  H17X 4363   4.331   0.417   8.228  0.9421 -0.1705  0.6790
   32SAPC  H17Y 4364   4.287   0.429   8.049 -0.7901 -1.3300 -1.3952
   32SAPC  C318 4365   4.492   0.362   8.114 -0.2875 -0.1162  0.0862
   32SAPC  H18X 4366   4.529   0.306   8.025 -2.0695  0.0917 -0.7981
   32SAPC  H18Y 4367   4.541   0.321   8.205  0.3493  1.8411  0.6477
   32SAPC  H18Z 4368   4.536   0.464   8.103  2.2285 -0.8658  2.5685
   33POPC     N 4369   1.795   1.473  10.586 -0.7101 -0.1779  0.1478
   33POPC   C12 4370   1.875   1.472  10.459 -1.2560  0.0599 -0.4204
   33POPC  H12A 4371   1.821   1.530  10.386 -0.9670 -0.1177 -0.7757
   33POPC  H12B 4372   1.893   1.375  10.415 -2.4033  0.0409 -0.8579
   33POPC   C13 4373   1.864   1.395  10.690  0.5184  0.0742 -0.5223
   33POPC  H13A 4374   1.794   1.385  10.772 -0.7301  0.5187 -1.5163
   33POPC  H13B 4375   1.891   1.293  10.668  2.1763  0.4688 -0.3981
   33POPC  H13C 4376   1.950   1.446  10.730  0.9194 -1.8531  1.1722
   33POPC   C14 4377   1.774   1.609  10.639 -0.0424  0.3160  0.5134
   33POPC  H14A 4378   1.866   1.665  10.648 -1.8171  3.5654 -0.4821
   33POPC  H14B 4379   1.710   1.672  10.578 -0.4296 -0.1425  0.4443
   33POPC  H14C 4380   1.730   1.614  10.737 -0.8593 -0.0655  0.1724
   33POPC   C15 4381   1.659   1.415  10.555  0.7877  0.7452 -0.5949
   33POPC  H15A 4382   1.664   1.325  10.496 -1.0595  1.0260 -1.1887
   33POPC  H15B 4383   1.596   1.494  10.519 -0.3079  0.6867  1.1346
   33POPC  H15C 4384   1.621   1.387  10.653  1.0600 -0.0727 -0.7165
   33POPC   C11 4385   2.019   1.536  10.465  0.3127  0.4530 -0.2909
   33POPC  H11A 4386   2.021   1.636  10.513 -0.8025 -0.0991  0.9323
   33POPC  H11B 4387   2.071   1.544  10.367 -0.7459  0.8127 -0.8362
   33POPC     P 4388   2.166   1.316  10.486  0.0929 -0.2866  0.2850
   33POPC   O13 4389   2.221   1.236  10.597  0.1094  0.0227  0.5790
   33POPC   O14 4390   2.262   1.342  10.378 -0.3337 -0.4448 -0.2979
   33POPC   O12 4391   2.107   1.454  10.547 -1.0258  0.2686 -1.1072
   33POPC   O11 4392   2.042   1.238  10.435 -0.0775 -0.4374  0.1434
   33POPC    C1 4393   2.051   1.171  10.310  0.2347  0.0236 -1.1891
   33POPC    HA 4394   2.029   1.234  10.221  1.7317  0.6902 -1.0915
   33POPC    HB 4395   2.145   1.116  10.290 -0.0718 -0.7717 -0.4977
   33POPC    C2 4396   1.950   1.049  10.306 -1.2323  0.1304 -0.2621
   33POPC    HS 4397   1.972   0.987  10.396 -1.0939  0.0943 -0.3190
   33POPC   O21 4398   1.963   0.974  10.180  0.0443  0.6537  0.2438
   33POPC   C21 4399   1.926   0.849  10.184  0.8714 -0.2381  0.8237
   33POPC   O22 4400   1.881   0.793  10.287 -0.4707  0.8020  0.0657
   33POPC   C22 4401   1.947   0.771  10.053 -0.5005 -0.3836  0.1706
   33POPC   H2R 4402   1.989   0.675  10.089 -4.5638 -3.3413 -2.5455
   33POPC   H2S 4403   2.020   0.829   9.992 -2.0569  1.9948  0.4807
   33POPC    C3 4404   1.799   1.078  10.331 -0.3465 -0.3332  0.0141
   33POPC    HX 4405   1.789   1.150  10.416  0.2604 -1.2007  0.8344
   33POPC    HY 4406   1.748   0.984  10.360  0.4134 -0.2227  1.7841
   33POPC   O31 4407   1.742   1.131  10.213  0.5306  0.1967  0.0791
   33POPC   C31 4408   1.622   1.184  10.238 -0.3045  0.2800 -0.9165
   33POPC   O32 4409   1.574   1.198  10.349 -0.0039  0.0093  0.2860
   33POPC   C32 4410   1.549   1.201  10.109 -0.1650  0.6780 -0.4430
   33POPC   H2X 4411   1.506   1.107  10.068 -0.3936  0.2153  0.8411
   33POPC   H2Y 4412   1.624   1.239  10.036  0.3928 -1.1632 -0.8469
   33POPC   C23 4413   1.825   0.758   9.965  0.5545  0.8304 -0.8151
   33POPC   H3R 4414   1.740   0.721  10.027  1.1581  0.6016 -0.1209
   33POPC   H3S 4415   1.847   0.683   9.886 -1.5248 -1.1217  0.3799
   33POPC   C24 4416   1.798   0.894   9.904 -0.6237 -0.6370 -0.0910
   33POPC   H4R 4417   1.888   0.952   9.874 -2.7408  1.4212 -2.7622
   33POPC   H4S 4418   1.753   0.960   9.982 -0.8469 -1.4921  0.5175
   33POPC   C25 4419   1.697   0.890   9.785  0.5433  0.6487  0.4221
   33POPC   H5R 4420   1.592   0.888   9.821  0.2301 -1.3234 -0.4908
   33POPC   H5S 4421   1.721   0.796   9.730 -1.5248 -1.5724  3.1535
   33POPC   C26 4422   1.711   1.004   9.686 -0.3248 -0.8734  0.1240
   33POPC   H6R 4423   1.799   0.997   9.619 -1.6370 -0.9977 -1.6149
   33POPC   H6S 4424   1.707   1.097   9.748 -1.6344 -1.1728  0.5021
   33POPC   C27 4425   1.593   1.010   9.590  0.3331  0.0649 -0.1517
   33POPC   H7R 4426   1.610   1.094   9.520  0.3345 -1.0260 -1.4678
   33POPC   H7S 4427   1.501   1.041   9.645 -0.8451 -2.9716 -0.3682
   33POPC   C28 4428   1.567   0.868   9.520 -0.1578 -1.1410 -0.3163
   33POPC   H8R 4429   1.479   0.869   9.453 -2.3033 -1.9246  2.3819
   33POPC   H8S 4430   1.527   0.801   9.599  0.8361 -1.5733 -0.1655
   33POPC   C29 4431   1.680   0.808   9.442 -0.2297 -0.6176  0.3085
   33POPC   H91 4432   1.753   0.879   9.400  0.2011 -0.1972  1.7650
   33POPC  C210 4433   1.704   0.679   9.409  0.0283 -0.8681  0.7904
   33POPC  H101 4434   1.791   0.663   9.344 -0.1631  0.6342  0.1276
   33POPC  C211 4435   1.613   0.559   9.448 -0.3521 -0.4431  0.1343
   33POPC  H11R 4436   1.529   0.590   9.513 -0.7674  2.4448 -1.6930
   33POPC  H11S 4437   1.678   0.483   9.498  1.1299 -0.4629 -1.7651
   33POPC  C212 4438   1.550   0.472   9.334  0.2507 -0.0974 -0.6933
   33POPC  H12R 4439   1.457   0.526   9.307  0.8053  1.9842  1.4410
   33POPC  H12S 4440   1.526   0.368   9.365  0.5684  0.1780  0.4881
   33POPC  C213 4441   1.645   0.452   9.216  0.3585  0.3999  0.1318
   33POPC  H13R 4442   1.746   0.420   9.250  0.0684  0.5411  1.1354
   33POPC  H13S 4443   1.651   0.546   9.157  1.9519  0.0346 -0.3315
   33POPC  C214 4444   1.595   0.340   9.126  0.8097 -0.6096  1.0229
   33POPC  H14R 4445   1.491   0.356   9.091  1.1850 -2.3505 -0.9910
   33POPC  H14S 4446   1.580   0.249   9.188  1.5017  0.5397  2.9336
   33POPC  C215 4447   1.681   0.316   8.996 -0.2472  0.7402  0.5664
   33POPC  H15R 4448   1.781   0.277   9.023 -0.5716  0.0448  0.7821
   33POPC  H15S 4449   1.680   0.417   8.948  1.6036 -0.0026 -1.0964
   33POPC  C216 4450   1.631   0.220   8.888 -0.4839 -0.7615  0.2658
   33POPC  H16R 4451   1.521   0.233   8.878 -0.3186  2.9030  2.4987
   33POPC  H16S 4452   1.649   0.115   8.922 -0.8746 -0.4211  1.5475
   33POPC  C217 4453   1.694   0.251   8.757  0.0893  1.0259 -0.3122
   33POPC  H17R 4454   1.805   0.242   8.757 -0.1260 -2.5318 -0.0688
   33POPC  H17S 4455   1.662   0.354   8.730  0.6518  1.4244  0.5293
   33POPC  C218 4456   1.625   0.165   8.651 -0.0471 -0.6663 -0.5448
   33POPC  H18R 4457   1.688   0.151   8.561 -1.6831 -1.4935 -1.5630
   33POPC  H18S 4458   1.521   0.192   8.623 -0.3612 -1.1218  0.1732
   33POPC  H18T 4459   1.618   0.061   8.688  0.2806 -0.2791  0.6400
   33POPC   C33 4460   1.431   1.304  10.122  0.3081  0.8577  0.6222
   33POPC   H3X 4461   1.468   1.405  10.152  0.6649  0.1704  2.5685
   33POPC   H3Y 4462   1.346   1.271  10.186 -0.8436  2.3907 -0.0745
   33POPC   C34 4463   1.365   1.322   9.985  0.3248  0.5011 -0.4176
   33POPC   H4X 4464   1.442   1.372   9.922  0.9731 -1.0401 -0.8654
   33POPC   H4Y 4465   1.285   1.398   9.996  0.5947  0.7500 -0.1459
   33POPC   C35 4466   1.316   1.201   9.900  0.6713 -0.2065  0.9582
   33POPC   H5X 4467   1.244   1.159   9.974  1.5375  1.8829  3.0584
   33POPC   H5Y 4468   1.402   1.132   9.883 -0.5880 -1.5825  0.0432
   33POPC   C36 4469   1.245   1.246   9.770  0.1968 -0.6489  0.2762
   33POPC   H6X 4470   1.155   1.307   9.792 -1.2777 -2.8117  0.2849
   33POPC   H6Y 4471   1.217   1.152   9.719  2.0759 -0.2743 -1.5622
   33POPC   C37 4472   1.338   1.336   9.686 -0.0390  0.3782  0.1336
   33POPC   H7X 4473   1.415   1.265   9.650  0.8934  0.3549  2.1419
   33POPC   H7Y 4474   1.378   1.427   9.736  0.4713  2.4943 -3.9261
   33POPC   C38 4475   1.288   1.387   9.554 -0.1481 -0.0797 -0.3166
   33POPC   H8X 4476   1.380   1.437   9.518 -1.4168  1.8867 -0.9400
   33POPC   H8Y 4477   1.214   1.470   9.558  0.2349  0.2493 -0.0279
   33POPC   C39 4478   1.232   1.274   9.466  0.0362 -0.2961  0.1684
   33POPC   H9X 4479   1.136   1.237   9.507  1.0091 -0.2040  2.6111
   33POPC   H9Y 4480   1.308   1.193   9.462  1.1567  0.7429  0.2481
   33POPC  C310 4481   1.195   1.322   9.326  0.1829 -0.9489 -0.0897
   33POPC  H10X 4482   1.193   1.232   9.261 -2.3077 -1.2511  0.3845
   33POPC  H10Y 4483   1.286   1.378   9.294 -0.5214 -0.9217 -2.1480
   33POPC  C311 4484   1.068   1.406   9.304  0.2049 -0.1337 -1.0680
   33POPC  H11X 4485   1.067   1.492   9.374 -0.3493 -0.7892 -0.2555
   33POPC  H11Y 4486   0.980   1.341   9.326 -0.4382  1.0556 -0.0706
   33POPC  C312 4487   1.055   1.468   9.161  0.8066  0.8496 -0.2803
   33POPC  H12X 4488   1.070   1.379   9.097 -0.7418  1.0422 -0.9382
   33POPC  H12Y 4489   1.131   1.549   9.151  1.8209 -0.1343 -0.7048
   33POPC  C313 4490   0.908   1.504   9.124  0.3603 -0.1639 -0.3584
   33POPC  H13X 4491   0.891   1.603   9.172  2.2852 -0.6610  1.4597
   33POPC  H13Y 4492   0.841   1.429   9.171 -0.5340  1.4840  1.0730
   33POPC  C314 4493   0.874   1.517   8.971 -0.2634 -0.5781  0.2726
   33POPC  H14X 4494   0.767   1.545   8.960 -0.2474 -0.5681  0.1403
   33POPC  H14Y 4495   0.895   1.422   8.917  3.6531 -1.2324  2.6980
   33POPC  C315 4496   0.953   1.633   8.907  0.1498 -0.1103  0.2243
   33POPC  H15X 4497   1.059   1.600   8.914  0.2107 -0.0329 -0.3543
   33POPC  H15Y 4498   0.933   1.727   8.962 -0.9358  0.4837 -1.1545
   33POPC  C316 4499   0.935   1.652   8.755 -0.0362  0.3661  0.0138
   33POPC  H16X 4500   1.011   1.725   8.722  1.7451 -0.7676  1.4739
   33POPC  H16Y 4501   0.831   1.686   8.735  0.0689 -0.0847 -1.3642
   33POPC  H16Z 4502   0.967   1.558   8.705 -0.4951  0.3091 -0.1828
   34POPC     N 4503   0.720   1.517  11.085  0.2834 -0.3702  0.3716
   34POPC   C12 4504   0.724   1.486  10.939  0.0820  0.3596 -0.8217
   34POPC  H12A 4505   0.692   1.385  10.919  1.6332 -0.2493 -0.3283
   34POPC  H12B 4506   0.826   1.503  10.908  1.2126 -0.6088  2.2298
   34POPC   C13 4507   0.761   1.662  11.116  0.6126 -0.2691  0.0651
   34POPC  H13A 4508   0.746   1.669  11.222  0.8907 -1.3438  0.1807
   34POPC  H13B 4509   0.866   1.679  11.098  1.0204 -1.3620  1.3134
   34POPC  H13C 4510   0.694   1.723  11.057  1.6200 -2.0003 -3.0438
   34POPC   C14 4511   0.582   1.494  11.142 -0.5466  0.9564  0.3931
   34POPC  H14A 4512   0.514   1.564  11.096  0.2725  1.2413 -0.3825
   34POPC  H14B 4513   0.559   1.389  11.143 -0.6864  0.9871  0.4809
   34POPC  H14C 4514   0.588   1.527  11.245 -0.9439 -2.2298  1.4853
   34POPC   C15 4515   0.823   1.436  11.148  0.2109 -0.9219  0.2879
   34POPC  H15A 4516   0.799   1.332  11.130 -2.4199 -0.2799 -0.1593
   34POPC  H15B 4517   0.823   1.442  11.256  0.3744  2.2925  0.1527
   34POPC  H15C 4518   0.924   1.457  11.118  0.9302 -1.9530  1.9281
   34POPC   C11 4519   0.642   1.582  10.847 -0.3998 -0.2276 -0.7604
   34POPC  H11A 4520   0.536   1.589  10.881  0.1700 -0.6984  1.1681
   34POPC  H11B 4521   0.648   1.532  10.749  0.6965 -0.6517 -0.4808
   34POPC     P 4522   0.810   1.771  10.760 -0.2862 -0.6601 -0.0794
   34POPC   O13 4523   0.929   1.687  10.792  0.7981 -0.3794  0.5441
   34POPC   O14 4524   0.818   1.919  10.777  0.1722 -0.2748 -0.1610
   34POPC   O12 4525   0.688   1.716  10.838  0.8388  0.4563  0.3243
   34POPC   O11 4526   0.777   1.736  10.609 -0.1129 -0.2035 -0.2474
   34POPC    C1 4527   0.665   1.791  10.546 -0.6822  0.6560  0.1795
   34POPC    HA 4528   0.624   1.878  10.602 -2.1766  1.5709 -2.2679
   34POPC    HB 4529   0.588   1.713  10.528 -0.0375  0.0336  0.0905
   34POPC    C2 4530   0.695   1.844  10.399  1.1594  0.1533  0.3017
   34POPC    HS 4531   0.601   1.895  10.369  1.9725  1.2274 -0.4538
   34POPC   O21 4532   0.706   1.729  10.311  0.3593  0.0847 -0.0866
   34POPC   C21 4533   0.821   1.667  10.307 -0.2241  0.2976  0.2166
   34POPC   O22 4534   0.924   1.684  10.372  0.0231  0.2847 -0.6592
   34POPC   C22 4535   0.806   1.552  10.208 -0.3507  0.4718 -0.1226
   34POPC   H2R 4536   0.725   1.490  10.253  0.6678 -1.6514 -1.1155
   34POPC   H2S 4537   0.898   1.489  10.218 -0.6854  0.1251  0.8757
   34POPC    C3 4538   0.810   1.957  10.396 -0.0677  0.0729  0.2238
   34POPC    HX 4539   0.889   1.906  10.455  0.9415 -0.3198 -1.4374
   34POPC    HY 4540   0.770   2.050  10.443  0.9261  0.4966  0.2572
   34POPC   O31 4541   0.859   1.979  10.265  0.0628  0.4093 -0.0586
   34POPC   C31 4542   0.791   2.054  10.178  0.2576  0.3885 -0.7875
   34POPC   O32 4543   0.697   2.125  10.199  0.4831  0.3970  0.7573
   34POPC   C32 4544   0.852   2.040  10.041 -0.9414  0.0857 -0.1499
   34POPC   H2X 4545   0.847   1.934  10.008 -1.6012  0.0228  0.1399
   34POPC   H2Y 4546   0.952   2.088  10.048 -1.3758  0.9364  0.3296
   34POPC   C23 4547   0.791   1.587  10.066  0.0446 -0.0029 -0.1070
   34POPC   H3R 4548   0.713   1.662  10.039 -0.6297 -0.5845  0.2204
   34POPC   H3S 4549   0.756   1.503  10.003 -1.3109 -0.0072  0.6397
   34POPC   C24 4550   0.926   1.622  10.001 -0.5934 -0.0088  0.0060
   34POPC   H4R 4551   1.000   1.540   9.994 -0.7412 -0.1458  0.0391
   34POPC   H4S 4552   0.980   1.703  10.054 -0.9667 -0.5455  1.2233
   34POPC   C25 4553   0.895   1.669   9.863 -0.4539  0.7066 -0.5222
   34POPC   H5R 4554   0.871   1.777   9.858 -1.5163  0.5394  0.6886
   34POPC   H5S 4555   0.821   1.606   9.809 -2.2380  1.6308  0.8229
   34POPC   C26 4556   1.012   1.665   9.755  0.0280 -0.0795 -0.0779
   34POPC   H6R 4557   1.045   1.560   9.738  3.7619  0.6862  1.8673
   34POPC   H6S 4558   1.099   1.720   9.798  0.1114 -0.3720  0.1272
   34POPC   C27 4559   0.981   1.747   9.627 -0.4964  0.4680  0.4034
   34POPC   H7R 4560   1.074   1.753   9.567 -0.4825 -0.9280  0.2678
   34POPC   H7S 4561   0.947   1.849   9.655  0.7747  0.2911  2.6448
   34POPC   C28 4562   0.868   1.674   9.548 -0.1016 -0.6449 -0.1631
   34POPC   H8R 4563   0.868   1.569   9.585  0.5084 -0.0167  1.6357
   34POPC   H8S 4564   0.893   1.677   9.440 -0.2647 -3.8046 -0.3401
   34POPC   C29 4565   0.729   1.718   9.563  0.8400 -0.7666 -0.4218
   34POPC   H91 4566   0.679   1.681   9.654 -0.2113  2.6651  0.4715
   34POPC  C210 4567   0.675   1.828   9.510  0.2472  0.5610 -0.6806
   34POPC  H101 4568   0.574   1.846   9.550  0.1870  0.7311 -0.9057
   34POPC  C211 4569   0.730   1.931   9.419  0.3848  0.0677 -0.7002
   34POPC  H11R 4570   0.829   1.905   9.376  1.4603  1.3839  0.9396
   34POPC  H11S 4571   0.737   2.022   9.482 -2.0631 -0.2923  0.1694
   34POPC  C212 4572   0.643   1.963   9.298 -0.2598  0.0818 -0.6450
   34POPC  H12R 4573   0.705   2.024   9.229  0.5680  0.4082  0.3784
   34POPC  H12S 4574   0.553   2.016   9.337  0.8804  1.3917  0.2736
   34POPC  C213 4575   0.616   1.839   9.215  0.0282  0.2144  0.6134
   34POPC  H13R 4576   0.532   1.783   9.263  0.4293 -0.2509  0.7785
   34POPC  H13S 4577   0.709   1.778   9.208 -0.6859 -0.6872 -1.5187
   34POPC  C214 4578   0.579   1.865   9.066  0.3939  0.7415  0.1275
   34POPC  H14R 4579   0.673   1.893   9.014  0.7125  0.1340  0.3576
   34POPC  H14S 4580   0.504   1.945   9.056 -0.7665 -0.4182 -0.6254
   34POPC  C215 4581   0.523   1.742   8.999  0.5811  0.2487  0.6136
   34POPC  H15R 4582   0.427   1.710   9.044  1.3531  2.8014  4.3161
   34POPC  H15S 4583   0.596   1.658   9.009  0.4296  0.0820  0.3293
   34POPC  C216 4584   0.502   1.775   8.845  0.8478  0.3194  0.8040
   34POPC  H16R 4585   0.608   1.769   8.811  0.7849 -0.1787  0.6919
   34POPC  H16S 4586   0.463   1.879   8.833 -1.2760 -0.7395 -2.3151
   34POPC  C217 4587   0.400   1.679   8.782 -1.2751 -0.5554  0.1583
   34POPC  H17R 4588   0.303   1.704   8.829 -1.2428  2.0909 -1.0843
   34POPC  H17S 4589   0.435   1.582   8.822  4.7113  1.2331 -0.2265
   34POPC  C218 4590   0.409   1.674   8.634 -0.4668 -0.2094  0.2620
   34POPC  H18R 4591   0.336   1.606   8.585  0.2273  0.6601 -2.0387
   34POPC  H18S 4592   0.507   1.635   8.600  0.0089 -2.4454  3.9294
   34POPC  H18T 4593   0.405   1.775   8.589  1.1579  0.7404  2.1814
   34POPC   C33 4594   0.771   2.102   9.924  1.0090 -0.6354 -0.5216
   34POPC   H3X 4595   0.734   2.199   9.964  1.7975 -0.3685 -0.4363
   34POPC   H3Y 4596   0.686   2.031   9.915 -0.9875  1.8575 -2.4118
   34POPC   C34 4597   0.825   2.114   9.782  0.4517 -0.3186 -0.0180
   34POPC   H4X 4598   0.757   2.160   9.707  1.4553 -1.8154 -1.9217
   34POPC   H4Y 4599   0.852   2.014   9.741  3.3743  0.6310 -0.4932
   34POPC   C35 4600   0.950   2.205   9.783  0.5382  0.4450 -0.7498
   34POPC   H5X 4601   1.024   2.149   9.843  0.2534 -1.2927 -1.9784
   34POPC   H5Y 4602   0.918   2.296   9.837 -1.2284 -0.2287 -0.6382
   34POPC   C36 4603   1.017   2.245   9.654  0.0892  0.1810  1.0351
   34POPC   H6X 4604   1.111   2.302   9.669  0.4094  0.0365 -0.3427
   34POPC   H6Y 4605   0.953   2.312   9.592 -0.3650  0.2173  1.5381
   34POPC   C37 4606   1.040   2.123   9.572  0.0750  0.6764 -0.5225
   34POPC   H7X 4607   0.944   2.072   9.549 -1.3101  3.1721 -0.4595
   34POPC   H7Y 4608   1.085   2.047   9.639  1.7210  2.7330  0.7714
   34POPC   C38 4609   1.117   2.130   9.436 -0.6577 -0.2298 -0.1823
   34POPC   H8X 4610   1.159   2.028   9.420  0.5648  0.1883  0.3152
   34POPC   H8Y 4611   1.195   2.204   9.463 -0.5599 -0.4584  0.1678
   34POPC   C39 4612   1.028   2.169   9.317 -0.4632  0.4366  0.3710
   34POPC   H9X 4613   1.023   2.280   9.308 -0.5087  0.4150  0.1307
   34POPC   H9Y 4614   0.922   2.137   9.331 -0.6651  0.6263 -0.6424
   34POPC  C310 4615   1.077   2.106   9.186  0.2794  1.0445 -0.5531
   34POPC  H10X 4616   1.083   1.996   9.199  0.9811  1.0603 -0.7405
   34POPC  H10Y 4617   1.181   2.136   9.161  0.8836 -2.0870 -2.0134
   34POPC  C311 4618   0.986   2.134   9.063 -0.9459 -0.8173  0.1073
   34POPC  H11X 4619   0.996   2.242   9.039 -0.3388 -0.3503  2.3889
   34POPC  H11Y 4620   0.880   2.109   9.084 -1.3257  1.8904  1.6871
   34POPC  C312 4621   1.030   2.066   8.932  0.4202 -0.7026  0.0564
   34POPC  H12X 4622   1.050   1.959   8.956  0.6054 -0.8024 -0.5459
   34POPC  H12Y 4623   1.127   2.110   8.901  0.7653 -0.9628  0.7517
   34POPC  C313 4624   0.928   2.059   8.814 -0.0561 -0.4873 -0.3001
   34POPC  H13X 4625   0.863   1.971   8.833  0.1435 -0.3473  1.0572
   34POPC  H13Y 4626   0.986   2.044   8.720 -0.8880  0.2227 -0.9313
   34POPC  C314 4627   0.831   2.179   8.804 -0.1556  0.0968  0.3342
   34POPC  H14X 4628   0.878   2.273   8.767  0.2004  0.1443  0.8962
   34POPC  H14Y 4629   0.817   2.208   8.910 -1.0910  2.6176 -0.4436
   34POPC  C315 4630   0.709   2.129   8.739  0.2789 -0.8465  0.4976
   34POPC  H15X 4631   0.663   2.037   8.783 -0.4713  0.0533  1.6294
   34POPC  H15Y 4632   0.737   2.087   8.640 -0.5049  0.4166 -0.2793
   34POPC  C316 4633   0.587   2.222   8.726  0.4744 -0.2269  0.0477
   34POPC  H16X 4634   0.495   2.161   8.717 -0.5824  1.3196  0.2102
   34POPC  H16Y 4635   0.607   2.287   8.639  0.1116  0.3988  0.4300
   34POPC  H16Z 4636   0.581   2.286   8.816 -1.4402  0.9431 -0.8812
   35POPC     N 4637   1.238   5.514  11.021  0.0234  0.3905  0.1772
   35POPC   C12 4638   1.150   5.393  10.987 -0.5358 -0.8196 -0.2621
   35POPC  H12A 4639   1.214   5.308  10.967  0.0360 -0.7098  1.0544
   35POPC  H12B 4640   1.105   5.418  10.892 -0.9848 -1.6203 -0.2649
   35POPC   C13 4641   1.153   5.637  11.038 -0.0279 -0.3920  0.1605
   35POPC  H13A 4642   1.119   5.666  10.940 -1.4472  0.2216  0.8162
   35POPC  H13B 4643   1.067   5.621  11.101 -0.5513  1.8720  0.0765
   35POPC  H13C 4644   1.210   5.713  11.090 -1.7579 -0.7490  2.6699
   35POPC   C14 4645   1.290   5.485  11.158  0.2399  0.3975  0.3686
   35POPC  H14A 4646   1.217   5.505  11.234  0.4442 -2.8863  1.5229
   35POPC  H14B 4647   1.321   5.382  11.165  0.1982  0.3060 -0.7109
   35POPC  H14C 4648   1.377   5.545  11.178 -0.0789  1.6932 -1.9423
   35POPC   C15 4649   1.348   5.532  10.924  0.1427 -0.1813  0.3064
   35POPC  H15A 4650   1.311   5.539  10.822  1.2941 -2.0414 -0.2502
   35POPC  H15B 4651   1.423   5.455  10.918  0.7271  0.4244 -0.2893
   35POPC  H15C 4652   1.389   5.632  10.922 -0.0500 -0.1121 -2.7314
   35POPC   C11 4653   1.029   5.351  11.085 -0.2282 -1.1453 -0.4181
   35POPC  H11A 4654   1.072   5.333  11.186  1.4146  1.9910 -0.4940
   35POPC  H11B 4655   0.971   5.260  11.059 -2.7659  0.0481  0.9049
   35POPC     P 4656   0.806   5.453  11.002  0.0530  0.3561 -0.0354
   35POPC   O13 4657   0.744   5.584  11.008  0.1233 -0.1293  0.0829
   35POPC   O14 4658   0.722   5.343  11.054 -0.0059  0.3046 -0.3959
   35POPC   O12 4659   0.941   5.462  11.089  0.2016 -0.2911  0.7467
   35POPC   O11 4660   0.844   5.422  10.844  0.5600 -0.0068 -0.4687
   35POPC    C1 4661   0.919   5.514  10.762  0.2548  0.4485 -0.6787
   35POPC    HA 4662   1.004   5.460  10.713 -0.4082 -1.0405 -0.2126
   35POPC    HB 4663   0.966   5.593  10.824  0.7929 -1.2058  1.1008
   35POPC    C2 4664   0.828   5.575  10.653  0.3407 -0.3877  0.0797
   35POPC    HS 4665   0.747   5.630  10.705 -0.4918 -0.0409 -1.5538
   35POPC   O21 4666   0.777   5.467  10.574  0.5371 -0.5645  0.2371
   35POPC   C21 4667   0.660   5.418  10.609 -0.0134  0.6104  0.0946
   35POPC   O22 4668   0.581   5.467  10.685 -0.3324  0.2795 -0.7775
   35POPC   C22 4669   0.641   5.287  10.526 -0.3798 -0.3486 -0.4820
   35POPC   H2R 4670   0.634   5.209  10.605  3.2421 -0.2802  0.0140
   35POPC   H2S 4671   0.742   5.261  10.488  0.6234 -0.6062  2.2200
   35POPC    C3 4672   0.910   5.676  10.565 -0.2814  0.4060  0.6167
   35POPC    HX 4673   1.016   5.643  10.557  0.3032  2.6257 -1.4096
   35POPC    HY 4674   0.911   5.770  10.623  0.1247 -0.1913  1.5884
   35POPC   O31 4675   0.851   5.691  10.437 -0.0376  0.1402 -0.4894
   35POPC   C31 4676   0.728   5.745  10.441  0.0900 -0.6058  0.6215
   35POPC   O32 4677   0.678   5.804  10.534 -0.4588 -0.2760 -0.4442
   35POPC   C32 4678   0.669   5.739  10.296 -0.3345  0.0695  0.0193
   35POPC   H2X 4679   0.561   5.766  10.302 -1.0794 -3.1138  2.6852
   35POPC   H2Y 4680   0.697   5.640  10.254  1.3203 -1.3682  4.2487
   35POPC   C23 4681   0.527   5.297  10.419  0.2801 -0.4029 -0.2891
   35POPC   H3R 4682   0.433   5.341  10.459  0.4513 -0.1660 -0.1407
   35POPC   H3S 4683   0.513   5.191  10.391 -0.5884 -1.1097  2.5818
   35POPC   C24 4684   0.567   5.369  10.295  0.5450 -0.7281 -0.0104
   35POPC   H4R 4685   0.644   5.302  10.252  1.3443 -0.0178  0.2876
   35POPC   H4S 4686   0.617   5.466  10.317  0.7026 -1.2298  1.9504
   35POPC   C25 4687   0.470   5.385  10.180  0.4209 -0.3446 -0.4478
   35POPC   H5R 4688   0.392   5.453  10.220  3.1714  2.5631  0.1968
   35POPC   H5S 4689   0.433   5.284  10.151  1.3446 -1.5398  2.4163
   35POPC   C26 4690   0.534   5.454  10.052  0.1445 -0.6338 -0.9634
   35POPC   H6R 4691   0.614   5.386  10.015  0.7066  0.6503 -2.1414
   35POPC   H6S 4692   0.581   5.546  10.093 -2.7880  0.7795 -0.6986
   35POPC   C27 4693   0.432   5.500   9.947  0.1042  0.5604  0.6328
   35POPC   H7R 4694   0.482   5.569   9.877 -0.0189  0.0972  0.0839
   35POPC   H7S 4695   0.352   5.545  10.009 -0.5247 -0.3690  0.5237
   35POPC   C28 4696   0.369   5.377   9.874 -0.5688  0.1501 -0.5541
   35POPC   H8R 4697   0.278   5.417   9.825  0.7617  1.1041 -2.3047
   35POPC   H8S 4698   0.332   5.304   9.949  1.0504  1.0073  1.1371
   35POPC   C29 4699   0.463   5.313   9.769  0.0576 -0.4781  0.2980
   35POPC   H91 4700   0.502   5.218   9.807 -1.3080 -1.5233 -0.8813
   35POPC  C210 4701   0.481   5.348   9.640 -0.4757 -0.4355 -0.4325
   35POPC  H101 4702   0.554   5.301   9.572  1.5082  0.0407  1.3174
   35POPC  C211 4703   0.406   5.467   9.581  0.4780  0.7765  0.9174
   35POPC  H11R 4704   0.325   5.503   9.648  0.9584  1.9116  0.9113
   35POPC  H11S 4705   0.349   5.430   9.493 -1.4969  0.6073  2.2302
   35POPC  C212 4706   0.500   5.588   9.550  0.3091  0.8278  0.0273
   35POPC  H12R 4707   0.576   5.559   9.475  0.9294 -0.8307  1.2652
   35POPC  H12S 4708   0.548   5.624   9.644  1.5515 -0.6347 -0.0378
   35POPC  C213 4709   0.435   5.714   9.485 -0.6638 -0.3310 -0.4804
   35POPC  H13R 4710   0.513   5.792   9.495 -3.4379  2.4841  0.1334
   35POPC  H13S 4711   0.345   5.734   9.548 -1.6160 -0.8843 -1.6516
   35POPC  C214 4712   0.381   5.691   9.342 -0.3446 -0.9295  0.6559
   35POPC  H14R 4713   0.306   5.611   9.357 -1.1486 -0.2872  0.1167
   35POPC  H14S 4714   0.470   5.677   9.278 -0.9522  0.6889 -0.5821
   35POPC  C215 4715   0.300   5.814   9.295  0.7213  0.4360 -0.0145
   35POPC  H15R 4716   0.373   5.897   9.309  2.9305 -1.0109 -2.5855
   35POPC  H15S 4717   0.214   5.821   9.364  1.6681  0.4012  1.1883
   35POPC  C216 4718   0.244   5.814   9.152 -0.1183  0.1139  0.0044
   35POPC  H16R 4719   0.184   5.907   9.145  1.0914  0.9805  0.9603
   35POPC  H16S 4720   0.181   5.725   9.131  1.1798 -1.0018  0.6925
   35POPC  C217 4721   0.353   5.798   9.033  0.0901  0.5248 -0.3579
   35POPC  H17R 4722   0.406   5.705   9.063 -1.8163 -0.8571 -1.1796
   35POPC  H17S 4723   0.434   5.872   9.043  0.5043  0.3377 -2.1680
   35POPC  C218 4724   0.299   5.789   8.889 -1.0304 -0.5493  0.4125
   35POPC  H18R 4725   0.237   5.699   8.872 -1.4994 -0.9039  3.7904
   35POPC  H18S 4726   0.383   5.777   8.817 -2.5407 -1.1576 -1.2826
   35POPC  H18T 4727   0.262   5.889   8.859  0.4954  0.0743  0.5362
   35POPC   C33 4728   0.736   5.854  10.212  0.0780  0.3007 -0.0942
   35POPC   H3X 4729   0.726   5.948  10.270 -1.3790  1.6084 -2.3824
   35POPC   H3Y 4730   0.673   5.866  10.121 -2.2869  0.6270  1.5618
   35POPC   C34 4731   0.875   5.825  10.166  0.1768  0.0018 -0.6532
   35POPC   H4X 4732   0.892   5.716  10.154  1.8356  0.1500  0.2234
   35POPC   H4Y 4733   0.951   5.861  10.238 -0.3953  0.9979 -0.5503
   35POPC   C35 4734   0.902   5.894  10.033  0.6988  0.4258  0.6159
   35POPC   H5X 4735   1.013   5.900  10.036  0.6545  2.1232 -0.2638
   35POPC   H5Y 4736   0.882   6.003  10.035  1.9764  0.6609  0.9571
   35POPC   C36 4737   0.837   5.833   9.906 -0.3807 -0.1287  0.2474
   35POPC   H6X 4738   0.736   5.877   9.890  0.9582  2.6247 -0.8885
   35POPC   H6Y 4739   0.828   5.726   9.936  0.0968 -0.5432 -1.0632
   35POPC   C37 4740   0.913   5.871   9.774 -0.4524  0.1955  0.6619
   35POPC   H7X 4741   1.013   5.824   9.774 -0.5822 -0.0855  0.6391
   35POPC   H7Y 4742   0.934   5.979   9.759 -0.0092 -0.2299 -2.0033
   35POPC   C38 4743   0.829   5.820   9.656 -0.6288  0.5164  0.7493
   35POPC   H8X 4744   0.730   5.869   9.649 -0.4838  0.6146 -0.7907
   35POPC   H8Y 4745   0.824   5.710   9.662  0.5199  0.3202 -1.3643
   35POPC   C39 4746   0.899   5.845   9.522  0.2726  0.2293 -0.3148
   35POPC   H9X 4747   0.992   5.785   9.523 -1.0060 -2.0543 -4.4846
   35POPC   H9Y 4748   0.935   5.949   9.505  1.0791  0.3163  1.8530
   35POPC  C310 4749   0.817   5.813   9.399  0.4233  0.2468 -0.0172
   35POPC  H10X 4750   0.725   5.875   9.403 -0.2379 -0.6472 -1.0429
   35POPC  H10Y 4751   0.797   5.704   9.397  0.3178  0.2497  0.8020
   35POPC  C311 4752   0.884   5.854   9.268 -0.6981  0.3343  0.2713
   35POPC  H11X 4753   0.988   5.813   9.265 -1.2260 -1.0307  0.0866
   35POPC  H11Y 4754   0.884   5.965   9.265  0.1491  0.2851 -3.0547
   35POPC  C312 4755   0.804   5.799   9.149 -0.7505 -0.2512 -0.2105
   35POPC  H12X 4756   0.699   5.837   9.143 -1.2210 -1.7824 -2.0838
   35POPC  H12Y 4757   0.789   5.692   9.173 -0.3887  0.1337  1.8244
   35POPC  C313 4758   0.876   5.822   9.020 -0.0564 -0.2305  0.3410
   35POPC  H13X 4759   0.824   5.764   8.941  0.6534  0.5525 -0.6994
   35POPC  H13Y 4760   0.981   5.790   9.033 -1.1296 -4.0331  0.0646
   35POPC  C314 4761   0.885   5.971   8.979 -0.0344  0.6446  0.1884
   35POPC  H14X 4762   0.947   6.026   9.053 -1.5581  1.2754  1.0265
   35POPC  H14Y 4763   0.788   6.025   8.987 -0.2037  0.7827 -2.4545
   35POPC  C315 4764   0.927   5.991   8.837  0.8569 -0.0796  0.1510
   35POPC  H15X 4765   0.847   5.964   8.765 -1.8056 -0.3057  3.0492
   35POPC  H15Y 4766   1.007   5.915   8.819  1.2385  0.7509 -1.7886
   35POPC  C316 4767   0.987   6.123   8.807 -0.1108  0.0392  0.7571
   35POPC  H16X 4768   0.914   6.201   8.839  1.5342  0.1714  4.4253
   35POPC  H16Y 4769   1.029   6.144   8.706  0.6971 -1.3022  0.8036
   35POPC  H16Z 4770   1.075   6.128   8.874  0.4463 -1.4422  0.1578
   36POPC     N 4771   0.567   3.571  11.337 -1.2998  0.9435  0.1745
   36POPC   C12 4772   0.425   3.607  11.334  0.1003  0.0844 -0.6566
   36POPC  H12A 4773   0.406   3.644  11.433 -3.6048 -0.1442 -1.2155
   36POPC  H12B 4774   0.373   3.512  11.328 -1.2909  0.8585 -1.1214
   36POPC   C13 4775   0.601   3.471  11.224 -0.0096  0.5221 -0.5781
   36POPC  H13A 4776   0.703   3.437  11.228 -0.3657 -0.7136 -1.6883
   36POPC  H13B 4777   0.543   3.380  11.214  0.0226  0.3838  0.3758
   36POPC  H13C 4778   0.573   3.518  11.131 -1.4599 -0.5890 -0.7351
   36POPC   C14 4779   0.645   3.700  11.320 -0.5772 -1.0131  0.3141
   36POPC  H14A 4780   0.750   3.686  11.304 -0.3015  1.0623  0.2169
   36POPC  H14B 4781   0.606   3.749  11.231  1.5209  0.9413  0.4355
   36POPC  H14C 4782   0.630   3.767  11.403  2.6758  0.2532 -0.0459
   36POPC   C15 4783   0.604   3.512  11.469 -0.3667 -0.0012 -0.5288
   36POPC  H15A 4784   0.711   3.493  11.474 -0.6177 -1.1386  0.7707
   36POPC  H15B 4785   0.562   3.413  11.472 -1.0378  0.3134  0.6289
   36POPC  H15C 4786   0.566   3.570  11.551  0.4308 -2.2365  1.4741
   36POPC   C11 4787   0.375   3.715  11.245 -0.3430  0.0367  0.2793
   36POPC  H11A 4788   0.426   3.814  11.253 -0.3646  0.0251  0.5956
   36POPC  H11B 4789   0.270   3.738  11.273 -0.4806  0.3416 -0.4948
   36POPC     P 4790   0.476   3.726  10.997  0.1554  0.4515 -0.1388
   36POPC   O13 4791   0.507   3.622  10.899 -0.3313  0.5723 -0.0386
   36POPC   O14 4792   0.595   3.808  11.046 -0.6607 -0.0522 -0.0283
   36POPC   O12 4793   0.390   3.665  11.110  0.5335 -0.3464  0.2844
   36POPC   O11 4794   0.381   3.833  10.932 -0.0019 -0.0929 -0.1027
   36POPC    C1 4795   0.244   3.796  10.903  0.3978  0.4849  0.8129
   36POPC    HA 4796   0.189   3.799  10.999 -2.2994 -0.6420 -0.6471
   36POPC    HB 4797   0.238   3.691  10.866  0.9139  0.4225  0.9027
   36POPC    C2 4798   0.173   3.900  10.812 -0.5357 -0.2833 -1.2841
   36POPC    HS 4799   0.078   3.854  10.776  0.6522 -2.9872 -1.0503
   36POPC   O21 4800   0.253   3.941  10.702 -0.3503 -0.0582  0.0519
   36POPC   C21 4801   0.235   3.862  10.590  0.2422 -0.7329 -0.1713
   36POPC   O22 4802   0.182   3.750  10.599  0.0162  0.0677 -0.2849
   36POPC   C22 4803   0.277   3.937  10.464  0.0791 -0.5757  0.3492
   36POPC   H2R 4804   0.383   3.968  10.478  0.0475 -0.0926 -0.4533
   36POPC   H2S 4805   0.202   4.016  10.443  0.3518 -0.2387  0.6457
   36POPC    C3 4806   0.151   4.027  10.898  0.5677  0.9208 -0.3329
   36POPC    HX 4807   0.255   4.053  10.927  1.5122 -3.2756  0.3210
   36POPC    HY 4808   0.086   4.004  10.986  0.2711 -0.8717 -0.9920
   36POPC   O31 4809   0.101   4.134  10.816 -0.2096  0.6334 -0.3734
   36POPC   C31 4810  -0.028   4.135  10.786  0.1168  0.1560 -0.5661
   36POPC   O32 4811  -0.107   4.046  10.811 -0.0660 -0.6566  0.5240
   36POPC   C32 4812  -0.068   4.263  10.716 -0.3940 -0.4021 -0.5534
   36POPC   H2X 4813  -0.090   4.338  10.794  1.1273 -1.6094  1.0794
   36POPC   H2Y 4814  -0.173   4.258  10.679 -1.1415  1.6514  1.2084
   36POPC   C23 4815   0.287   3.846  10.338  0.0266  0.1793 -0.2619
   36POPC   H3R 4816   0.188   3.797  10.326 -0.3841  0.7589  0.7180
   36POPC   H3S 4817   0.357   3.764  10.365 -0.1633  0.6182  1.6374
   36POPC   C24 4818   0.322   3.915  10.214  0.4935  0.4602 -0.0218
   36POPC   H4R 4819   0.419   3.970  10.220 -1.0840  3.1798  1.6727
   36POPC   H4S 4820   0.240   3.985  10.185 -0.7537 -0.8931  0.1982
   36POPC   C25 4821   0.348   3.820  10.090 -0.7670 -1.1385 -0.1799
   36POPC   H5R 4822   0.248   3.776  10.069 -0.8519 -0.7841 -0.5330
   36POPC   H5S 4823   0.425   3.750  10.128  1.1886  0.9060 -0.2447
   36POPC   C26 4824   0.392   3.894   9.965  0.2769  0.3858  0.0513
   36POPC   H6R 4825   0.490   3.946   9.969 -0.3697  1.5201  1.6134
   36POPC   H6S 4826   0.320   3.979   9.963  1.6129  1.5283 -0.2530
   36POPC   C27 4827   0.374   3.800   9.840  0.4768 -0.3185 -0.4368
   36POPC   H7R 4828   0.273   3.753   9.844  1.3846 -2.2172  0.7373
   36POPC   H7S 4829   0.451   3.720   9.836  0.6179 -0.1357 -1.4383
   36POPC   C28 4830   0.384   3.882   9.711 -0.0259 -0.4380  0.0813
   36POPC   H8R 4831   0.482   3.933   9.729 -1.2048  1.4912  1.2240
   36POPC   H8S 4832   0.305   3.960   9.712  0.1893 -0.2196  0.1598
   36POPC   C29 4833   0.386   3.795   9.589  0.4211 -0.2063 -0.0661
   36POPC   H91 4834   0.473   3.729   9.592 -0.9855 -2.1430 -0.6446
   36POPC  C210 4835   0.306   3.802   9.481  0.4385 -0.2676 -0.0990
   36POPC  H101 4836   0.327   3.738   9.394  1.0747 -0.1670 -0.0209
   36POPC  C211 4837   0.191   3.901   9.452  0.2465 -0.7304  0.0269
   36POPC  H11R 4838   0.150   3.947   9.544  0.8518  1.4698 -0.7782
   36POPC  H11S 4839   0.108   3.854   9.395  0.3480  0.8715 -1.4636
   36POPC  C212 4840   0.240   4.002   9.345  0.1137  0.1064 -0.1484
   36POPC  H12R 4841   0.348   4.031   9.342  0.5043 -1.5234 -2.5541
   36POPC  H12S 4842   0.185   4.098   9.337 -0.6537 -0.2820  0.4994
   36POPC  C213 4843   0.232   3.944   9.203 -0.0622 -0.3244 -0.2746
   36POPC  H13R 4844   0.129   3.913   9.177 -0.1924 -0.7416  0.6895
   36POPC  H13S 4845   0.296   3.855   9.184  1.8453  1.2127 -1.1988
   36POPC  C214 4846   0.281   4.034   9.085  0.3570 -0.1865 -0.3436
   36POPC  H14R 4847   0.378   4.085   9.101  0.5112 -0.4447 -0.4386
   36POPC  H14S 4848   0.208   4.117   9.075 -0.1235 -0.9453 -3.7792
   36POPC  C215 4849   0.283   3.968   8.953 -0.4863 -0.2855 -0.7646
   36POPC  H15R 4850   0.189   3.913   8.932 -0.5239  0.0769 -1.5911
   36POPC  H15S 4851   0.353   3.883   8.942 -0.2520 -0.0522 -1.0879
   36POPC  C216 4852   0.323   4.058   8.833 -0.5795 -0.9258 -0.6378
   36POPC  H16R 4853   0.367   3.988   8.759 -2.8126 -0.0859 -2.8304
   36POPC  H16S 4854   0.401   4.132   8.862 -1.2133 -1.0292  1.3887
   36POPC  C217 4855   0.215   4.143   8.768 -0.2953  0.2458 -0.2852
   36POPC  H17R 4856   0.272   4.202   8.693 -1.2755  0.3966 -0.9250
   36POPC  H17S 4857   0.180   4.226   8.833 -0.3103 -0.7047  0.9358
   36POPC  C218 4858   0.093   4.070   8.720  0.0629 -0.3035 -0.2874
   36POPC  H18R 4859   0.062   4.015   8.812 -2.9271 -0.8149 -1.5108
   36POPC  H18S 4860   0.106   3.995   8.639 -0.4892  1.9570 -2.5038
   36POPC  H18T 4861   0.013   4.143   8.693 -1.1404 -1.0928  1.0586
   36POPC   C33 4862   0.035   4.328  10.627 -0.6194 -0.5501  1.0991
   36POPC   H3X 4863   0.135   4.309  10.671  0.4691 -0.8730 -1.4296
   36POPC   H3Y 4864   0.018   4.438  10.619 -2.1643 -1.0341 -3.8098
   36POPC   C34 4865   0.043   4.271  10.483 -0.0762  0.3864 -0.3859
   36POPC   H4X 4866  -0.057   4.274  10.434 -0.6495  1.4426  0.8138
   36POPC   H4Y 4867   0.074   4.164  10.478 -1.6573 -0.2676  2.5267
   36POPC   C35 4868   0.134   4.352  10.397 -0.3379  0.3458  0.2534
   36POPC   H5X 4869   0.228   4.360  10.456  1.3087  0.0754 -2.2551
   36POPC   H5Y 4870   0.098   4.456  10.382  2.9003  1.2608 -1.5881
   36POPC   C36 4871   0.175   4.279  10.269 -0.7209 -0.0578 -1.0804
   36POPC   H6X 4872   0.082   4.264  10.210 -1.7534  2.3993 -0.1118
   36POPC   H6Y 4873   0.219   4.178  10.284  2.4221  1.5815  1.3808
   36POPC   C37 4874   0.289   4.359  10.201 -0.3969 -0.1298 -0.6305
   36POPC   H7X 4875   0.379   4.326  10.255 -1.1950 -0.5094  0.4872
   36POPC   H7Y 4876   0.267   4.467  10.216  0.2107 -0.0045 -0.6493
   36POPC   C38 4877   0.312   4.337  10.050 -0.3487 -0.0693  0.5542
   36POPC   H8X 4878   0.324   4.227  10.042  1.4017  0.1121  0.5048
   36POPC   H8Y 4879   0.406   4.394  10.030  0.1489 -0.9468  0.3485
   36POPC   C39 4880   0.206   4.391   9.955 -0.4685  0.0215 -0.1901
   36POPC   H9X 4881   0.177   4.492   9.990 -1.5917  0.0597 -1.1912
   36POPC   H9Y 4882   0.115   4.327   9.954 -1.9330  2.0727 -0.2553
   36POPC  C310 4883   0.257   4.386   9.810 -0.1530  0.2558 -0.0592
   36POPC  H10X 4884   0.339   4.461   9.805  0.3862 -0.3586 -0.6169
   36POPC  H10Y 4885   0.179   4.434   9.748  0.2787 -0.2772 -1.0142
   36POPC  C311 4886   0.295   4.244   9.754 -1.3172  0.1163  0.1526
   36POPC  H11X 4887   0.205   4.182   9.734  0.1768 -2.0869  0.1333
   36POPC  H11Y 4888   0.358   4.193   9.829 -0.5751  1.0996  0.2042
   36POPC  C312 4889   0.369   4.285   9.623  0.1174 -0.4253  0.7024
   36POPC  H12X 4890   0.423   4.196   9.584  0.0561 -0.1769  0.0569
   36POPC  H12Y 4891   0.455   4.353   9.636 -0.9909  1.2684 -0.6292
   36POPC  C313 4892   0.280   4.329   9.503  0.1564 -0.3247  0.2352
   36POPC  H13X 4893   0.225   4.417   9.543 -1.2697 -1.3515  0.5661
   36POPC  H13Y 4894   0.207   4.249   9.477 -1.5188  0.8027  1.3979
   36POPC  C314 4895   0.381   4.357   9.388  0.4510 -0.6202  0.4844
   36POPC  H14X 4896   0.419   4.258   9.353  2.3716  0.7173 -1.3450
   36POPC  H14Y 4897   0.472   4.416   9.412  1.7417 -1.3714 -2.3587
   36POPC  C315 4898   0.308   4.428   9.269 -0.4436  0.1419 -0.1749
   36POPC  H15X 4899   0.268   4.527   9.301  0.8723  0.9987 -1.1566
   36POPC  H15Y 4900   0.228   4.356   9.241  1.1452 -1.4762 -0.5708
   36POPC  C316 4901   0.398   4.455   9.150  0.1485  0.3372 -0.1153
   36POPC  H16X 4902   0.465   4.541   9.170  1.3495 -0.9846  1.7752
   36POPC  H16Y 4903   0.346   4.489   9.058 -1.7288 -2.5884 -0.2241
   36POPC  H16Z 4904   0.469   4.371   9.133  0.3582  0.0124  2.1434
   37POPC     N 4905   6.092   0.144   6.535 -0.4009 -0.0698 -0.2522
   37POPC   C12 4906   6.231   0.200   6.540 -0.0276  0.1133  0.0926
   37POPC  H12A 4907   6.298   0.138   6.483 -1.3389 -1.9725  0.7549
   37POPC  H12B 4908   6.259   0.180   6.642 -2.3489 -0.4842  0.6464
   37POPC   C13 4909   6.015   0.178   6.652 -0.7390 -0.3140 -1.2295
   37POPC  H13A 4910   6.022   0.285   6.666 -0.6541 -0.6198  1.2680
   37POPC  H13B 4911   5.910   0.159   6.635 -1.5602  2.1645  0.6751
   37POPC  H13C 4912   6.049   0.129   6.742 -1.4137 -0.1362 -0.8739
   37POPC   C14 4913   6.017   0.189   6.416  0.5132  0.2091  0.0401
   37POPC  H14A 4914   6.058   0.150   6.325 -1.8257  1.7498 -1.7448
   37POPC  H14B 4915   5.915   0.152   6.416  0.7053 -0.3142 -0.6681
   37POPC  H14C 4916   6.014   0.297   6.406 -0.0289 -0.0301 -2.6313
   37POPC   C15 4917   6.110  -0.006   6.535  0.6721  0.1052 -0.6073
   37POPC  H15A 4918   6.162  -0.036   6.444 -0.0630  1.3901 -1.4593
   37POPC  H15B 4919   6.009  -0.042   6.527  1.2104 -0.9697 -3.4903
   37POPC  H15C 4920   6.162  -0.039   6.624  3.0879  0.8811 -1.6629
   37POPC   C11 4921   6.244   0.351   6.517  0.7067 -0.2102 -0.8211
   37POPC  H11A 4922   6.207   0.379   6.416 -0.9099  2.8921  0.5710
   37POPC  H11B 4923   6.348   0.390   6.522  0.4836  0.2506  0.2928
   37POPC     P 4924   6.133   0.574   6.599  0.4030  0.2575 -0.1997
   37POPC   O13 4925   6.076   0.596   6.468  0.3214  0.1842 -0.4072
   37POPC   O14 4926   6.245   0.667   6.634 -0.3820 -0.0336  0.3256
   37POPC   O12 4927   6.175   0.425   6.617 -0.5474  0.3957 -0.6362
   37POPC   O11 4928   6.023   0.584   6.712  0.1051  0.4434 -0.5203
   37POPC    C1 4929   5.946   0.708   6.711 -0.7858  0.2047 -0.9179
   37POPC    HA 4930   5.904   0.755   6.620 -1.4139  0.4589 -0.4988
   37POPC    HB 4931   6.015   0.787   6.747  0.6061 -2.0361  1.5573
   37POPC    C2 4932   5.811   0.696   6.803 -0.1445  1.1360 -0.3806
   37POPC    HS 4933   5.742   0.783   6.790 -1.0645  0.6222  0.9556
   37POPC   O21 4934   5.820   0.669   6.941 -0.0306  0.5951  0.4008
   37POPC   C21 4935   5.928   0.701   7.009  0.8791  0.4932  0.4342
   37POPC   O22 4936   6.023   0.762   6.973  0.0465 -0.0667  0.4223
   37POPC   C22 4937   5.923   0.644   7.151 -0.1381  0.4322  0.8935
   37POPC   H2R 4938   6.017   0.683   7.195  0.2684 -0.9300  1.2656
   37POPC   H2S 4939   5.930   0.533   7.143 -2.0664  0.4832 -2.7662
   37POPC    C3 4940   5.721   0.579   6.744  0.2277 -0.4280  0.2140
   37POPC    HX 4941   5.782   0.486   6.737 -2.1383 -2.0950  0.9786
   37POPC    HY 4942   5.695   0.601   6.638 -1.8929 -2.8005  0.1964
   37POPC   O31 4943   5.600   0.548   6.819 -0.1037 -0.3947 -0.1405
   37POPC   C31 4944   5.481   0.615   6.786 -0.0101  0.4990 -0.2734
   37POPC   O32 4945   5.476   0.703   6.705  0.1833  0.8573 -0.5721
   37POPC   C32 4946   5.365   0.561   6.870  0.5304 -0.1200  0.1714
   37POPC   H2X 4947   5.377   0.451   6.857 -2.1401 -0.3249 -0.9802
   37POPC   H2Y 4948   5.272   0.593   6.819  1.4806  0.8692 -0.9574
   37POPC   C23 4949   5.785   0.674   7.216  0.9453 -0.4417 -0.0460
   37POPC   H3R 4950   5.701   0.626   7.162  0.1841  0.4664  0.3066
   37POPC   H3S 4951   5.764   0.784   7.216 -0.5777 -0.7182 -0.4561
   37POPC   C24 4952   5.771   0.630   7.362  0.2443  0.0471  0.3215
   37POPC   H4R 4953   5.784   0.520   7.367 -0.9900 -0.1855 -1.3339
   37POPC   H4S 4954   5.669   0.649   7.402 -0.5748 -0.6355 -1.4387
   37POPC   C25 4955   5.860   0.705   7.469 -0.1765  0.1477  0.0661
   37POPC   H5R 4956   5.823   0.809   7.477 -1.0317 -0.2022  0.7638
   37POPC   H5S 4957   5.965   0.707   7.434  0.1448  0.8496  1.0390
   37POPC   C26 4958   5.836   0.640   7.606 -0.1738  0.0390 -0.0637
   37POPC   H6R 4959   5.872   0.535   7.611 -1.2099 -0.3858 -1.3085
   37POPC   H6S 4960   5.728   0.649   7.632 -0.3906  1.3460 -1.3596
   37POPC   C27 4961   5.913   0.719   7.722 -0.1411  0.2671 -0.4874
   37POPC   H7R 4962   5.896   0.829   7.720  0.3483  0.5082  3.9525
   37POPC   H7S 4963   6.018   0.690   7.699 -0.0276  0.7694 -0.6217
   37POPC   C28 4964   5.875   0.673   7.867 -0.0354  0.0967 -0.3426
   37POPC   H8R 4965   5.776   0.703   7.907 -0.6284 -3.4725  1.1342
   37POPC   H8S 4966   5.950   0.724   7.930 -2.4463  2.3210  0.8185
   37POPC   C29 4967   5.858   0.525   7.885  0.1258  0.6020 -0.2442
   37POPC   H91 4968   5.788   0.479   7.814 -0.3828  0.5302  0.3035
   37POPC  C210 4969   5.923   0.454   7.980  0.4209  0.5168 -0.5238
   37POPC  H101 4970   5.903   0.346   7.981  1.3896  0.3244  1.4226
   37POPC  C211 4971   6.026   0.502   8.083  0.2847  0.5984 -0.6230
   37POPC  H11R 4972   6.076   0.598   8.057 -2.0528  2.1369  0.3666
   37POPC  H11S 4973   6.112   0.432   8.085 -0.0811  0.1852  2.0249
   37POPC  C212 4974   5.978   0.513   8.234  0.2682  0.4530  0.1153
   37POPC  H12R 4975   5.948   0.409   8.258  1.4555 -0.0054 -0.3178
   37POPC  H12S 4976   5.884   0.571   8.238 -0.1467 -0.1060 -1.2340
   37POPC  C213 4977   6.074   0.575   8.331  0.0749 -0.4884  0.3737
   37POPC  H13R 4978   6.106   0.678   8.304  1.2034 -0.9427 -0.0366
   37POPC  H13S 4979   6.163   0.508   8.333  0.4590 -0.0540 -1.4643
   37POPC  C214 4980   6.009   0.576   8.468 -0.8598 -0.4952 -0.3110
   37POPC  H14R 4981   5.972   0.479   8.507 -0.9846 -0.9841 -1.6099
   37POPC  H14S 4982   5.923   0.645   8.453 -1.0942 -0.8815 -0.7814
   37POPC  C215 4983   6.111   0.637   8.574  0.8420  0.4497  0.2478
   37POPC  H15R 4984   6.040   0.671   8.652 -1.3676  1.8595 -2.2855
   37POPC  H15S 4985   6.150   0.729   8.526 -1.3017  0.4259 -1.6774
   37POPC  C216 4986   6.211   0.542   8.622 -0.0644 -0.1296  0.5052
   37POPC  H16R 4987   6.261   0.501   8.532 -0.8200 -1.7267  0.7860
   37POPC  H16S 4988   6.166   0.453   8.672 -1.2267 -1.3177 -2.5754
   37POPC  C217 4989   6.307   0.599   8.722 -0.5610  0.7684 -0.2398
   37POPC  H17R 4990   6.368   0.511   8.754 -0.6010  0.5929 -0.6359
   37POPC  H17S 4991   6.257   0.632   8.815 -0.9646 -1.1109  0.2410
   37POPC  C218 4992   6.385   0.717   8.671  0.3504  0.1943 -0.4880
   37POPC  H18R 4993   6.435   0.699   8.573 -0.6443  1.8582 -1.3233
   37POPC  H18S 4994   6.463   0.745   8.744  1.2272  0.5667 -1.5433
   37POPC  H18T 4995   6.325   0.810   8.666  2.4680  1.6593  0.9283
   37POPC   C33 4996   5.369   0.609   7.024 -0.2175 -0.3209 -0.0356
   37POPC   H3X 4997   5.366   0.720   7.024  1.6028 -0.2479 -0.3302
   37POPC   H3Y 4998   5.467   0.588   7.074 -0.5491  2.0645  1.7077
   37POPC   C34 4999   5.261   0.554   7.115 -0.2175  0.3312  0.1355
   37POPC   H4X 5000   5.264   0.444   7.124 -1.9434  0.2319 -0.3645
   37POPC   H4Y 5001   5.165   0.579   7.065  0.0773 -0.0671 -0.6326
   37POPC   C35 5002   5.276   0.625   7.258 -0.3706  0.3778 -0.7166
   37POPC   H5X 5003   5.243   0.730   7.245 -1.9351  0.1722  1.2189
   37POPC   H5Y 5004   5.383   0.616   7.286 -0.1945  2.8055 -0.4744
   37POPC   C36 5005   5.184   0.560   7.359  0.1243  0.9075 -0.0119
   37POPC   H6X 5006   5.232   0.466   7.393 -1.5911  0.1500  0.3949
   37POPC   H6Y 5007   5.089   0.531   7.309  0.0503  0.5779  0.3148
   37POPC   C37 5008   5.144   0.656   7.477 -0.3285 -0.0812  0.5084
   37POPC   H7X 5009   5.057   0.608   7.525 -0.8513 -1.3665 -1.6599
   37POPC   H7Y 5010   5.116   0.754   7.431  1.4209 -0.4487 -1.4358
   37POPC   C38 5011   5.255   0.664   7.590  0.2686 -0.2899 -0.3972
   37POPC   H8X 5012   5.338   0.716   7.539  0.8017 -0.2216  0.5163
   37POPC   H8Y 5013   5.282   0.557   7.604  1.7924 -0.2267 -2.6737
   37POPC   C39 5014   5.210   0.739   7.722 -0.8585  0.2579 -0.1416
   37POPC   H9X 5015   5.205   0.849   7.706 -0.8764  0.5257  1.6033
   37POPC   H9Y 5016   5.278   0.722   7.808  0.0461  1.5821 -0.5830
   37POPC  C310 5017   5.076   0.680   7.764  0.2637 -0.5218  0.3714
   37POPC  H10X 5018   5.093   0.571   7.754 -1.7096 -0.9287  1.0961
   37POPC  H10Y 5019   4.995   0.713   7.696 -0.8364 -1.6122  1.1232
   37POPC  C311 5020   5.040   0.718   7.907 -0.2761  0.0945  0.4550
   37POPC  H11X 5021   5.022   0.828   7.912  0.1102  0.2101 -0.4945
   37POPC  H11Y 5022   5.132   0.706   7.969 -1.0697 -2.3001  1.2082
   37POPC  C312 5023   4.926   0.636   7.956 -0.4233 -0.0020  0.3458
   37POPC  H12X 5024   4.968   0.540   7.991 -2.8468 -1.0523  0.4459
   37POPC  H12Y 5025   4.840   0.624   7.887 -0.4476 -2.3395  0.7566
   37POPC  C313 5026   4.875   0.698   8.088 -0.5927 -0.2027 -0.1632
   37POPC  H13X 5027   4.825   0.796   8.073  1.3565  1.1581  1.8428
   37POPC  H13Y 5028   4.975   0.721   8.132  0.4091 -0.0456 -2.4264
   37POPC  C314 5029   4.779   0.613   8.160  0.1386  0.8618 -0.9674
   37POPC  H14X 5030   4.821   0.512   8.177  0.5065  0.9034 -1.6021
   37POPC  H14Y 5031   4.687   0.601   8.098  0.9749  0.3846 -2.1283
   37POPC  C315 5032   4.743   0.666   8.301  0.7618 -0.4538  0.0035
   37POPC  H15X 5033   4.699   0.767   8.294  1.8551  0.0936  0.8519
   37POPC  H15Y 5034   4.841   0.676   8.353  1.0710 -0.5323 -0.5509
   37POPC  C316 5035   4.652   0.583   8.388 -0.5457 -0.8172  0.3340
   37POPC  H16X 5036   4.545   0.585   8.358 -0.4540  0.1761  0.0823
   37POPC  H16Y 5037   4.648   0.634   8.487  0.0540 -0.9235  0.4142
   37POPC  H16Z 5038   4.688   0.478   8.394 -0.2741 -0.7071  0.7019
   38POPC     N 5039   0.511   3.671   6.008 -0.0475 -0.0849  0.3863
   38POPC   C12 5040   0.427   3.727   6.123  0.2990 -0.6032 -0.4164
   38POPC  H12A 5041   0.325   3.727   6.086 -0.4564  1.3479  1.5682
   38POPC  H12B 5042   0.455   3.830   6.141 -0.5704 -0.2195 -1.1982
   38POPC   C13 5043   0.654   3.705   6.025  0.3905 -0.6683  0.4025
   38POPC  H13A 5044   0.660   3.812   6.016  0.8635 -0.8558 -1.8358
   38POPC  H13B 5045   0.681   3.688   6.129 -2.8701 -0.0016  1.4332
   38POPC  H13C 5046   0.716   3.650   5.957 -0.1326 -0.1810 -0.4712
   38POPC   C14 5047   0.502   3.515   6.006  0.6321 -0.2609 -0.1684
   38POPC  H14A 5048   0.565   3.474   5.929  1.1969  1.0156 -0.4018
   38POPC  H14B 5049   0.530   3.485   6.106  2.8979 -0.1463 -0.7404
   38POPC  H14C 5050   0.398   3.490   5.989  0.5528  0.2615 -0.4702
   38POPC   C15 5051   0.465   3.726   5.871 -0.5547 -0.1580 -0.3732
   38POPC  H15A 5052   0.364   3.699   5.842 -1.0360 -1.4892  2.3325
   38POPC  H15B 5053   0.534   3.692   5.795 -1.3792  1.3109 -1.7982
   38POPC  H15C 5054   0.480   3.833   5.872 -1.9557  0.0513  0.4170
   38POPC   C11 5055   0.438   3.663   6.262 -0.2594 -0.1947 -1.0471
   38POPC  H11A 5056   0.410   3.555   6.257  2.6208 -1.2082  2.3431
   38POPC  H11B 5057   0.363   3.704   6.332  1.1741 -0.4059  0.6592
   38POPC     P 5058   0.615   3.820   6.358 -0.3773  0.3992  0.4227
   38POPC   O13 5059   0.509   3.917   6.327 -0.1465 -0.3495  0.0278
   38POPC   O14 5060   0.745   3.850   6.294  0.2963  0.3208  0.6163
   38POPC   O12 5061   0.572   3.682   6.311 -0.0751 -0.7032  0.0444
   38POPC   O11 5062   0.644   3.810   6.517  0.0534 -0.1513  0.1577
   38POPC    C1 5063   0.643   3.687   6.588  0.5088  0.5052  0.5331
   38POPC    HA 5064   0.686   3.704   6.689 -0.3274  2.9855  0.5000
   38POPC    HB 5065   0.718   3.619   6.542  1.6709  0.7852  1.9504
   38POPC    C2 5066   0.500   3.629   6.611  0.4209  0.6606 -0.6928
   38POPC    HS 5067   0.452   3.612   6.512  1.2108  1.6916 -1.2544
   38POPC   O21 5068   0.430   3.725   6.686  0.0424  0.2265 -0.4139
   38POPC   C21 5069   0.304   3.711   6.674  0.4604  0.5961 -0.0445
   38POPC   O22 5070   0.246   3.647   6.589 -0.5087 -0.4449  0.4741
   38POPC   C22 5071   0.227   3.793   6.782 -0.6470  0.3550 -0.6006
   38POPC   H2R 5072   0.129   3.743   6.796 -0.5650  0.2474 -0.4169
   38POPC   H2S 5073   0.208   3.895   6.741  1.5322  1.2757  0.5916
   38POPC    C3 5074   0.514   3.490   6.678 -0.0435  0.3868 -0.9109
   38POPC    HX 5075   0.589   3.430   6.622  0.8761  1.8596 -1.2816
   38POPC    HY 5076   0.418   3.434   6.669  1.1510 -1.3452 -4.0125
   38POPC   O31 5077   0.533   3.487   6.822  0.9789  0.4574  0.8501
   38POPC   C31 5078   0.655   3.487   6.867  0.0760  0.3604 -0.1437
   38POPC   O32 5079   0.751   3.466   6.796 -0.0544 -0.2410  0.5858
   38POPC   C32 5080   0.656   3.529   7.013 -0.0530 -0.3504 -0.8397
   38POPC   H2X 5081   0.555   3.515   7.057 -0.4061 -0.5303 -1.6973
   38POPC   H2Y 5082   0.666   3.639   7.025 -0.8259 -0.4601  0.9424
   38POPC   C23 5083   0.284   3.782   6.917 -0.7402 -0.1503 -0.9462
   38POPC   H3R 5084   0.381   3.837   6.925 -0.3659 -1.0572  0.8660
   38POPC   H3S 5085   0.320   3.678   6.935  1.6937  0.5922 -1.2848
   38POPC   C24 5086   0.188   3.809   7.036 -0.0191 -1.0315 -0.1128
   38POPC   H4R 5087   0.087   3.770   7.010 -0.6710  0.5786 -0.0320
   38POPC   H4S 5088   0.180   3.920   7.037  2.3833 -0.8399 -0.5202
   38POPC   C25 5089   0.241   3.762   7.169  0.7464 -0.3225  0.5774
   38POPC   H5R 5090   0.349   3.786   7.180  1.3788 -1.8724 -1.9670
   38POPC   H5S 5091   0.219   3.653   7.177 -2.3448  0.3049  1.1791
   38POPC   C26 5092   0.169   3.833   7.283 -0.5348  0.1070 -0.3797
   38POPC   H6R 5093   0.132   3.933   7.251 -2.6250 -0.2770  0.7039
   38POPC   H6S 5094   0.238   3.842   7.369  0.8391 -2.5829 -1.1700
   38POPC   C27 5095   0.034   3.760   7.320 -0.3118  0.3267 -0.6142
   38POPC   H7R 5096   0.049   3.662   7.370 -1.8997  1.2222  1.6921
   38POPC   H7S 5097  -0.013   3.725   7.225 -3.7524  1.2357  0.6680
   38POPC   C28 5098  -0.064   3.843   7.401 -0.1445  0.0420 -0.2364
   38POPC   H8R 5099  -0.107   3.923   7.338 -1.4594  0.3525  1.0270
   38POPC   H8S 5100  -0.003   3.894   7.479 -0.7983  0.1803  0.1937
   38POPC   C29 5101  -0.173   3.747   7.461 -0.3803 -0.4000  0.1595
   38POPC   H91 5102  -0.256   3.744   7.390  0.2699  0.7171 -0.6769
   38POPC  C210 5103  -0.187   3.702   7.587  0.5146  0.2465  0.1543
   38POPC  H101 5104  -0.272   3.637   7.612  0.2035  0.6889  0.2558
   38POPC  C211 5105  -0.081   3.727   7.693  0.5912 -0.6660 -0.2461
   38POPC  H11R 5106  -0.003   3.797   7.655 -0.0971  0.3211  0.1461
   38POPC  H11S 5107  -0.027   3.633   7.719  0.6752 -0.7159 -0.6006
   38POPC  C212 5108  -0.145   3.782   7.829 -0.0751  0.1621 -0.4509
   38POPC  H12R 5109  -0.210   3.705   7.877  0.9097 -2.7785 -3.5972
   38POPC  H12S 5110  -0.217   3.861   7.798  1.0109  1.9110  1.3696
   38POPC  C213 5111  -0.048   3.830   7.931  0.0199  0.3493  0.3240
   38POPC  H13R 5112   0.004   3.921   7.896  1.1802 -0.4905 -0.1896
   38POPC  H13S 5113   0.040   3.762   7.943 -0.2735 -0.2167 -0.6543
   38POPC  C214 5114  -0.103   3.839   8.077 -0.4661  0.2411  0.8066
   38POPC  H14R 5115  -0.172   3.926   8.078  1.8410  2.1194  1.9079
   38POPC  H14S 5116  -0.029   3.886   8.145  2.0142  0.6860 -2.0652
   38POPC  C215 5117  -0.178   3.722   8.141 -0.6960 -0.1602 -0.3295
   38POPC  H15R 5118  -0.104   3.640   8.150  1.2723  1.6518  0.1701
   38POPC  H15S 5119  -0.263   3.679   8.084  0.5773 -1.5953 -1.1749
   38POPC  C216 5120  -0.241   3.747   8.280  0.0471  0.0125 -0.1493
   38POPC  H16R 5121  -0.305   3.837   8.272 -0.1186 -0.0962 -0.0581
   38POPC  H16S 5122  -0.170   3.781   8.358 -0.0624  0.2006 -0.1316
   38POPC  C217 5123  -0.319   3.614   8.324  0.5831  0.2330 -0.4638
   38POPC  H17R 5124  -0.252   3.527   8.345 -0.9129 -1.1696 -1.3859
   38POPC  H17S 5125  -0.405   3.581   8.261  0.4693 -3.4740  1.4364
   38POPC  C218 5126  -0.398   3.637   8.461  0.2668 -0.5860 -0.4123
   38POPC  H18R 5127  -0.460   3.729   8.457  3.9805  2.0911  0.6633
   38POPC  H18S 5128  -0.327   3.634   8.546  1.7495 -0.4799 -1.6354
   38POPC  H18T 5129  -0.465   3.549   8.465  0.9570 -1.1145 -0.5237
   38POPC   C33 5130   0.750   3.437   7.095 -0.7317  0.2802  0.6590
   38POPC   H3X 5131   0.849   3.424   7.047 -1.2714  1.1360 -0.7393
   38POPC   H3Y 5132   0.717   3.331   7.095 -2.6008  0.8057 -1.7261
   38POPC   C34 5133   0.772   3.494   7.232 -0.7053  0.3487  0.1200
   38POPC   H4X 5134   0.678   3.515   7.287  0.4706  1.7847  1.6721
   38POPC   H4Y 5135   0.813   3.596   7.212  0.1899 -0.4762 -2.3293
   38POPC   C35 5136   0.868   3.410   7.318  0.2046  0.1419  0.2920
   38POPC   H5X 5137   0.970   3.414   7.274  0.3514  0.4621  0.6512
   38POPC   H5Y 5138   0.829   3.307   7.306 -1.6418  1.0887 -2.0253
   38POPC   C36 5139   0.861   3.453   7.466 -0.1775 -0.4888 -0.6406
   38POPC   H6X 5140   0.752   3.465   7.486  0.0799 -0.3272  0.7198
   38POPC   H6Y 5141   0.902   3.556   7.468  1.8733 -1.2839  0.1360
   38POPC   C37 5142   0.926   3.355   7.560 -0.0219 -0.8142  0.0305
   38POPC   H7X 5143   1.035   3.372   7.573 -0.0927  0.2393 -0.6773
   38POPC   H7Y 5144   0.917   3.251   7.524  0.5345 -0.2670 -1.7129
   38POPC   C38 5145   0.855   3.360   7.698 -0.3448  0.3374  0.0632
   38POPC   H8X 5146   0.897   3.290   7.772  0.7324  1.0723  0.1518
   38POPC   H8Y 5147   0.747   3.339   7.684 -0.1695  1.3693 -3.3006
   38POPC   C39 5148   0.850   3.499   7.773 -0.0241  0.5210 -0.3936
   38POPC   H9X 5149   0.784   3.487   7.861  0.2749 -0.1059 -0.2529
   38POPC   H9Y 5150   0.803   3.581   7.714 -0.5607  0.6504  0.2083
   38POPC  C310 5151   0.987   3.553   7.819 -0.9273  0.0990  0.2309
   38POPC  H10X 5152   0.964   3.647   7.873  0.1079 -1.1026  2.8537
   38POPC  H10Y 5153   1.064   3.567   7.740 -0.2180 -1.2614  0.6661
   38POPC  C311 5154   1.043   3.456   7.922 -0.1231  0.4864  0.7122
   38POPC  H11X 5155   1.106   3.381   7.870 -0.0395  1.3613 -0.4576
   38POPC  H11Y 5156   0.970   3.402   7.986  1.4505 -1.2384  1.1163
   38POPC  C312 5157   1.151   3.527   8.004  0.1770 -0.2595  0.2779
   38POPC  H12X 5158   1.201   3.590   7.927 -1.9182 -1.7281 -2.3982
   38POPC  H12Y 5159   1.229   3.458   8.042  0.0907  0.0163  0.9529
   38POPC  C313 5160   1.088   3.610   8.117 -0.2050  0.2722 -0.8579
   38POPC  H13X 5161   1.002   3.669   8.081 -2.0333  1.6434  5.2181
   38POPC  H13Y 5162   1.170   3.671   8.161 -0.2377  0.8157 -1.5536
   38POPC  C314 5163   1.032   3.521   8.230  0.2273  0.1995 -0.2176
   38POPC  H14X 5164   1.112   3.445   8.240  1.2932  1.0012 -2.3008
   38POPC  H14Y 5165   0.938   3.478   8.191 -0.4255  0.2048  1.2882
   38POPC  C315 5166   1.015   3.596   8.363  0.3507  0.5080 -0.2036
   38POPC  H15X 5167   1.100   3.666   8.375  0.5744  0.3268 -0.6921
   38POPC  H15Y 5168   1.020   3.521   8.445 -1.2170  1.0941  0.4262
   38POPC  C316 5169   0.881   3.660   8.390 -0.1826  0.2106 -0.2984
   38POPC  H16X 5170   0.864   3.748   8.324  1.0872  1.0420  0.4682
   38POPC  H16Y 5171   0.875   3.711   8.489  3.0914  0.3950 -0.1390
   38POPC  H16Z 5172   0.809   3.576   8.382 -1.5903  1.4808 -1.3106
   39POPC     N 5173   2.594   1.669   6.140  0.6046 -0.0889  0.1972
   39POPC   C12 5174   2.601   1.598   6.270 -0.8273  0.2535 -0.2698
   39POPC  H12A 5175   2.589   1.492   6.254  1.4795  0.2608 -2.4001
   39POPC  H12B 5176   2.522   1.630   6.335 -1.7616 -0.0922 -1.2244
   39POPC   C13 5177   2.449   1.661   6.094 -0.5189 -0.2557  0.6291
   39POPC  H13A 5178   2.395   1.710   6.174  0.8702 -0.5173  1.7335
   39POPC  H13B 5179   2.422   1.723   6.010  2.0395 -0.7911 -0.6243
   39POPC  H13C 5180   2.420   1.559   6.076 -0.5446 -0.2744  0.7720
   39POPC   C14 5181   2.640   1.808   6.137 -0.3502 -0.1906 -0.1767
   39POPC  H14A 5182   2.744   1.797   6.164 -0.2426  1.3760  0.0881
   39POPC  H14B 5183   2.617   1.869   6.051  2.5687  0.2215 -0.7387
   39POPC  H14C 5184   2.589   1.858   6.218  0.9731  0.7296  0.1064
   39POPC   C15 5185   2.684   1.611   6.034  0.2539 -0.0616  0.4744
   39POPC  H15A 5186   2.784   1.604   6.073  1.3373  0.6929 -2.1184
   39POPC  H15B 5187   2.680   1.664   5.940  1.7294 -1.3708 -0.3432
   39POPC  H15C 5188   2.658   1.508   6.013 -0.1027 -0.4725  2.7417
   39POPC   C11 5189   2.734   1.622   6.342  0.3031  0.4282  0.2447
   39POPC  H11A 5190   2.715   1.569   6.437  3.8385  1.2294  1.4610
   39POPC  H11B 5191   2.751   1.728   6.371  1.5686  0.0047  1.0874
   39POPC     P 5192   2.917   1.449   6.307  0.0898 -0.1333 -0.5122
   39POPC   O13 5193   3.044   1.436   6.230 -0.1831  0.6662  0.0790
   39POPC   O14 5194   2.814   1.346   6.295 -0.4441 -0.3692  0.0136
   39POPC   O12 5195   2.845   1.582   6.262  0.1355 -0.2677 -0.0708
   39POPC   O11 5196   2.953   1.482   6.457  0.0780 -0.4295 -0.5688
   39POPC    C1 5197   3.035   1.597   6.484 -0.2738 -0.1149 -0.2612
   39POPC    HA 5198   2.972   1.667   6.542 -2.1805 -1.5209 -0.5831
   39POPC    HB 5199   3.072   1.648   6.392 -0.4632 -1.5482 -1.1575
   39POPC    C2 5200   3.144   1.558   6.597  0.1428 -0.7168  1.1336
   39POPC    HS 5201   3.195   1.466   6.563 -0.4248 -0.5751 -0.1122
   39POPC   O21 5202   3.077   1.534   6.721  0.5141  0.3985  0.0666
   39POPC   C21 5203   3.093   1.416   6.782 -0.8079 -0.4772 -0.2471
   39POPC   O22 5204   3.156   1.320   6.731  0.0150 -0.0009 -0.8850
   39POPC   C22 5205   3.016   1.409   6.919  0.3928 -0.0654  0.1488
   39POPC   H2R 5206   2.911   1.435   6.896  0.8510  1.6971 -0.0497
   39POPC   H2S 5207   3.047   1.491   6.988 -1.3791 -1.2322  2.3798
   39POPC    C3 5208   3.253   1.673   6.622 -0.1052  0.2122 -0.2811
   39POPC    HX 5209   3.190   1.761   6.648 -0.4926 -0.5885  1.6059
   39POPC    HY 5210   3.292   1.688   6.520 -0.1404 -1.6675 -0.5969
   39POPC   O31 5211   3.354   1.655   6.725  0.0748 -0.2327 -0.5309
   39POPC   C31 5212   3.454   1.573   6.690 -0.4010  0.5208 -0.2698
   39POPC   O32 5213   3.468   1.514   6.590 -0.4340 -0.3318  0.2327
   39POPC   C32 5214   3.545   1.551   6.811  0.0486  0.6662  0.0273
   39POPC   H2X 5215   3.612   1.466   6.785 -0.9447 -0.0621 -0.1797
   39POPC   H2Y 5216   3.612   1.640   6.815  0.8107  0.0963  0.2430
   39POPC   C23 5217   3.023   1.273   6.985 -0.2457 -0.1868  0.9207
   39POPC   H3R 5218   3.010   1.200   6.902  1.8621  0.8730 -0.3839
   39POPC   H3S 5219   2.925   1.255   7.034 -0.7461  0.7501  0.2658
   39POPC   C24 5220   3.143   1.242   7.072 -0.2043  0.1206 -0.1992
   39POPC   H4R 5221   3.239   1.262   7.020 -0.5205 -2.2763 -1.8234
   39POPC   H4S 5222   3.151   1.134   7.097 -0.8288 -0.1338 -1.0642
   39POPC   C25 5223   3.139   1.309   7.215  0.6665  0.6148  0.5777
   39POPC   H5R 5224   3.111   1.417   7.208 -0.4665  0.3854  1.4526
   39POPC   H5S 5225   3.244   1.306   7.251  1.9998  0.8978 -3.1400
   39POPC   C26 5226   3.039   1.242   7.323 -0.3796  0.5027  0.1466
   39POPC   H6R 5227   3.074   1.137   7.325 -0.1517  0.5860  0.5446
   39POPC   H6S 5228   2.939   1.241   7.275  0.3040 -0.8004 -1.2703
   39POPC   C27 5229   3.036   1.311   7.463  0.2139 -0.1198  0.4520
   39POPC   H7R 5230   3.010   1.417   7.440 -1.4149 -0.8596 -1.2498
   39POPC   H7S 5231   3.130   1.307   7.521  0.6545  0.3730 -0.2219
   39POPC   C28 5232   2.920   1.252   7.543 -0.0531  0.1794  0.4660
   39POPC   H8R 5233   2.824   1.242   7.488  0.7253 -3.2899 -0.3958
   39POPC   H8S 5234   2.906   1.327   7.624 -1.1797  1.7546 -1.1641
   39POPC   C29 5235   2.944   1.120   7.606 -0.4798 -0.1179  0.3562
   39POPC   H91 5236   2.928   1.041   7.531  0.6728 -0.6247  0.6446
   39POPC  C210 5237   2.989   1.087   7.728 -0.4368 -0.4546 -0.8543
   39POPC  H101 5238   2.987   0.978   7.747 -3.3595 -0.0142  1.7047
   39POPC  C211 5239   3.033   1.176   7.832  0.2146 -0.4091  0.2439
   39POPC  H11R 5240   3.041   1.282   7.800 -3.0726 -0.3051 -0.4395
   39POPC  H11S 5241   3.133   1.142   7.867  0.8125 -0.6529 -1.6494
   39POPC  C212 5242   2.925   1.181   7.954 -0.0619  0.5659  0.2368
   39POPC  H12R 5243   2.890   1.078   7.977 -3.4664  1.9579  1.6457
   39POPC  H12S 5244   2.842   1.236   7.903  0.2299  2.4395  1.7137
   39POPC  C213 5245   2.982   1.228   8.081  0.0807 -0.2137 -0.1411
   39POPC  H13R 5246   3.089   1.197   8.088  0.8713  2.1065 -1.2642
   39POPC  H13S 5247   2.932   1.196   8.175  1.5485  2.1857  1.5249
   39POPC  C214 5248   2.996   1.380   8.089  0.2302 -0.1108  0.3570
   39POPC  H14R 5249   2.892   1.419   8.098  0.2110  0.4293 -1.7715
   39POPC  H14S 5250   3.041   1.407   7.991 -0.1508 -1.3951 -0.1822
   39POPC  C215 5251   3.079   1.412   8.205 -0.4714  1.1308  0.0102
   39POPC  H15R 5252   3.183   1.393   8.173 -0.4684 -0.7912  1.1132
   39POPC  H15S 5253   3.072   1.358   8.302 -1.1251  2.1560  0.5411
   39POPC  C216 5254   3.052   1.556   8.241  0.1118 -0.3531  0.2445
   39POPC  H16R 5255   2.970   1.612   8.191 -1.2350 -1.6209  0.9763
   39POPC  H16S 5256   3.143   1.610   8.208  0.4729 -2.0005 -1.5323
   39POPC  C217 5257   3.068   1.579   8.397 -0.0246  0.0331  0.2707
   39POPC  H17R 5258   3.159   1.518   8.419  0.5548  0.1192 -1.7736
   39POPC  H17S 5259   2.975   1.543   8.444 -1.4940  4.4370  1.0058
   39POPC  C218 5260   3.102   1.729   8.449 -0.3483 -0.3149 -0.1247
   39POPC  H18R 5261   3.208   1.740   8.416 -0.5627  2.1030 -0.0950
   39POPC  H18S 5262   3.105   1.730   8.560  1.2854  2.8105 -0.1454
   39POPC  H18T 5263   3.040   1.810   8.405  0.5984  1.4427  1.7058
   39POPC   C33 5264   3.467   1.531   6.949 -0.0117 -0.3284 -0.3156
   39POPC   H3X 5265   3.419   1.435   6.923  0.7935 -1.7034  2.9676
   39POPC   H3Y 5266   3.390   1.610   6.961 -0.2951 -0.4533 -1.3503
   39POPC   C34 5267   3.560   1.517   7.064 -0.1505  0.0974 -0.7382
   39POPC   H4X 5268   3.602   1.617   7.087 -0.2975  0.1899 -0.8784
   39POPC   H4Y 5269   3.645   1.449   7.039 -0.0794 -0.4197  0.8242
   39POPC   C35 5270   3.489   1.451   7.188  0.2822 -0.1117  0.4207
   39POPC   H5X 5271   3.455   1.353   7.149 -1.7259  0.7062  0.0337
   39POPC   H5Y 5272   3.394   1.505   7.210  0.8354  1.0659 -0.0052
   39POPC   C36 5273   3.584   1.442   7.307  0.0201 -0.1002 -0.6021
   39POPC   H6X 5274   3.620   1.544   7.331  2.2748 -0.6035 -1.6827
   39POPC   H6Y 5275   3.673   1.387   7.269 -1.0622 -2.1803 -0.1807
   39POPC   C37 5276   3.518   1.365   7.420 -0.1699 -0.3881 -0.4097
   39POPC   H7X 5277   3.466   1.280   7.369 -1.3199 -0.1600  0.3700
   39POPC   H7Y 5278   3.436   1.427   7.462 -0.5197 -1.2145  0.1374
   39POPC   C38 5279   3.612   1.315   7.524 -0.4878 -0.0022  0.0687
   39POPC   H8X 5280   3.654   1.406   7.572 -1.6368 -0.1317  1.3379
   39POPC   H8Y 5281   3.702   1.255   7.495 -1.3368 -1.0120 -0.5035
   39POPC   C39 5282   3.536   1.242   7.643 -0.4460 -0.0434  0.0215
   39POPC   H9X 5283   3.517   1.136   7.614 -1.3594 -0.1002  0.8333
   39POPC   H9Y 5284   3.436   1.285   7.664 -0.4704  0.3755 -0.9412
   39POPC  C310 5285   3.618   1.240   7.768 -0.5553 -0.3128  0.0917
   39POPC  H10X 5286   3.670   1.339   7.762  0.7220 -1.0071 -0.5692
   39POPC  H10Y 5287   3.700   1.166   7.775  1.4730  1.9487  0.9245
   39POPC  C311 5288   3.532   1.237   7.894 -0.0687 -0.3527  0.1720
   39POPC  H11X 5289   3.475   1.332   7.899 -1.6091 -1.3461  2.4283
   39POPC  H11Y 5290   3.603   1.240   7.980  1.5716 -1.6989 -1.0997
   39POPC  C312 5291   3.451   1.108   7.930  0.6156 -0.3693 -0.3569
   39POPC  H12X 5292   3.509   1.014   7.942 -0.6230 -1.0284  0.5585
   39POPC  H12Y 5293   3.383   1.093   7.843 -0.2887 -2.6909  0.7008
   39POPC  C313 5294   3.360   1.130   8.046 -0.2591 -0.4803  0.4461
   39POPC  H13X 5295   3.271   1.064   8.057 -1.1355  0.9724  2.3536
   39POPC  H13Y 5296   3.309   1.229   8.053  0.6104 -0.1009  1.6094
   39POPC  C314 5297   3.432   1.106   8.182  0.0538 -0.8173  0.2395
   39POPC  H14X 5298   3.529   1.161   8.184 -0.9407  0.9525  1.0124
   39POPC  H14Y 5299   3.449   0.998   8.199 -3.4570 -1.2835  1.2211
   39POPC  C315 5300   3.354   1.163   8.299  0.3593  0.0209  0.3855
   39POPC  H15X 5301   3.257   1.111   8.313 -0.2829  0.7366 -1.3023
   39POPC  H15Y 5302   3.337   1.271   8.279 -0.6952 -0.0838  0.6751
   39POPC  C316 5303   3.428   1.146   8.434 -0.2939 -0.5509 -0.1905
   39POPC  H16X 5304   3.369   1.129   8.527 -0.2880  1.2298  0.1588
   39POPC  H16Y 5305   3.477   1.245   8.438 -5.0450  1.9753 -0.2829
   39POPC  H16Z 5306   3.502   1.064   8.429 -0.0445 -0.4469  1.3672
   40POPC     N 5307   1.885   5.287   6.280 -0.8541  0.2622  0.0744
   40POPC   C12 5308   2.004   5.203   6.327  0.0651 -0.4297  0.8044
   40POPC  H12A 5309   2.091   5.229   6.269 -1.6204  0.2768 -1.4958
   40POPC  H12B 5310   1.984   5.098   6.317 -0.7897 -0.2993  1.1210
   40POPC   C13 5311   1.764   5.225   6.348  0.1950 -0.1227  0.2482
   40POPC  H13A 5312   1.752   5.119   6.330  1.6145 -0.1156 -0.8299
   40POPC  H13B 5313   1.778   5.245   6.453 -0.9397  0.7137  0.2480
   40POPC  H13C 5314   1.679   5.287   6.325 -0.2320 -0.4438  0.9425
   40POPC   C14 5315   1.893   5.430   6.323 -0.1615  0.4744  0.0234
   40POPC  H14A 5316   1.873   5.434   6.430 -1.5131  3.1950 -0.2838
   40POPC  H14B 5317   1.991   5.471   6.309 -0.4497  1.7576  1.5369
   40POPC  H14C 5318   1.833   5.497   6.263 -1.1164 -1.1055 -0.8098
   40POPC   C15 5319   1.862   5.273   6.136  0.4232  0.1917  0.5175
   40POPC  H15A 5320   1.771   5.312   6.094 -0.9243 -2.0274  1.2729
   40POPC  H15B 5321   1.873   5.167   6.121 -1.5518  0.0813 -0.3439
   40POPC  H15C 5322   1.945   5.322   6.087  1.4291 -0.1145  1.9085
   40POPC   C11 5323   2.055   5.222   6.473 -0.2974 -0.0710 -0.7489
   40POPC  H11A 5324   2.120   5.134   6.494 -0.4468  0.3272  1.5811
   40POPC  H11B 5325   1.971   5.219   6.545  0.1540 -3.9436 -0.2459
   40POPC     P 5326   2.236   5.396   6.401  0.0594 -0.2371 -0.0600
   40POPC   O13 5327   2.196   5.529   6.360  0.0513 -0.2621 -0.1533
   40POPC   O14 5328   2.268   5.294   6.296 -0.5804 -0.3175 -0.2363
   40POPC   O12 5329   2.125   5.341   6.497  0.2222  0.1791  0.3375
   40POPC   O11 5330   2.360   5.398   6.495  0.2321  0.4223  0.9355
   40POPC    C1 5331   2.425   5.275   6.539 -0.4633 -0.4499 -0.2752
   40POPC    HA 5332   2.527   5.285   6.494 -1.4488  1.2269 -2.2521
   40POPC    HB 5333   2.375   5.183   6.502 -0.8897 -1.0114  1.6528
   40POPC    C2 5334   2.432   5.270   6.692 -0.9569  0.3631 -0.6572
   40POPC    HS 5335   2.424   5.373   6.732 -3.2126 -0.1385  0.2438
   40POPC   O21 5336   2.548   5.201   6.739  0.2491  0.4977  0.1218
   40POPC   C21 5337   2.662   5.263   6.749  0.0502 -0.0972  0.1084
   40POPC   O22 5338   2.677   5.376   6.702  0.5679 -0.6703  0.7244
   40POPC   C22 5339   2.768   5.186   6.816 -0.3905  0.1039 -0.0303
   40POPC   H2R 5340   2.870   5.191   6.771  0.4808  3.0540  2.1764
   40POPC   H2S 5341   2.730   5.082   6.806  1.2258 -0.5629  0.6729
   40POPC    C3 5342   2.301   5.200   6.741 -0.4433  0.0514  0.2810
   40POPC    HX 5343   2.303   5.106   6.683 -0.5313 -0.6963  1.4612
   40POPC    HY 5344   2.217   5.266   6.710  0.7980  1.2157 -0.6512
   40POPC   O31 5345   2.282   5.181   6.884  0.5281 -0.5131  0.2582
   40POPC   C31 5346   2.201   5.079   6.924 -0.7070  0.0069 -0.5222
   40POPC   O32 5347   2.127   5.010   6.857 -0.7646  0.1723 -0.1770
   40POPC   C32 5348   2.223   5.056   7.073 -0.1923 -0.2766 -0.1406
   40POPC   H2X 5349   2.333   5.068   7.085  0.0608 -3.9515  1.7433
   40POPC   H2Y 5350   2.198   4.949   7.091 -0.2166 -0.1395  0.6197
   40POPC   C23 5351   2.771   5.213   6.964  0.5321 -0.2307 -0.3446
   40POPC   H3R 5352   2.681   5.182   7.021  1.4170  0.1984  1.3181
   40POPC   H3S 5353   2.757   5.323   6.969  0.1049 -0.1615 -2.4596
   40POPC   C24 5354   2.905   5.170   7.039  0.2663  0.2844  0.1750
   40POPC   H4R 5355   2.985   5.213   6.975 -1.6769 -0.3679 -2.7748
   40POPC   H4S 5356   2.911   5.060   7.052  1.5160  0.2799 -0.4631
   40POPC   C25 5357   2.916   5.230   7.184 -0.2215 -0.0593 -0.3288
   40POPC   H5R 5358   2.917   5.341   7.179  0.0284 -0.0708 -0.5449
   40POPC   H5S 5359   3.012   5.192   7.222 -0.3826 -0.8352 -0.7002
   40POPC   C26 5360   2.815   5.161   7.275  0.0316  0.5074  0.0949
   40POPC   H6R 5361   2.854   5.060   7.301 -0.1107  0.6391  0.8395
   40POPC   H6S 5362   2.720   5.136   7.223  0.9518 -2.4722 -0.2158
   40POPC   C27 5363   2.789   5.236   7.397  0.1654  0.1477  0.9043
   40POPC   H7R 5364   2.710   5.314   7.392  2.2703  2.4374  2.3231
   40POPC   H7S 5365   2.877   5.297   7.426  1.1715  0.4490 -2.6115
   40POPC   C28 5366   2.753   5.129   7.505 -0.0902  0.1840  1.3929
   40POPC   H8R 5367   2.842   5.063   7.502  0.7854  1.3071  2.2609
   40POPC   H8S 5368   2.674   5.060   7.469  0.9266  0.4137 -1.4348
   40POPC   C29 5369   2.723   5.175   7.649  0.1059 -0.4259 -0.1500
   40POPC   H91 5370   2.640   5.247   7.649  0.7406  0.3162 -0.2518
   40POPC  C210 5371   2.777   5.142   7.763 -0.4270  0.0141 -0.5144
   40POPC  H101 5372   2.733   5.183   7.855  1.0971 -2.4099  1.3919
   40POPC  C211 5373   2.890   5.050   7.786 -0.1321  0.1263  0.3942
   40POPC  H11R 5374   2.989   5.101   7.789  0.1553 -0.5363  3.0293
   40POPC  H11S 5375   2.891   4.969   7.710  0.7912  1.3108 -0.8997
   40POPC  C212 5376   2.877   4.973   7.925 -1.1638  0.0052  0.3973
   40POPC  H12R 5377   2.933   4.879   7.906  1.4431  1.4519  0.6603
   40POPC  H12S 5378   2.773   4.935   7.928 -0.1123 -2.8502  1.8203
   40POPC  C213 5379   2.923   5.050   8.049  0.5696  0.6462  0.5389
   40POPC  H13R 5380   2.850   5.130   8.077 -0.9249  0.1188 -1.7607
   40POPC  H13S 5381   3.024   5.094   8.038 -0.3938  3.2139  1.5783
   40POPC  C214 5382   2.938   4.955   8.173 -0.0548  0.3301  0.2898
   40POPC  H14R 5383   3.024   4.889   8.150  1.1997  1.5385  1.4303
   40POPC  H14S 5384   2.836   4.910   8.171 -0.2425  0.7406  0.4160
   40POPC  C215 5385   2.985   5.035   8.299  0.2479  0.3362  0.3701
   40POPC  H15R 5386   3.091   5.063   8.282  1.5719 -3.4649  1.7569
   40POPC  H15S 5387   2.983   4.973   8.391 -0.5379 -2.7635 -1.6478
   40POPC  C216 5388   2.913   5.164   8.340 -0.3703  0.8510 -0.3073
   40POPC  H16R 5389   2.819   5.140   8.394  0.7983 -1.9629  0.5536
   40POPC  H16S 5390   2.898   5.227   8.249 -1.1060 -0.9552 -1.4646
   40POPC  C217 5391   3.006   5.242   8.439  0.5662 -0.6730 -0.5781
   40POPC  H17R 5392   3.111   5.250   8.405  1.0031 -1.8564  0.4575
   40POPC  H17S 5393   3.005   5.174   8.526 -0.5364  0.4875  0.3300
   40POPC  C218 5394   2.968   5.387   8.478  0.2677  0.9437 -0.1886
   40POPC  H18R 5395   2.870   5.407   8.525 -0.0547  0.2748 -0.5711
   40POPC  H18S 5396   2.973   5.447   8.384 -0.6757 -0.1012 -0.9204
   40POPC  H18T 5397   3.042   5.423   8.553 -0.4951  0.9463  0.5714
   40POPC   C33 5398   2.158   5.158   7.179 -0.5979  0.2629  0.5389
   40POPC   H3X 5399   2.049   5.138   7.174 -0.6894  0.8333  0.2785
   40POPC   H3Y 5400   2.168   5.265   7.154 -0.0192 -0.0223 -0.4604
   40POPC   C34 5401   2.220   5.134   7.322  0.4552 -0.1977  0.7909
   40POPC   H4X 5402   2.331   5.132   7.312  0.3327  0.1918 -0.7049
   40POPC   H4Y 5403   2.204   5.035   7.372  1.8321 -1.4390 -1.1479
   40POPC   C35 5404   2.184   5.246   7.421 -0.2378 -0.0713  0.5119
   40POPC   H5X 5405   2.084   5.229   7.468 -0.8244  1.8165  0.0007
   40POPC   H5Y 5406   2.177   5.339   7.361  0.7522  0.0461  0.5714
   40POPC   C36 5407   2.292   5.266   7.533 -0.1916 -0.3377 -0.5239
   40POPC   H6X 5408   2.386   5.312   7.495  1.6985 -1.5060  2.5149
   40POPC   H6Y 5409   2.323   5.164   7.564  0.6267 -0.0569 -0.3976
   40POPC   C37 5410   2.252   5.343   7.665  0.6721  0.0592 -0.0588
   40POPC   H7X 5411   2.145   5.317   7.684  0.9024  0.0961  1.3629
   40POPC   H7Y 5412   2.266   5.453   7.654 -0.0561  0.3595  1.8074
   40POPC   C38 5413   2.332   5.294   7.794 -0.5083 -0.0637 -0.3357
   40POPC   H8X 5414   2.438   5.322   7.774  0.0776 -2.9733 -1.4972
   40POPC   H8Y 5415   2.325   5.183   7.794 -1.1229 -0.0299 -1.5209
   40POPC   C39 5416   2.268   5.363   7.916  0.1490  0.7846  0.0259
   40POPC   H9X 5417   2.162   5.332   7.917  0.6666 -1.2184 -2.5365
   40POPC   H9Y 5418   2.282   5.473   7.909  2.4628  0.5818  0.8678
   40POPC  C310 5419   2.325   5.321   8.054  1.2151 -0.4988  0.5727
   40POPC  H10X 5420   2.299   5.217   8.082  0.7975 -0.2570  1.1007
   40POPC  H10Y 5421   2.272   5.390   8.124  1.0508  0.0166 -0.0546
   40POPC  C311 5422   2.474   5.346   8.070 -0.1742  0.3838  0.4131
   40POPC  H11X 5423   2.486   5.454   8.093 -0.0637  0.7917 -1.5239
   40POPC  H11Y 5424   2.536   5.306   7.987 -2.0959 -0.4822 -0.6360
   40POPC  C312 5425   2.534   5.276   8.192 -0.1426 -0.2515 -0.6570
   40POPC  H12X 5426   2.643   5.270   8.174  0.3563 -0.2063  2.1589
   40POPC  H12Y 5427   2.494   5.172   8.196  2.0980 -1.0551  2.0548
   40POPC  C313 5428   2.496   5.354   8.317 -0.1304  0.5555 -0.9787
   40POPC  H13X 5429   2.386   5.354   8.330 -0.0435 -2.3359 -0.0267
   40POPC  H13Y 5430   2.539   5.457   8.314 -1.1393  1.0977  1.7039
   40POPC  C314 5431   2.557   5.290   8.445  0.1011 -0.4237  0.2695
   40POPC  H14X 5432   2.662   5.263   8.421  0.2028 -1.4658  1.8304
   40POPC  H14Y 5433   2.500   5.198   8.469  0.0477 -0.5727 -0.4018
   40POPC  C315 5434   2.568   5.375   8.573 -0.0905 -0.5498  0.5215
   40POPC  H15X 5435   2.463   5.405   8.595  0.0040  0.2410 -0.1036
   40POPC  H15Y 5436   2.626   5.469   8.561 -0.3213 -0.3788  0.7323
   40POPC  C316 5437   2.626   5.312   8.704 -1.0317 -0.4509 -0.3611
   40POPC  H16X 5438   2.736   5.296   8.698 -1.1911 -1.7660  0.0568
   40POPC  H16Y 5439   2.579   5.212   8.719  2.4169 -2.3163 -1.3060
   40POPC  H16Z 5440   2.592   5.374   8.789 -2.4676  0.1414 -1.3447
   41CHL1    C3 5441   2.409   1.730  10.166 -0.4317  1.0842  0.8873
   41CHL1    H3 5442   2.421   1.621  10.145 -2.2383  1.4731 -2.6006
   41CHL1    O3 5443   2.417   1.748  10.304 -0.2403  0.0010 -0.8254
   41CHL1   H3' 5444   2.375   1.833  10.315 -1.0871 -0.5828  0.5571
   41CHL1    C4 5445   2.516   1.815  10.099  0.4502  0.3334  0.9729
   41CHL1   H4A 5446   2.497   1.920  10.129 -2.2590  0.1570  0.0151
   41CHL1   H4B 5447   2.625   1.802  10.120 -0.0487 -0.8722  2.8854
   41CHL1    C5 5448   2.505   1.802   9.948  0.5574  0.2008 -0.3866
   41CHL1    C6 5449   2.606   1.768   9.868  0.1005 -0.1179  0.0531
   41CHL1    H6 5450   2.703   1.746   9.917 -0.5134  1.8795  2.2594
   41CHL1    C7 5451   2.605   1.759   9.725 -0.5175  0.4075 -0.1056
   41CHL1   H7A 5452   2.708   1.787   9.693 -0.2120 -1.0577 -0.4363
   41CHL1   H7B 5453   2.599   1.653   9.694  2.3447 -0.1303  1.0210
   41CHL1    C8 5454   2.487   1.826   9.663  0.2377  0.8201 -0.3488
   41CHL1    H8 5455   2.503   1.935   9.676  2.8953  0.2333  2.1160
   41CHL1   C14 5456   2.469   1.783   9.522 -0.3796 -0.0608  0.2673
   41CHL1   H14 5457   2.451   1.674   9.538  2.1441 -0.6973 -0.9675
   41CHL1   C15 5458   2.590   1.773   9.419 -0.4279  0.0139  0.1691
   41CHL1  H15A 5459   2.648   1.868   9.428 -1.6746  0.7616  0.4865
   41CHL1  H15B 5460   2.650   1.687   9.456 -0.0671 -0.2126 -0.9280
   41CHL1   C16 5461   2.527   1.763   9.280  0.7514 -0.2130  0.0975
   41CHL1  H16A 5462   2.561   1.852   9.222 -0.9248  1.1742  1.1792
   41CHL1  H16B 5463   2.550   1.661   9.244 -2.7753 -0.7259 -0.8852
   41CHL1   C17 5464   2.372   1.778   9.304 -0.5725 -0.2941  0.3050
   41CHL1   H17 5465   2.338   1.673   9.312 -0.3065 -0.5088 -1.2922
   41CHL1   C13 5466   2.347   1.840   9.439  0.3594 -0.0452 -0.6710
   41CHL1   C18 5467   2.360   1.993   9.425  0.4103  0.4583 -0.0898
   41CHL1  H18A 5468   2.370   2.043   9.524  2.7761  0.4781 -0.2956
   41CHL1  H18B 5469   2.451   2.032   9.374  2.0590 -1.6194  1.1467
   41CHL1  H18C 5470   2.274   2.041   9.374 -1.6504 -0.2892  2.5501
   41CHL1   C12 5471   2.227   1.805   9.521 -0.5058 -0.4848 -0.8147
   41CHL1  H12A 5472   2.133   1.848   9.481  0.6312  2.5128 -0.4092
   41CHL1  H12B 5473   2.216   1.694   9.525  1.8115 -0.7670 -1.6119
   41CHL1   C11 5474   2.234   1.858   9.666 -0.6334  0.6327 -0.5613
   41CHL1  H11A 5475   2.237   1.969   9.674 -1.1511  0.5931  0.2777
   41CHL1  H11B 5476   2.140   1.828   9.718 -1.4387  1.6752 -1.3940
   41CHL1    C9 5477   2.361   1.799   9.739 -0.0314  0.3435  0.6183
   41CHL1    H9 5478   2.351   1.688   9.732 -1.2901  0.3670  1.8337
   41CHL1   C10 5479   2.365   1.835   9.892  0.2567 -0.2631 -0.0789
   41CHL1   C19 5480   2.341   1.990   9.914  0.0770  0.1562  0.5972
   41CHL1  H19A 5481   2.369   2.030  10.014  0.0866 -1.3320  1.2132
   41CHL1  H19B 5482   2.401   2.041   9.837  1.7300 -0.2950  1.5581
   41CHL1  H19C 5483   2.234   2.014   9.899  0.4528  0.3897 -1.7972
   41CHL1    C1 5484   2.259   1.759   9.967  0.1639  0.6764  0.1351
   41CHL1   H1A 5485   2.157   1.787   9.934 -0.2225  2.6739  2.7747
   41CHL1   H1B 5486   2.269   1.650   9.951 -0.3563  0.3574  1.8168
   41CHL1    C2 5487   2.273   1.775  10.116  0.6693 -1.1955  0.3181
   41CHL1   H2A 5488   2.192   1.714  10.161 -0.6880 -0.4161 -1.0106
   41CHL1   H2B 5489   2.258   1.881  10.143 -0.5298 -1.4116  0.5413
   41CHL1   C20 5490   2.293   1.833   9.179  0.1966 -0.2240 -0.1248
   41CHL1   H20 5491   2.303   1.944   9.174  0.0120 -0.1447  0.9472
   41CHL1   C21 5492   2.140   1.811   9.203 -0.0142 -0.1930  0.2104
   41CHL1  H21A 5493   2.081   1.802   9.109 -0.8113  1.9649  0.4817
   41CHL1  H21B 5494   2.089   1.900   9.247  0.7415  1.9434 -3.0749
   41CHL1  H21C 5495   2.117   1.719   9.262 -1.4574 -1.1734 -1.8147
   41CHL1   C22 5496   2.336   1.763   9.043  0.4863  0.5448  0.7282
   41CHL1  H22A 5497   2.447   1.754   9.043  0.3028 -1.8808 -1.0517
   41CHL1  H22B 5498   2.296   1.660   9.052  2.1106 -0.1991 -0.2163
   41CHL1   C23 5499   2.283   1.835   8.908 -0.2721 -0.2817 -0.8461
   41CHL1  H23A 5500   2.172   1.827   8.916 -0.0663 -1.0801  1.4319
   41CHL1  H23B 5501   2.310   1.940   8.930  2.6745 -0.3509 -3.7270
   41CHL1   C24 5502   2.352   1.781   8.787  0.0980 -0.5376  0.1368
   41CHL1  H24A 5503   2.453   1.826   8.774  0.2779 -0.8292  0.5173
   41CHL1  H24B 5504   2.370   1.671   8.790 -0.1949 -0.5840  0.1888
   41CHL1   C25 5505   2.268   1.803   8.657  0.3446 -0.0025  0.0296
   41CHL1   H25 5506   2.314   1.769   8.562  1.0453 -0.9921  0.7099
   41CHL1   C26 5507   2.132   1.733   8.654 -0.9169  0.1834 -0.2520
   41CHL1  H26A 5508   2.076   1.757   8.747  1.7466  1.6873  1.0083
   41CHL1  H26B 5509   2.088   1.785   8.566  2.0979  1.2251 -1.2161
   41CHL1  H26C 5510   2.128   1.625   8.626  2.0317 -0.5215  1.8620
   41CHL1   C27 5511   2.243   1.956   8.651  0.8588 -0.6880 -0.4817
   41CHL1  H27A 5512   2.148   1.982   8.702 -0.7848 -3.4929 -1.9512
   41CHL1  H27B 5513   2.328   2.011   8.695 -0.8295 -0.0501  2.1195
   41CHL1  H27C 5514   2.220   1.991   8.548 -1.2165  2.1362  0.8829
   42CHL1    C3 5515   1.980   1.529   9.922  0.2334  0.0095 -0.4580
   42CHL1    H3 5516   2.073   1.563   9.872 -0.1466 -0.0927 -1.2406
   42CHL1    O3 5517   1.996   1.544  10.060 -0.0033  0.0817  0.1321
   42CHL1   H3' 5518   2.074   1.493  10.084  1.5669  1.6244 -1.5210
   42CHL1    C4 5519   1.864   1.615   9.880  0.0991  0.0023  0.2528
   42CHL1   H4A 5520   1.771   1.571   9.921 -0.1626  0.2571 -0.0665
   42CHL1   H4B 5521   1.881   1.720   9.912 -0.2092  0.0799  0.1565
   42CHL1    C5 5522   1.842   1.605   9.732  0.4020 -0.3752  0.3114
   42CHL1    C6 5523   1.845   1.713   9.656 -0.2385  0.0128  0.2189
   42CHL1    H6 5524   1.867   1.815   9.692  1.5133  0.9177 -3.1571
   42CHL1    C7 5525   1.829   1.707   9.503  0.0461 -0.3010 -0.2648
   42CHL1   H7A 5526   1.756   1.783   9.470  0.7122  0.2595 -0.4634
   42CHL1   H7B 5527   1.924   1.738   9.455  0.5178 -0.2715  0.6773
   42CHL1    C8 5528   1.787   1.564   9.441 -0.1075 -0.0194 -0.3271
   42CHL1    H8 5529   1.677   1.555   9.452 -0.3848  1.5207 -1.5296
   42CHL1   C14 5530   1.837   1.561   9.296  0.2532  0.3414  0.7339
   42CHL1   H14 5531   1.949   1.561   9.295  0.2540 -0.1358 -1.1233
   42CHL1   C15 5532   1.786   1.667   9.218 -0.1679 -0.0441  0.1995
   42CHL1  H15A 5533   1.678   1.677   9.243 -0.2057  1.7225 -0.6009
   42CHL1  H15B 5534   1.840   1.762   9.232  0.5091 -0.5248  0.8806
   42CHL1   C16 5535   1.801   1.611   9.071  0.3848  0.0876 -0.0850
   42CHL1  H16A 5536   1.700   1.633   9.030  0.5114  0.7904 -0.0274
   42CHL1  H16B 5537   1.873   1.674   9.015 -0.8032  1.5889  0.0423
   42CHL1   C17 5538   1.841   1.468   9.087  0.4353  0.0227  0.8358
   42CHL1   H17 5539   1.951   1.452   9.093  0.5281 -0.0807 -0.9709
   42CHL1   C13 5540   1.796   1.429   9.229  0.4148  0.1251  0.2372
   42CHL1   C18 5541   1.641   1.416   9.239  0.4914 -0.8744 -0.1068
   42CHL1  H18A 5542   1.598   1.325   9.191 -0.5463  0.7262 -2.3306
   42CHL1  H18B 5543   1.604   1.405   9.343 -1.0096 -0.9421 -0.6345
   42CHL1  H18C 5544   1.593   1.503   9.189  2.0796 -0.3967 -0.8387
   42CHL1   C12 5545   1.850   1.313   9.303 -0.0982  0.7168 -0.4568
   42CHL1  H12A 5546   1.798   1.226   9.256  0.0799  1.1123 -1.3878
   42CHL1  H12B 5547   1.955   1.297   9.270  0.0965 -1.2644  1.0499
   42CHL1   C11 5548   1.834   1.319   9.451  0.2875  0.9193 -0.7292
   42CHL1  H11A 5549   1.731   1.285   9.475  1.2500 -3.0517 -1.7740
   42CHL1  H11B 5550   1.905   1.245   9.493 -3.1044 -2.6860 -0.9496
   42CHL1    C9 5551   1.860   1.455   9.515  0.6714 -0.4382  0.2701
   42CHL1    H9 5552   1.968   1.474   9.496  1.0665  0.1791  2.8948
   42CHL1   C10 5553   1.835   1.467   9.668  0.0244  0.4408 -0.1673
   42CHL1   C19 5554   1.698   1.414   9.701  0.4364 -0.3698 -0.3647
   42CHL1  H19A 5555   1.660   1.436   9.803 -1.5446 -1.0535 -0.9135
   42CHL1  H19B 5556   1.629   1.469   9.633 -1.1521  1.4094  2.6045
   42CHL1  H19C 5557   1.667   1.310   9.675 -0.2120 -0.2272 -0.1892
   42CHL1    C1 5558   1.939   1.365   9.734  0.7684  0.1106  0.6931
   42CHL1   H1A 5559   1.892   1.267   9.713 -0.4501  1.5255 -3.7504
   42CHL1   H1B 5560   2.037   1.382   9.685  0.5013 -0.1198  0.0746
   42CHL1    C2 5561   1.976   1.380   9.884  0.2986 -0.0031  0.0962
   42CHL1   H2A 5562   2.082   1.349   9.896  0.5789  0.4947 -1.0175
   42CHL1   H2B 5563   1.911   1.313   9.943  1.4134  0.8527  2.3822
   42CHL1   C20 5564   1.796   1.370   8.975  0.9617  0.4031 -0.9208
   42CHL1   H20 5565   1.783   1.267   9.015 -0.2029  0.4528 -1.1511
   42CHL1   C21 5566   1.909   1.367   8.875  1.3497 -0.4694 -0.9396
   42CHL1  H21A 5567   1.937   1.468   8.836  0.7565  0.6872  1.5281
   42CHL1  H21B 5568   1.879   1.297   8.794 -0.6143 -1.0270  0.2516
   42CHL1  H21C 5569   1.997   1.329   8.930 -0.8183 -4.2641  0.0432
   42CHL1   C22 5570   1.663   1.400   8.895  0.6084  0.7352 -0.0629
   42CHL1  H22A 5571   1.582   1.433   8.964 -1.1066  0.0252 -1.7006
   42CHL1  H22B 5572   1.668   1.489   8.829 -1.0207  1.8249  1.2239
   42CHL1   C23 5573   1.601   1.280   8.828  0.1218  0.2713 -0.0445
   42CHL1  H23A 5574   1.664   1.242   8.744 -1.0838  0.6756 -1.1482
   42CHL1  H23B 5575   1.601   1.195   8.899  0.4166 -0.8467 -1.3570
   42CHL1   C24 5576   1.461   1.297   8.776  0.5475  0.4389 -0.2705
   42CHL1  H24A 5577   1.470   1.354   8.681  0.4841  1.2966  0.2250
   42CHL1  H24B 5578   1.426   1.195   8.749  1.8775 -0.3688  1.0145
   42CHL1   C25 5579   1.347   1.346   8.870  0.5920 -1.0488  0.2950
   42CHL1   H25 5580   1.363   1.454   8.890  0.6708 -1.1934  0.9979
   42CHL1   C26 5581   1.211   1.339   8.803 -0.6147  1.5689 -0.3557
   42CHL1  H26A 5582   1.193   1.233   8.774 -2.6937  1.4130  1.3456
   42CHL1  H26B 5583   1.126   1.373   8.865 -1.0705  0.9815 -0.6538
   42CHL1  H26C 5584   1.208   1.409   8.717  0.9139  1.9799 -0.1009
   42CHL1   C27 5585   1.352   1.260   8.996 -0.0357 -0.0565 -0.4587
   42CHL1  H27A 5586   1.329   1.153   8.976  0.5899  0.3180 -3.3709
   42CHL1  H27B 5587   1.449   1.279   9.047 -0.1973 -1.0848  0.2480
   42CHL1  H27C 5588   1.271   1.299   9.061  0.8970 -3.2837  2.7684
   43CHL1    C3 5589   2.691   1.392   9.962 -1.4013 -0.1613  0.5309
   43CHL1    H3 5590   2.666   1.498   9.942 -3.3120 -0.6727  0.0486
   43CHL1    O3 5591   2.738   1.377  10.101  0.3165  0.0489  0.3749
   43CHL1   H3' 5592   2.659   1.355  10.151 -1.5153  1.7669 -1.6687
   43CHL1    C4 5593   2.571   1.313   9.932  0.3940 -0.4742  0.7904
   43CHL1   H4A 5594   2.599   1.208   9.951  1.3217 -0.8138 -2.1710
   43CHL1   H4B 5595   2.495   1.341  10.008  1.2757 -0.9315  1.8595
   43CHL1    C5 5596   2.520   1.327   9.791 -0.2672 -0.1650  0.5403
   43CHL1    C6 5597   2.400   1.374   9.765  0.8067  1.1232 -0.2625
   43CHL1    H6 5598   2.340   1.406   9.851 -0.2682  0.0869 -0.6051
   43CHL1    C7 5599   2.345   1.378   9.630  0.4774 -0.4992  0.0221
   43CHL1   H7A 5600   2.247   1.326   9.631  1.8551 -3.1676  2.8614
   43CHL1   H7B 5601   2.332   1.485   9.602 -1.0700 -1.2731 -2.3883
   43CHL1    C8 5602   2.426   1.318   9.519  0.4666 -0.2058 -0.0147
   43CHL1    H8 5603   2.414   1.209   9.534 -1.5556  0.4613  3.5958
   43CHL1   C14 5604   2.383   1.361   9.379 -0.9059 -0.3180  0.7405
   43CHL1   H14 5605   2.414   1.468   9.385 -0.4462 -0.4527  0.8143
   43CHL1   C15 5606   2.233   1.359   9.332 -0.0415 -0.5865  0.2605
   43CHL1  H15A 5607   2.180   1.265   9.357  1.0360 -1.2952 -0.1080
   43CHL1  H15B 5608   2.177   1.446   9.374 -0.3203  0.0954 -1.4359
   43CHL1   C16 5609   2.239   1.362   9.178  0.2204 -0.3583 -0.0553
   43CHL1  H16A 5610   2.177   1.279   9.137  0.6844 -0.3143 -0.8638
   43CHL1  H16B 5611   2.189   1.454   9.140  2.3669  1.3870  1.2409
   43CHL1   C17 5612   2.383   1.358   9.133 -0.2210 -0.3540 -0.9015
   43CHL1   H17 5613   2.417   1.462   9.114  3.0809 -1.3226 -0.4445
   43CHL1   C13 5614   2.464   1.302   9.259  0.1588  0.8247  0.5421
   43CHL1   C18 5615   2.442   1.147   9.263  0.0104 -0.1489  0.0094
   43CHL1  H18A 5616   2.505   1.108   9.181  0.1971 -1.6828  0.8539
   43CHL1  H18B 5617   2.469   1.091   9.355  1.5496 -0.6427 -0.7349
   43CHL1  H18C 5618   2.337   1.124   9.235  0.4631  0.5554 -2.3363
   43CHL1   C12 5619   2.607   1.364   9.291  0.9997  0.7025  0.1099
   43CHL1  H12A 5620   2.678   1.324   9.215 -0.2956 -1.3208 -0.0760
   43CHL1  H12B 5621   2.604   1.474   9.277 -2.8913  0.4103 -2.0140
   43CHL1   C11 5622   2.666   1.308   9.429  0.1419 -1.0596  0.7504
   43CHL1  H11A 5623   2.668   1.202   9.396 -1.2389 -0.2150 -2.2352
   43CHL1  H11B 5624   2.764   1.356   9.447  0.0022 -0.9595  1.2536
   43CHL1    C9 5625   2.579   1.346   9.547  0.6107  0.1955 -0.2436
   43CHL1    H9 5626   2.591   1.456   9.546 -2.6327  0.6211  0.5498
   43CHL1   C10 5627   2.628   1.295   9.679  0.7885 -0.3128  0.4509
   43CHL1   C19 5628   2.650   1.145   9.678 -0.2241  0.8931  0.2909
   43CHL1  H19A 5629   2.679   1.105   9.778  1.4063 -0.8904 -0.8505
   43CHL1  H19B 5630   2.559   1.083   9.662  0.3036  0.2059 -0.1120
   43CHL1  H19C 5631   2.734   1.116   9.612 -0.2242  1.3172  0.1087
   43CHL1    C1 5632   2.763   1.362   9.717 -0.2911  0.1511  0.6000
   43CHL1   H1A 5633   2.835   1.334   9.637  0.5881  2.2085  0.6456
   43CHL1   H1B 5634   2.760   1.472   9.700 -0.8762  0.0238 -0.1240
   43CHL1    C2 5635   2.805   1.353   9.862  0.3682 -0.4018 -0.3731
   43CHL1   H2A 5636   2.894   1.416   9.884  1.0922 -0.9337 -1.6741
   43CHL1   H2B 5637   2.841   1.249   9.877  2.2842  0.5411  1.7644
   43CHL1   C20 5638   2.398   1.291   8.999  0.2340 -0.2316 -0.2226
   43CHL1   H20 5639   2.356   1.189   9.013  0.7783 -0.3356  0.6611
   43CHL1   C21 5640   2.548   1.290   8.973 -0.5632 -0.4358  0.3319
   43CHL1  H21A 5641   2.568   1.260   8.868  0.7048  0.3453  0.3368
   43CHL1  H21B 5642   2.604   1.225   9.045  1.8029  1.4010  0.2214
   43CHL1  H21C 5643   2.595   1.390   8.972  0.1194 -0.7430  0.8461
   43CHL1   C22 5644   2.310   1.356   8.886 -0.5304 -0.5256  0.6131
   43CHL1  H22A 5645   2.206   1.373   8.919 -0.4911  1.4683 -0.2304
   43CHL1  H22B 5646   2.353   1.451   8.849 -0.5919 -0.8408 -0.2739
   43CHL1   C23 5647   2.283   1.270   8.762  0.2554 -0.0570  0.2593
   43CHL1  H23A 5648   2.379   1.235   8.720 -0.9216 -3.1178  0.0386
   43CHL1  H23B 5649   2.232   1.180   8.801 -1.7218  0.2137 -1.5684
   43CHL1   C24 5650   2.209   1.344   8.659  0.4925  0.4176  0.5103
   43CHL1  H24A 5651   2.117   1.382   8.708  0.6231  0.4090  0.7581
   43CHL1  H24B 5652   2.268   1.432   8.626  2.0154 -0.4633  0.8379
   43CHL1   C25 5653   2.161   1.267   8.536  0.3292 -0.2593  0.4897
   43CHL1   H25 5654   2.215   1.170   8.540 -0.8223 -0.9616 -0.4661
   43CHL1   C26 5655   2.011   1.242   8.546 -0.3067 -0.7240  0.2542
   43CHL1  H26A 5656   1.959   1.340   8.547  2.4534  0.7998  1.4184
   43CHL1  H26B 5657   1.971   1.194   8.454 -1.8068 -0.4185  0.7377
   43CHL1  H26C 5658   1.980   1.174   8.628 -3.4492  1.3967  0.9091
   43CHL1   C27 5659   2.201   1.332   8.398 -0.5816  0.0280  0.3824
   43CHL1  H27A 5660   2.162   1.435   8.407  0.9093  0.6470 -0.1592
   43CHL1  H27B 5661   2.312   1.337   8.401 -0.4488 -1.7782 -0.5732
   43CHL1  H27C 5662   2.164   1.286   8.304  0.6449  0.0439 -0.1070
   44CHL1    C3 5663   2.896   2.086  10.217  0.0801 -0.2026  0.1879
   44CHL1    H3 5664   2.911   1.977  10.201  0.8640  0.1171 -1.3389
   44CHL1    O3 5665   2.904   2.126  10.349  0.0059  0.2604 -0.2698
   44CHL1   H3' 5666   2.888   2.221  10.355 -1.1556 -0.0250  1.8446
   44CHL1    C4 5667   3.013   2.160  10.153 -0.4360  0.1034 -0.6300
   44CHL1   H4A 5668   3.010   2.270  10.170  3.0117  0.0945  0.3566
   44CHL1   H4B 5669   3.111   2.123  10.188 -0.2640 -0.2486 -1.4679
   44CHL1    C5 5670   3.005   2.166  10.001  0.4123  0.1582 -0.8252
   44CHL1    C6 5671   3.116   2.128   9.929  0.4863  0.4040  0.2670
   44CHL1    H6 5672   3.207   2.100   9.983 -0.2914 -0.6378  1.0638
   44CHL1    C7 5673   3.115   2.127   9.783  0.7078 -0.5712 -0.0585
   44CHL1   H7A 5674   3.206   2.171   9.737  0.4182  0.6524  0.5127
   44CHL1   H7B 5675   3.124   2.019   9.758  1.0600 -0.1532 -1.8014
   44CHL1    C8 5676   2.985   2.185   9.707 -0.1091 -0.1765  0.4392
   44CHL1    H8 5677   2.996   2.296   9.700  1.3256 -0.2184  1.7721
   44CHL1   C14 5678   2.975   2.137   9.565 -0.1260 -0.1526  0.8373
   44CHL1   H14 5679   2.965   2.026   9.567 -2.4130 -0.0338 -1.3363
   44CHL1   C15 5680   3.091   2.170   9.468  0.6647 -0.0425 -0.0860
   44CHL1  H15A 5681   3.119   2.277   9.480  2.1297 -0.4178 -0.0033
   44CHL1  H15B 5682   3.185   2.112   9.480  0.7497  0.1386  0.1327
   44CHL1   C16 5683   3.030   2.162   9.325  0.6653 -0.3643  0.1569
   44CHL1  H16A 5684   3.052   2.256   9.271 -0.1206  2.1830  4.0963
   44CHL1  H16B 5685   3.063   2.072   9.269 -0.4253 -1.3263  1.0318
   44CHL1   C17 5686   2.875   2.148   9.360 -0.5336  0.0556 -0.6806
   44CHL1   H17 5687   2.852   2.039   9.359  3.3052 -0.8161 -0.0483
   44CHL1   C13 5688   2.849   2.193   9.505  0.0013  0.2089  0.2430
   44CHL1   C18 5689   2.841   2.354   9.501  0.0250 -1.0668 -0.2523
   44CHL1  H18A 5690   2.826   2.398   9.601 -0.9304  1.4937 -1.4897
   44CHL1  H18B 5691   2.940   2.398   9.475 -0.9971  1.5591  0.1544
   44CHL1  H18C 5692   2.753   2.391   9.444  0.5731 -0.7051 -0.8823
   44CHL1   C12 5693   2.730   2.124   9.571 -0.1992 -0.5980 -0.6485
   44CHL1  H12A 5694   2.629   2.144   9.528  0.9805 -2.2913 -4.4482
   44CHL1  H12B 5695   2.739   2.013   9.565 -0.2998 -0.6731  0.4259
   44CHL1   C11 5696   2.724   2.161   9.719  0.3250  0.2126  0.6601
   44CHL1  H11A 5697   2.679   2.262   9.728  1.1680  0.7288 -0.7525
   44CHL1  H11B 5698   2.659   2.089   9.773  2.3647 -2.6297 -0.5163
   44CHL1    C9 5699   2.860   2.146   9.790  0.2560 -0.6972  0.4443
   44CHL1    H9 5700   2.867   2.036   9.799  1.8688 -0.8549 -2.2025
   44CHL1   C10 5701   2.866   2.187   9.938  0.1023  0.5989 -0.2407
   44CHL1   C19 5702   2.833   2.339   9.952 -0.1411 -0.0266 -0.3179
   44CHL1  H19A 5703   2.907   2.400   9.897  0.1956  1.3633  1.6278
   44CHL1  H19B 5704   2.729   2.349   9.914 -0.3558  0.1879  0.3201
   44CHL1  H19C 5705   2.826   2.379  10.055 -0.6856 -0.6216 -0.1186
   44CHL1    C1 5706   2.756   2.112  10.018 -0.3032 -0.4584  0.1200
   44CHL1   H1A 5707   2.656   2.144   9.980 -1.1095 -0.8044  1.9193
   44CHL1   H1B 5708   2.762   2.003  10.000 -1.1576 -1.3442  4.5626
   44CHL1    C2 5709   2.762   2.127  10.165 -0.3499 -0.1862  0.0127
   44CHL1   H2A 5710   2.687   2.064  10.218 -1.1091  0.2985 -0.4781
   44CHL1   H2B 5711   2.743   2.231  10.199 -1.0636  0.1162 -1.2905
   44CHL1   C20 5712   2.776   2.197   9.252  1.0306 -0.0398 -0.2525
   44CHL1   H20 5713   2.692   2.232   9.315 -2.2705 -3.3207 -2.6395
   44CHL1   C21 5714   2.711   2.081   9.170 -0.3638 -0.2408  0.2497
   44CHL1  H21A 5715   2.698   1.991   9.233  1.7648 -1.2682 -0.7140
   44CHL1  H21B 5716   2.770   2.053   9.080 -2.7085 -0.3664 -1.2937
   44CHL1  H21C 5717   2.609   2.115   9.142 -0.6196  0.2302  1.7375
   44CHL1   C22 5718   2.823   2.316   9.165 -0.1170  0.3409  0.2197
   44CHL1  H22A 5719   2.879   2.397   9.217  0.9830  0.9699 -1.8702
   44CHL1  H22B 5720   2.894   2.262   9.099 -0.7507 -0.8221  0.4859
   44CHL1   C23 5721   2.708   2.380   9.078  0.3898  0.3462 -0.1408
   44CHL1  H23A 5722   2.653   2.300   9.024 -1.3453  2.1950 -1.1518
   44CHL1  H23B 5723   2.646   2.427   9.157 -1.6900 -0.7304 -1.1057
   44CHL1   C24 5724   2.766   2.484   8.979 -0.4010 -0.0205 -0.2241
   44CHL1  H24A 5725   2.802   2.564   9.047 -0.6663 -0.0528 -0.0416
   44CHL1  H24B 5726   2.857   2.434   8.941  0.8767  1.6300  0.6241
   44CHL1   C25 5727   2.667   2.536   8.877  0.1536  0.1837 -0.3270
   44CHL1   H25 5728   2.626   2.448   8.822 -0.2453  0.9193 -1.2219
   44CHL1   C26 5729   2.543   2.607   8.942 -0.7728  0.2912  0.0517
   44CHL1  H26A 5730   2.514   2.553   9.035  0.7624 -0.5865  0.0241
   44CHL1  H26B 5731   2.569   2.706   8.987  2.7042 -0.4183 -0.3346
   44CHL1  H26C 5732   2.461   2.623   8.869  0.3615 -1.5067 -1.6577
   44CHL1   C27 5733   2.739   2.629   8.776 -0.4945 -0.2808  0.5709
   44CHL1  H27A 5734   2.670   2.666   8.697 -1.1203  0.6756  1.5572
   44CHL1  H27B 5735   2.792   2.712   8.827 -0.4384 -0.1017  0.2260
   44CHL1  H27C 5736   2.831   2.578   8.738 -0.9095 -1.6017  1.2940
   45CHL1    C3 5737   6.633   0.245  10.301 -0.3388 -0.7511 -0.1581
   45CHL1    H3 5738   6.550   0.172  10.309 -1.8242  0.8251 -0.7046
   45CHL1    O3 5739   6.703   0.251  10.422  0.4120 -0.0839  0.6540
   45CHL1   H3' 5740   6.779   0.302  10.393 -0.9084  1.4660 -0.1888
   45CHL1    C4 5741   6.720   0.200  10.182 -0.6677 -0.2512  0.1919
   45CHL1   H4A 5742   6.807   0.268  10.172 -1.6126  1.2028  1.5556
   45CHL1   H4B 5743   6.760   0.098  10.202 -0.1228 -0.2114 -0.6637
   45CHL1    C5 5744   6.645   0.204  10.049  0.4685 -0.1182  0.6471
   45CHL1    C6 5745   6.624   0.099   9.974 -0.4799  0.7849 -0.3515
   45CHL1    H6 5746   6.668   0.005  10.008 -0.4220  1.7243  2.3018
   45CHL1    C7 5747   6.565   0.105   9.835  0.6122 -0.5003  0.7022
   45CHL1   H7A 5748   6.624   0.039   9.769 -1.5077 -1.3628 -0.3888
   45CHL1   H7B 5749   6.472   0.045   9.822 -0.8185  1.6094  0.8456
   45CHL1    C8 5750   6.537   0.244   9.772 -1.3828  0.4205 -0.4505
   45CHL1    H8 5751   6.446   0.232   9.709 -0.4807  0.3427 -1.7419
   45CHL1   C14 5752   6.641   0.304   9.679 -0.1667  0.0407 -0.2678
   45CHL1   H14 5753   6.727   0.345   9.736 -1.1073 -1.7676  2.5096
   45CHL1   C15 5754   6.689   0.199   9.571  0.1727 -0.1141 -0.5607
   45CHL1  H15A 5755   6.794   0.168   9.591 -0.3679 -1.0954  0.8318
   45CHL1  H15B 5756   6.633   0.105   9.557  2.8585 -1.5464 -2.1802
   45CHL1   C16 5757   6.688   0.279   9.439 -0.3384  0.2159  0.7232
   45CHL1  H16A 5758   6.787   0.328   9.428 -0.2722 -0.3898 -1.6225
   45CHL1  H16B 5759   6.675   0.218   9.348  1.1867  2.0115 -0.7379
   45CHL1   C17 5760   6.570   0.384   9.464  0.2738  0.1258  1.1636
   45CHL1   H17 5761   6.476   0.326   9.453 -0.4008  1.3670  0.3492
   45CHL1   C13 5762   6.584   0.430   9.610  0.8587  0.5055  0.0505
   45CHL1   C18 5763   6.694   0.531   9.613  0.7293 -0.8786 -0.3616
   45CHL1  H18A 5764   6.730   0.557   9.715 -0.1405 -0.1812 -0.2246
   45CHL1  H18B 5765   6.787   0.502   9.561  1.5660 -0.6752  1.0055
   45CHL1  H18C 5766   6.675   0.633   9.573  3.1279  0.0288  0.6942
   45CHL1   C12 5767   6.453   0.483   9.682  0.0914 -0.0655  0.0850
   45CHL1  H12A 5768   6.448   0.593   9.670 -0.7182  0.0704  1.5350
   45CHL1  H12B 5769   6.363   0.432   9.640  0.2514 -0.7681  0.5876
   45CHL1   C11 5770   6.451   0.477   9.835  0.1244  0.9209  0.3201
   45CHL1  H11A 5771   6.507   0.565   9.873 -1.2267  1.6043  0.7630
   45CHL1  H11B 5772   6.347   0.488   9.872 -0.5841 -1.8686 -0.7288
   45CHL1    C9 5773   6.503   0.338   9.884  0.1460  0.3877 -0.2232
   45CHL1    H9 5774   6.408   0.292   9.918 -0.3613  1.0648 -0.7176
   45CHL1   C10 5775   6.590   0.345  10.010  0.0504 -0.5840 -0.1678
   45CHL1   C19 5776   6.708   0.442   9.989 -0.8723 -0.3064 -0.2848
   45CHL1  H19A 5777   6.778   0.434  10.075  0.9175  2.2284 -1.4225
   45CHL1  H19B 5778   6.773   0.423   9.901 -1.1710 -2.5180 -0.0476
   45CHL1  H19C 5779   6.662   0.543  10.000  0.6746  0.3905 -0.0058
   45CHL1    C1 5780   6.509   0.400  10.137  0.6546 -0.2204  0.5145
   45CHL1   H1A 5781   6.492   0.510  10.126 -0.7866 -0.3871  1.1204
   45CHL1   H1B 5782   6.411   0.349  10.142  0.4408  0.2576  1.2394
   45CHL1    C2 5783   6.578   0.388  10.275  0.7917  0.2573 -0.3491
   45CHL1   H2A 5784   6.508   0.418  10.355  2.9458  1.3330  1.1711
   45CHL1   H2B 5785   6.663   0.459  10.284 -1.1627  2.2904  3.0438
   45CHL1   C20 5786   6.565   0.494   9.356  0.6870 -0.0875  0.2098
   45CHL1   H20 5787   6.658   0.553   9.362  0.2880  0.3853  2.0993
   45CHL1   C21 5788   6.447   0.588   9.380  0.4303  0.0776 -0.2595
   45CHL1  H21A 5789   6.348   0.541   9.398  0.9513 -0.6703  0.7556
   45CHL1  H21B 5790   6.448   0.661   9.297  1.9409 -1.8892 -2.0120
   45CHL1  H21C 5791   6.478   0.654   9.465 -3.2268  1.3478  0.1718
   45CHL1   C22 5792   6.580   0.443   9.200 -0.5276 -0.7240  0.3625
   45CHL1  H22A 5793   6.600   0.538   9.146  3.5198 -1.7061 -0.0198
   45CHL1  H22B 5794   6.676   0.391   9.180  0.7090  1.2090  1.1623
   45CHL1   C23 5795   6.461   0.376   9.138 -0.1157  0.1452 -0.2994
   45CHL1  H23A 5796   6.432   0.288   9.200 -0.8257 -0.5542 -1.6055
   45CHL1  H23B 5797   6.369   0.437   9.132 -0.4121 -0.4721 -2.6122
   45CHL1   C24 5798   6.481   0.316   8.999 -0.4794  0.1869 -0.4464
   45CHL1  H24A 5799   6.498   0.406   8.936 -1.2609  0.9700  0.4306
   45CHL1  H24B 5800   6.574   0.258   8.984 -1.8283 -2.5763  1.5461
   45CHL1   C25 5801   6.356   0.242   8.944 -0.2255  0.4768 -0.0739
   45CHL1   H25 5802   6.362   0.152   9.009  1.8453  0.8936  0.3488
   45CHL1   C26 5803   6.225   0.312   8.972  1.3947 -0.3733  0.8417
   45CHL1  H26A 5804   6.216   0.340   9.080  2.2293  1.3011  0.4891
   45CHL1  H26B 5805   6.216   0.402   8.908  0.6615 -0.1865  1.1978
   45CHL1  H26C 5806   6.142   0.243   8.948  2.3063 -0.9866 -0.5881
   45CHL1   C27 5807   6.387   0.206   8.797 -0.2046  0.2302 -0.6776
   45CHL1  H27A 5808   6.469   0.130   8.800  1.8073  2.3272 -0.8789
   45CHL1  H27B 5809   6.301   0.154   8.751 -0.0598 -1.7155  1.2042
   45CHL1  H27C 5810   6.424   0.298   8.747  0.8572 -0.1046 -0.5317
   46CHL1    C3 5811   3.093   4.807   9.963 -0.0739  0.0374  0.5669
   46CHL1    H3 5812   3.078   4.907   9.917 -2.6098 -0.4766  0.1790
   46CHL1    O3 5813   3.114   4.824  10.102  0.1564  0.6473 -0.2715
   46CHL1   H3' 5814   3.112   4.733  10.133  0.7587  0.2946 -1.2443
   46CHL1    C4 5815   2.978   4.714   9.926 -0.4522 -0.3880 -0.0390
   46CHL1   H4A 5816   2.998   4.611   9.963  1.9373  0.3998  0.9493
   46CHL1   H4B 5817   2.886   4.756   9.972 -0.1791  0.3187 -0.1332
   46CHL1    C5 5818   2.962   4.706   9.774 -0.2721  0.3351 -0.4821
   46CHL1    C6 5819   2.841   4.734   9.715  0.3709 -0.0268 -0.0765
   46CHL1    H6 5820   2.755   4.768   9.773 -0.3255 -3.0842  0.8014
   46CHL1    C7 5821   2.824   4.715   9.571  0.1756  0.0888  0.8440
   46CHL1   H7A 5822   2.732   4.653   9.559  0.0999  0.3051  0.3062
   46CHL1   H7B 5823   2.805   4.807   9.512 -1.0016 -1.4791 -1.3368
   46CHL1    C8 5824   2.937   4.630   9.503 -0.3014 -0.0131  0.0892
   46CHL1    H8 5825   2.929   4.524   9.536  1.0143  0.5402  2.2977
   46CHL1   C14 5826   2.913   4.650   9.346 -0.2253 -0.4011  0.1740
   46CHL1   H14 5827   2.926   4.760   9.338 -3.9003  0.2474  2.0555
   46CHL1   C15 5828   2.783   4.608   9.272  0.2554 -0.2026 -0.3011
   46CHL1  H15A 5829   2.741   4.517   9.319 -1.1904  1.4836  1.8069
   46CHL1  H15B 5830   2.714   4.693   9.289  0.0359 -0.1352 -1.4731
   46CHL1   C16 5831   2.818   4.604   9.125 -0.2211 -0.1192 -0.3095
   46CHL1  H16A 5832   2.791   4.504   9.084  0.9189 -0.9935  1.0143
   46CHL1  H16B 5833   2.752   4.675   9.072 -0.9174 -0.1050  0.5733
   46CHL1   C17 5834   2.972   4.636   9.113  0.1099  0.2163 -0.5981
   46CHL1   H17 5835   2.976   4.746   9.105  1.3462  0.1463 -0.9514
   46CHL1   C13 5836   3.024   4.595   9.258  0.2073  1.0178  0.9992
   46CHL1   C18 5837   3.036   4.444   9.260  0.3996  0.3377  0.1386
   46CHL1  H18A 5838   3.050   4.400   9.361 -3.0152 -1.7141 -0.1661
   46CHL1  H18B 5839   2.940   4.400   9.226  0.2548 -0.1178  1.1130
   46CHL1  H18C 5840   3.111   4.410   9.186  1.6001  1.2016  0.9546
   46CHL1   C12 5841   3.157   4.661   9.305 -0.0177  1.2524 -0.8381
   46CHL1  H12A 5842   3.239   4.630   9.237  0.3423  0.6105 -0.1069
   46CHL1  H12B 5843   3.139   4.771   9.303 -0.2613  1.2688  1.1619
   46CHL1   C11 5844   3.186   4.622   9.454  0.5862  0.3764 -0.1696
   46CHL1  H11A 5845   3.205   4.513   9.461 -2.3977 -0.1485  0.2651
   46CHL1  H11B 5846   3.282   4.672   9.481  0.7614  0.4723 -0.9499
   46CHL1    C9 5847   3.079   4.679   9.543  0.5638  0.1175 -0.8359
   46CHL1    H9 5848   3.071   4.787   9.519  0.5017  0.0713 -1.0211
   46CHL1   C10 5849   3.095   4.657   9.696 -0.1347  0.2942  0.0112
   46CHL1   C19 5850   3.150   4.507   9.725 -0.1032 -0.2169  0.3713
   46CHL1  H19A 5851   3.249   4.490   9.678  0.3127 -2.0268  1.8125
   46CHL1  H19B 5852   3.155   4.483   9.834 -2.1140  3.7658  1.4400
   46CHL1  H19C 5853   3.080   4.429   9.688 -0.2166  1.1381 -2.3917
   46CHL1    C1 5854   3.216   4.753   9.741 -0.3803 -0.1511 -0.3014
   46CHL1   H1A 5855   3.308   4.717   9.692  0.0062  0.1701  0.1790
   46CHL1   H1B 5856   3.179   4.850   9.702  0.3021  0.0815 -0.3692
   46CHL1    C2 5857   3.231   4.762   9.895 -0.4717  0.5306  0.1035
   46CHL1   H2A 5858   3.315   4.830   9.921 -0.6665  1.5720 -1.9174
   46CHL1   H2B 5859   3.265   4.663   9.931  1.8694  0.2652 -2.6197
   46CHL1   C20 5860   3.031   4.573   8.987  0.1716 -0.0414  0.8439
   46CHL1   H20 5861   3.055   4.465   8.995 -2.3805 -0.5528  2.3711
   46CHL1   C21 5862   3.151   4.658   8.951  0.7119 -0.4356  0.1056
   46CHL1  H21A 5863   3.205   4.610   8.866 -1.0490  0.3636 -1.5095
   46CHL1  H21B 5864   3.224   4.657   9.034  0.8985 -0.4478 -0.0557
   46CHL1  H21C 5865   3.118   4.759   8.919  0.6723 -0.6912 -0.6665
   46CHL1   C22 5866   2.930   4.581   8.866  0.1369  0.3945 -0.2606
   46CHL1  H22A 5867   2.828   4.543   8.887 -0.2790  1.8342  0.3557
   46CHL1  H22B 5868   2.933   4.688   8.838 -0.1943  0.4039 -0.2614
   46CHL1   C23 5869   2.976   4.495   8.739 -1.0123  0.1182  0.4173
   46CHL1  H23A 5870   3.067   4.536   8.691 -1.4205 -1.0297 -1.3620
   46CHL1  H23B 5871   2.990   4.392   8.778 -1.5995 -1.2559 -2.8868
   46CHL1   C24 5872   2.861   4.492   8.635 -0.1559  0.6974 -0.3139
   46CHL1  H24A 5873   2.767   4.456   8.680 -0.5176  0.6687 -1.0824
   46CHL1  H24B 5874   2.855   4.596   8.595  3.1846  1.0936  0.0181
   46CHL1   C25 5875   2.891   4.403   8.515  0.1801  0.2456  0.2904
   46CHL1   H25 5876   2.939   4.315   8.563 -0.5943  0.9903  2.4777
   46CHL1   C26 5877   2.761   4.349   8.453  0.4970 -0.4006  0.0283
   46CHL1  H26A 5878   2.777   4.275   8.372  0.9687  1.9058 -2.0209
   46CHL1  H26B 5879   2.698   4.308   8.535  0.2086 -3.2508 -1.5359
   46CHL1  H26C 5880   2.694   4.424   8.406  0.2170 -0.1066  0.8910
   46CHL1   C27 5881   2.970   4.477   8.411 -1.4329 -0.5906  0.1054
   46CHL1  H27A 5882   3.061   4.513   8.464  0.1801 -2.8934 -1.0150
   46CHL1  H27B 5883   3.009   4.410   8.331  0.2185 -0.4538  0.7733
   46CHL1  H27C 5884   2.908   4.557   8.367 -0.8862  0.0197  0.4336
   47CHL1    C3 5885   3.300   1.656  10.079  0.6842 -0.2524 -0.1409
   47CHL1    H3 5886   3.385   1.611  10.024  0.0053  0.3695 -1.7220
   47CHL1    O3 5887   3.314   1.654  10.217 -0.4546  0.1638 -0.2122
   47CHL1   H3' 5888   3.226   1.659  10.255 -0.1429  3.0399  0.2784
   47CHL1    C4 5889   3.279   1.792  10.018  0.0946 -0.1644 -0.1653
   47CHL1   H4A 5890   3.188   1.846  10.053  1.1810  0.7186  1.3713
   47CHL1   H4B 5891   3.371   1.852  10.037 -0.2716  0.4527 -0.3149
   47CHL1    C5 5892   3.253   1.774   9.865 -0.2467 -0.2991 -1.1512
   47CHL1    C6 5893   3.345   1.836   9.790  0.2776 -0.3323  0.0630
   47CHL1    H6 5894   3.422   1.898   9.838 -0.6577 -0.3970  1.6728
   47CHL1    C7 5895   3.340   1.826   9.635 -0.3260  1.1302  0.6409
   47CHL1   H7A 5896   3.381   1.918   9.589  0.7714  0.6529  0.6544
   47CHL1   H7B 5897   3.420   1.754   9.610  2.3305  3.5562  1.9039
   47CHL1    C8 5898   3.205   1.782   9.579 -0.0934 -0.1568  0.2214
   47CHL1    H8 5899   3.132   1.866   9.580  0.6733  0.5455 -1.0961
   47CHL1   C14 5900   3.208   1.735   9.430  0.9576  0.3217 -0.0409
   47CHL1   H14 5901   3.283   1.654   9.423  1.7315  1.0884 -0.7776
   47CHL1   C15 5902   3.239   1.832   9.314 -0.3143  0.3405 -0.2508
   47CHL1  H15A 5903   3.172   1.918   9.335  0.4458  0.4719  1.8248
   47CHL1  H15B 5904   3.345   1.864   9.326  0.2421 -1.3199 -0.5640
   47CHL1   C16 5905   3.212   1.758   9.185  0.5516  0.0828 -0.0928
   47CHL1  H16A 5906   3.157   1.820   9.111  3.2080  0.0766 -2.1200
   47CHL1  H16B 5907   3.306   1.716   9.145  0.9935 -1.9634  2.9237
   47CHL1   C17 5908   3.129   1.635   9.231  0.1156 -0.0019 -0.5306
   47CHL1   H17 5909   3.195   1.549   9.252  1.9494  1.8940  1.7897
   47CHL1   C13 5910   3.076   1.667   9.379 -0.3399  0.0557  0.6033
   47CHL1   C18 5911   2.962   1.774   9.374 -0.3216  0.2809  0.2909
   47CHL1  H18A 5912   2.983   1.852   9.299  2.5124 -0.9259 -0.2346
   47CHL1  H18B 5913   2.862   1.726   9.362 -0.4639  0.4682  0.7237
   47CHL1  H18C 5914   2.953   1.826   9.472 -1.3526  0.3687  0.1578
   47CHL1   C12 5915   3.039   1.549   9.466 -0.5985  0.3065  0.0375
   47CHL1  H12A 5916   2.948   1.499   9.429 -1.3022  0.4807  1.4805
   47CHL1  H12B 5917   3.128   1.483   9.460  0.2672  1.5393 -1.1212
   47CHL1   C11 5918   3.023   1.592   9.611  0.0108  0.3190  0.6730
   47CHL1  H11A 5919   2.936   1.660   9.628  0.6644  1.5308 -0.8096
   47CHL1  H11B 5920   3.005   1.492   9.657  1.6108 -0.3917 -0.2394
   47CHL1    C9 5921   3.152   1.660   9.666  0.1752 -0.0230 -0.0293
   47CHL1    H9 5922   3.232   1.586   9.645  1.3223  0.3709  2.6553
   47CHL1   C10 5923   3.140   1.687   9.820  0.5764  0.4810 -0.4655
   47CHL1   C19 5924   3.010   1.764   9.860 -0.0969  0.1306 -0.2754
   47CHL1  H19A 5925   2.913   1.712   9.848 -0.6935  0.6862  1.8884
   47CHL1  H19B 5926   3.009   1.791   9.968  0.4752  0.0970 -0.2604
   47CHL1  H19C 5927   3.014   1.860   9.804  3.1781 -0.1466 -0.6512
   47CHL1    C1 5928   3.158   1.550   9.897 -0.6115  0.7901 -0.1178
   47CHL1   H1A 5929   3.072   1.487   9.871  0.7806 -2.2664  2.3415
   47CHL1   H1B 5930   3.235   1.487   9.847 -1.9609 -0.6309 -0.4196
   47CHL1    C2 5931   3.176   1.572  10.051  0.6432 -0.2309  0.0831
   47CHL1   H2A 5932   3.172   1.477  10.108  0.1208 -1.2678 -1.6574
   47CHL1   H2B 5933   3.080   1.619  10.081  0.1037 -0.1552 -1.6954
   47CHL1   C20 5934   3.027   1.605   9.129 -0.0422  0.1822  0.6334
   47CHL1   H20 5935   2.955   1.690   9.125 -0.4042 -0.0656  1.7578
   47CHL1   C21 5936   2.922   1.490   9.159 -0.6889 -0.1652 -0.4991
   47CHL1  H21A 5937   2.836   1.534   9.215 -0.7823  0.6526 -1.2611
   47CHL1  H21B 5938   2.976   1.414   9.219  0.2820  1.3330  0.5775
   47CHL1  H21C 5939   2.887   1.453   9.061 -1.9563  0.0894 -0.1475
   47CHL1   C22 5940   3.088   1.587   8.988 -0.0344  0.3804 -0.2296
   47CHL1  H22A 5941   2.994   1.572   8.930  0.1707 -0.3339 -0.3836
   47CHL1  H22B 5942   3.135   1.681   8.952 -0.3308  0.6900  0.1810
   47CHL1   C23 5943   3.171   1.461   8.966 -0.6594  0.6427  0.4038
   47CHL1  H23A 5944   3.235   1.439   9.054  1.0256 -0.6159 -1.0813
   47CHL1  H23B 5945   3.117   1.365   8.961  2.3809 -1.0241 -2.6087
   47CHL1   C24 5946   3.262   1.479   8.853  0.7815 -0.1583 -0.4154
   47CHL1  H24A 5947   3.205   1.493   8.758 -1.6868 -0.8820  0.9151
   47CHL1  H24B 5948   3.325   1.569   8.869  1.5678 -0.5082 -1.5201
   47CHL1   C25 5949   3.359   1.367   8.818 -0.4811  0.1009  0.0679
   47CHL1   H25 5950   3.293   1.287   8.777 -1.4432 -0.1273  2.0541
   47CHL1   C26 5951   3.446   1.407   8.692 -0.2904  0.0573  0.3522
   47CHL1  H26A 5952   3.481   1.506   8.728  1.7551 -1.7161  3.4708
   47CHL1  H26B 5953   3.402   1.431   8.593  2.7897  0.3832 -0.9740
   47CHL1  H26C 5954   3.526   1.337   8.659 -0.6533 -0.6875  1.0183
   47CHL1   C27 5955   3.451   1.304   8.928  0.1258  0.6709  0.5298
   47CHL1  H27A 5956   3.394   1.278   9.019  1.6798  2.6025  2.1228
   47CHL1  H27B 5957   3.503   1.227   8.867 -2.2009  0.2647 -1.0135
   47CHL1  H27C 5958   3.531   1.370   8.969 -0.6233 -0.2585  3.6072
   48CHL1    C3 5959   4.404   2.590   9.981 -0.2569 -0.3138 -0.0957
   48CHL1    H3 5960   4.308   2.535   9.978 -0.9178  0.8402 -0.2733
   48CHL1    O3 5961   4.428   2.650  10.108 -0.3271  0.1803 -0.0348
   48CHL1   H3' 5962   4.472   2.579  10.156 -1.5221 -1.0668 -0.7351
   48CHL1    C4 5963   4.513   2.482   9.958  0.1133  0.1069 -0.1743
   48CHL1   H4A 5964   4.610   2.534   9.974  0.8287 -0.2286 -3.1095
   48CHL1   H4B 5965   4.500   2.414  10.044 -0.8251  0.8125  0.2483
   48CHL1    C5 5966   4.514   2.426   9.816  0.0874  0.3817 -1.0186
   48CHL1    C6 5967   4.519   2.290   9.797  1.0381 -0.5280 -0.1814
   48CHL1    H6 5968   4.531   2.232   9.889  0.8683 -1.6588 -0.8608
   48CHL1    C7 5969   4.501   2.220   9.665  0.6048  0.1806 -0.7460
   48CHL1   H7A 5970   4.580   2.141   9.660  2.0875  1.5305  0.6489
   48CHL1   H7B 5971   4.397   2.182   9.668 -0.0853  2.0936  1.4899
   48CHL1    C8 5972   4.519   2.323   9.549  0.0198 -0.9099 -0.8872
   48CHL1    H8 5973   4.628   2.347   9.543 -0.0735 -0.0021  0.9172
   48CHL1   C14 5974   4.467   2.263   9.425 -0.2274  0.6178 -0.3374
   48CHL1   H14 5975   4.362   2.230   9.441  0.6546 -0.5429  3.5868
   48CHL1   C15 5976   4.531   2.134   9.378  0.0244 -0.3617 -0.1047
   48CHL1  H15A 5977   4.641   2.132   9.389  0.0559 -0.6696 -0.4586
   48CHL1  H15B 5978   4.483   2.052   9.436 -1.0171  0.2470 -0.0903
   48CHL1   C16 5979   4.493   2.122   9.226  0.1248 -0.1660 -0.3536
   48CHL1  H16A 5980   4.586   2.122   9.166  1.2192  1.1134  1.3025
   48CHL1  H16B 5981   4.424   2.038   9.202  2.1070 -0.8073 -4.2132
   48CHL1   C17 5982   4.423   2.259   9.202  0.0011 -0.2301  0.0459
   48CHL1   H17 5983   4.320   2.243   9.241 -0.0837 -1.8908 -0.8208
   48CHL1   C13 5984   4.483   2.354   9.306  0.2510  0.0567  0.2616
   48CHL1   C18 5985   4.635   2.396   9.271  0.1670 -0.1378 -0.2506
   48CHL1  H18A 5986   4.635   2.432   9.166 -1.6118 -0.1851 -0.2706
   48CHL1  H18B 5987   4.686   2.475   9.331  0.1437 -0.6497  0.4530
   48CHL1  H18C 5988   4.702   2.309   9.287 -1.2702 -0.7063  3.1260
   48CHL1   C12 5989   4.390   2.474   9.323 -0.3745  0.1703 -0.5802
   48CHL1  H12A 5990   4.383   2.547   9.240 -3.2000 -0.5603 -1.0256
   48CHL1  H12B 5991   4.285   2.440   9.332 -0.6681  1.2276 -0.0615
   48CHL1   C11 5992   4.432   2.554   9.446 -0.0650 -0.1163 -0.1113
   48CHL1  H11A 5993   4.532   2.599   9.426  0.3265 -0.6399  0.6200
   48CHL1  H11B 5994   4.351   2.629   9.457  0.8380  0.8474  0.0572
   48CHL1    C9 5995   4.447   2.457   9.572 -0.2119 -0.5863 -0.7340
   48CHL1    H9 5996   4.344   2.428   9.601 -0.4088  0.7900 -0.0107
   48CHL1   C10 5997   4.495   2.529   9.701 -0.2006 -0.4281  0.3755
   48CHL1   C19 5998   4.628   2.598   9.668 -0.3944 -0.0134  0.7787
   48CHL1  H19A 5999   4.670   2.654   9.754  0.4997 -1.5582  1.3803
   48CHL1  H19B 6000   4.702   2.529   9.622  0.1135 -0.1845  1.8414
   48CHL1  H19C 6001   4.605   2.683   9.600  0.5796  0.5423  1.1474
   48CHL1    C1 6002   4.390   2.636   9.740  0.5042 -0.2031  0.7187
   48CHL1   H1A 6003   4.387   2.723   9.671  0.0102  1.3331  2.6132
   48CHL1   H1B 6004   4.289   2.594   9.719  1.2212 -0.7583 -1.7335
   48CHL1    C2 6005   4.406   2.697   9.879  0.6443 -0.4007  0.0806
   48CHL1   H2A 6006   4.337   2.782   9.896  0.4062 -0.2816 -1.4438
   48CHL1   H2B 6007   4.508   2.741   9.883  0.3562  0.2740 -0.0553
   48CHL1   C20 6008   4.423   2.296   9.054  0.1176 -0.2742 -0.2768
   48CHL1   H20 6009   4.419   2.407   9.052 -0.2908 -0.2436  1.4469
   48CHL1   C21 6010   4.294   2.244   8.992 -0.3404  0.5961 -0.4954
   48CHL1  H21A 6011   4.212   2.303   9.039  0.1633  0.9144  0.0041
   48CHL1  H21B 6012   4.278   2.135   9.000  3.7866 -0.2822 -2.7765
   48CHL1  H21C 6013   4.298   2.266   8.884  1.0092 -0.0818 -0.6004
   48CHL1   C22 6014   4.553   2.267   8.968  0.1523  0.3956 -0.3471
   48CHL1  H22A 6015   4.641   2.316   9.014 -0.1340  0.7824 -0.2070
   48CHL1  H22B 6016   4.568   2.157   8.956  0.3558  0.5895 -1.8885
   48CHL1   C23 6017   4.530   2.310   8.823 -0.5039  0.1936  0.5932
   48CHL1  H23A 6018   4.487   2.222   8.771 -0.2653 -0.4642  1.5079
   48CHL1  H23B 6019   4.466   2.401   8.825  1.2299  1.4280  0.7186
   48CHL1   C24 6020   4.662   2.358   8.760  0.6142 -0.3177  0.3442
   48CHL1  H24A 6021   4.692   2.453   8.809 -1.0031  0.6180 -0.4355
   48CHL1  H24B 6022   4.736   2.275   8.763  0.7855 -0.2185 -0.9322
   48CHL1   C25 6023   4.643   2.399   8.608  0.0249  0.5249  0.1390
   48CHL1   H25 6024   4.735   2.447   8.568 -1.3542  1.2105 -2.3061
   48CHL1   C26 6025   4.604   2.277   8.518 -0.3590  0.1216 -0.0246
   48CHL1  H26A 6026   4.694   2.213   8.508  0.8056  2.0214 -2.0784
   48CHL1  H26B 6027   4.515   2.224   8.560 -1.0716  2.6510  1.7631
   48CHL1  H26C 6028   4.578   2.302   8.413  0.0837  1.7494  0.2472
   48CHL1   C27 6029   4.533   2.506   8.595 -0.3693 -0.2178 -0.1074
   48CHL1  H27A 6030   4.555   2.595   8.657 -3.2453  0.3434  0.1436
   48CHL1  H27B 6031   4.530   2.545   8.491 -0.1319  0.1527  0.0249
   48CHL1  H27C 6032   4.438   2.460   8.629 -0.1691  0.7873  1.8521
   49CHL1    C3 6033   2.076   4.098  10.113 -0.1954 -0.2104 -0.0985
   49CHL1    H3 6034   2.113   4.203  10.113 -0.0388 -0.2574  0.6382
   49CHL1    O3 6035   2.080   4.053  10.244  0.4771 -0.2315 -0.2764
   49CHL1   H3' 6036   2.032   4.115  10.300  1.5597 -1.4901  2.1554
   49CHL1    C4 6037   1.933   4.101  10.069  0.4178 -0.4201 -0.8492
   49CHL1   H4A 6038   1.877   4.006  10.080 -0.7132  0.2606 -0.7367
   49CHL1   H4B 6039   1.892   4.183  10.132  0.2197 -1.0715 -0.1144
   49CHL1    C5 6040   1.931   4.141   9.920  0.4963 -0.4255 -0.0951
   49CHL1    C6 6041   1.878   4.260   9.881  0.1896  0.2798  0.0895
   49CHL1    H6 6042   1.830   4.329   9.952 -0.1393 -0.3694  0.4985
   49CHL1    C7 6043   1.854   4.297   9.734 -0.2391  0.1984  0.0019
   49CHL1   H7A 6044   1.752   4.336   9.715  0.0220  0.4318 -0.9670
   49CHL1   H7B 6045   1.922   4.384   9.720 -0.0895  0.0232 -0.3715
   49CHL1    C8 6046   1.893   4.191   9.624 -0.4044 -0.1546  0.1887
   49CHL1    H8 6047   1.807   4.121   9.623  0.2856 -1.0200  0.1946
   49CHL1   C14 6048   1.922   4.253   9.492  0.3870  0.0786 -0.1128
   49CHL1   H14 6049   2.000   4.329   9.515  1.8081 -1.5092  0.4352
   49CHL1   C15 6050   1.803   4.335   9.424  0.4762  0.7765 -0.1469
   49CHL1  H15A 6051   1.712   4.271   9.425  0.2103  1.1424 -0.6031
   49CHL1  H15B 6052   1.783   4.430   9.478  0.1839 -0.5795  2.1990
   49CHL1   C16 6053   1.841   4.339   9.277 -0.1821  1.0373  0.1692
   49CHL1  H16A 6054   1.757   4.326   9.206  1.8983 -0.4626 -2.0800
   49CHL1  H16B 6055   1.876   4.439   9.243  1.3034  0.7685  0.8557
   49CHL1   C17 6056   1.959   4.242   9.261 -0.0706 -0.1476 -0.2136
   49CHL1   H17 6057   2.055   4.298   9.263 -0.4303  0.5110 -1.3106
   49CHL1   C13 6058   1.954   4.152   9.385  0.2967  0.0141  0.3279
   49CHL1   C18 6059   1.840   4.053   9.356  0.0657  0.2487  0.1388
   49CHL1  H18A 6060   1.882   3.977   9.286  2.5664 -0.2544  2.1006
   49CHL1  H18B 6061   1.802   3.996   9.443  0.7174  0.7894  0.7916
   49CHL1  H18C 6062   1.756   4.094   9.296  1.1685  0.6538 -1.1650
   49CHL1   C12 6063   2.085   4.077   9.424  0.1804 -0.4412  0.5251
   49CHL1  H12A 6064   2.120   4.004   9.348 -0.6291  0.1454 -0.4177
   49CHL1  H12B 6065   2.172   4.146   9.433 -0.0678  0.2256 -1.9416
   49CHL1   C11 6066   2.070   4.008   9.562 -0.7866  0.1998 -0.3110
   49CHL1  H11A 6067   2.008   3.917   9.548 -1.4438  0.7851 -1.2845
   49CHL1  H11B 6068   2.172   3.974   9.591 -0.6708  1.7302  1.1945
   49CHL1    C9 6069   2.014   4.109   9.674  0.5118  0.1065 -0.5436
   49CHL1    H9 6070   2.091   4.190   9.678 -1.1998  1.6804  2.4581
   49CHL1   C10 6071   2.009   4.054   9.826  0.1756 -0.3249  0.3948
   49CHL1   C19 6072   1.940   3.913   9.822  0.2300  0.2987  0.2281
   49CHL1  H19A 6073   1.832   3.929   9.802 -0.2737 -2.3487  0.6755
   49CHL1  H19B 6074   1.996   3.842   9.757  0.9743  1.7449 -0.7405
   49CHL1  H19C 6075   1.935   3.859   9.919 -4.4149 -2.0144 -1.1646
   49CHL1    C1 6076   2.158   4.038   9.874 -0.1557 -0.0839  0.3877
   49CHL1   H1A 6077   2.194   3.951   9.815  1.7247  0.8166  0.1923
   49CHL1   H1B 6078   2.216   4.129   9.850 -0.1546  0.0716  0.9891
   49CHL1    C2 6079   2.164   4.005  10.024  0.2196 -0.3494  0.1246
   49CHL1   H2A 6080   2.268   4.005  10.061  1.5400  0.1523 -3.3901
   49CHL1   H2B 6081   2.129   3.902  10.049  0.0663 -0.3833 -0.2212
   49CHL1   C20 6082   1.971   4.180   9.115  0.0660 -0.0912  0.4608
   49CHL1   H20 6083   1.898   4.097   9.103 -1.1602  1.1405 -0.7990
   49CHL1   C21 6084   2.103   4.107   9.095 -0.6816  0.2356  0.8411
   49CHL1  H21A 6085   2.083   4.003   9.061  0.0912  0.2921  0.2052
   49CHL1  H21B 6086   2.170   4.102   9.183 -0.0874  2.0610  0.5159
   49CHL1  H21C 6087   2.166   4.166   9.025 -0.1512  0.1358  1.2298
   49CHL1   C22 6088   1.950   4.290   9.003 -0.0286 -0.0040 -0.4845
   49CHL1  H22A 6089   1.846   4.327   9.014  0.7021  1.9001  0.2671
   49CHL1  H22B 6090   2.017   4.379   9.006 -1.5536  1.1250  3.9019
   49CHL1   C23 6091   1.957   4.226   8.864 -0.2244  0.0709 -0.2001
   49CHL1  H23A 6092   2.066   4.218   8.850  0.0310  2.0471  0.4430
   49CHL1  H23B 6093   1.904   4.130   8.878 -0.9501  0.4605 -0.2292
   49CHL1   C24 6094   1.901   4.302   8.745  0.8965 -0.3198 -0.5569
   49CHL1  H24A 6095   1.798   4.335   8.771  1.4497 -1.6041  3.6265
   49CHL1  H24B 6096   1.972   4.385   8.729  1.2951 -0.0229  2.4623
   49CHL1   C25 6097   1.891   4.210   8.623  0.1547  0.8060  1.5278
   49CHL1   H25 6098   1.987   4.154   8.614  0.0691  0.9102 -0.1672
   49CHL1   C26 6099   1.771   4.117   8.619  0.2346  0.0103  0.1835
   49CHL1  H26A 6100   1.772   4.047   8.533  0.2894  0.4981 -0.2156
   49CHL1  H26B 6101   1.765   4.065   8.717 -0.0279  0.1843  0.2627
   49CHL1  H26C 6102   1.677   4.176   8.611  0.1234 -0.3895 -1.5726
   49CHL1   C27 6103   1.882   4.303   8.497 -0.2491 -0.0549 -0.3540
   49CHL1  H27A 6104   1.796   4.373   8.510 -0.2357 -0.0097 -0.5150
   49CHL1  H27B 6105   1.975   4.365   8.499 -0.3436  0.0746  0.9802
   49CHL1  H27C 6106   1.865   4.247   8.403 -0.0487 -2.0305  0.7685
   50CHL1    C3 6107   5.938   6.424  10.221  1.0245 -0.4628 -0.5796
   50CHL1    H3 6108   5.915   6.322  10.258  1.0329 -0.1735  0.2504
   50CHL1    O3 6109   5.951   6.507  10.334  0.3910  0.2736  0.0097
   50CHL1   H3' 6110   5.955   6.451  10.412 -1.4709 -1.2835 -0.9629
   50CHL1    C4 6111   6.065   6.415  10.137  0.4017 -0.1773  0.1518
   50CHL1   H4A 6112   6.107   6.516  10.115 -0.4433 -0.0312 -0.8438
   50CHL1   H4B 6113   6.136   6.362  10.204  0.0771 -0.1378  0.5262
   50CHL1    C5 6114   6.039   6.343  10.005  0.1965 -0.5392  0.0089
   50CHL1    C6 6115   6.098   6.227   9.987 -0.0483  0.9244  0.2363
   50CHL1    H6 6116   6.175   6.184  10.053  0.4655 -0.5162 -1.2524
   50CHL1    C7 6117   6.103   6.161   9.849  0.3992 -0.6787  0.4488
   50CHL1   H7A 6118   6.208   6.136   9.821  0.6322  1.7435 -0.9685
   50CHL1   H7B 6119   6.053   6.062   9.850 -1.2389  0.1265  3.2030
   50CHL1    C8 6120   6.038   6.253   9.741 -0.1699 -0.5582 -0.0727
   50CHL1    H8 6121   6.105   6.339   9.719 -1.0028  0.4222  1.1614
   50CHL1   C14 6122   6.016   6.164   9.625  0.0550 -0.3615 -0.1821
   50CHL1   H14 6123   5.953   6.082   9.664  0.3846  0.9529  3.3388
   50CHL1   C15 6124   6.140   6.094   9.559 -0.8263  0.3225 -0.2560
   50CHL1  H15A 6125   6.230   6.154   9.535 -1.0436  0.7346 -0.0429
   50CHL1  H15B 6126   6.166   6.001   9.615  1.0067  1.2703  0.5026
   50CHL1   C16 6127   6.084   6.059   9.422  0.1108  0.3071  0.5028
   50CHL1  H16A 6128   6.162   6.087   9.349 -0.5522 -2.0272 -1.1585
   50CHL1  H16B 6129   6.070   5.948   9.423  0.3441  0.2635 -0.5790
   50CHL1   C17 6130   5.953   6.142   9.388  0.2628 -0.3811 -0.5258
   50CHL1   H17 6131   5.869   6.070   9.396  1.1833 -1.2646  1.6108
   50CHL1   C13 6132   5.951   6.246   9.507 -0.1113  0.2191 -0.0830
   50CHL1   C18 6133   6.034   6.374   9.466  1.1320  0.7839 -0.5337
   50CHL1  H18A 6134   5.989   6.436   9.386 -2.6342  0.6437  1.3574
   50CHL1  H18B 6135   6.035   6.441   9.555 -2.1188 -0.2226  0.3016
   50CHL1  H18C 6136   6.139   6.342   9.448  1.0731  0.0017  0.4855
   50CHL1   C12 6137   5.812   6.275   9.551 -0.1272 -0.0456 -0.0173
   50CHL1  H12A 6138   5.745   6.318   9.473  1.5651 -0.1164 -1.5570
   50CHL1  H12B 6139   5.759   6.178   9.549 -1.5086  0.6770  1.0220
   50CHL1   C11 6140   5.808   6.352   9.685 -0.0827 -0.2842 -0.0522
   50CHL1  H11A 6141   5.819   6.458   9.656  0.4085 -0.9093 -2.2317
   50CHL1  H11B 6142   5.706   6.349   9.729  0.0748  0.5767  0.3862
   50CHL1    C9 6143   5.906   6.300   9.794 -0.0079  0.4388  0.4087
   50CHL1    H9 6144   5.849   6.212   9.833  1.0761 -0.1679  0.6320
   50CHL1   C10 6145   5.924   6.395   9.912  0.0346  0.3573 -0.2997
   50CHL1   C19 6146   5.955   6.536   9.855  0.1768  0.2115 -0.2072
   50CHL1  H19A 6147   5.867   6.584   9.808  0.9540 -0.9122 -2.9387
   50CHL1  H19B 6148   5.988   6.603   9.937  0.4447 -1.3801  1.0194
   50CHL1  H19C 6149   6.037   6.529   9.780 -0.3192  0.9292 -0.8176
   50CHL1    C1 6150   5.801   6.391  10.004  0.0587 -0.6577  0.1106
   50CHL1   H1A 6151   5.717   6.435   9.946 -0.1494  0.2535  1.1063
   50CHL1   H1B 6152   5.780   6.284  10.022  1.1595 -1.3442 -2.3743
   50CHL1    C2 6153   5.821   6.474  10.136  0.3311  0.7885  0.2772
   50CHL1   H2A 6154   5.737   6.477  10.208  0.7995 -1.0128  0.9291
   50CHL1   H2B 6155   5.835   6.580  10.105 -0.3183  0.9431  0.5079
   50CHL1   C20 6156   5.948   6.196   9.244  0.1022 -0.6753 -0.2472
   50CHL1   H20 6157   6.021   6.280   9.244 -0.2789 -0.3386  0.2129
   50CHL1   C21 6158   5.801   6.245   9.212 -0.3138 -0.1063  0.0613
   50CHL1  H21A 6159   5.811   6.278   9.106 -0.8733  2.8243  0.8523
   50CHL1  H21B 6160   5.768   6.333   9.272  1.4667 -0.9461  2.3378
   50CHL1  H21C 6161   5.734   6.158   9.219  2.1132 -1.8470  2.8348
   50CHL1   C22 6162   5.996   6.095   9.143 -0.0667 -0.5706  0.4584
   50CHL1  H22A 6163   6.062   6.013   9.179  0.8168  0.6912  1.7320
   50CHL1  H22B 6164   5.899   6.057   9.105 -0.0139 -2.5562  2.2207
   50CHL1   C23 6165   6.061   6.160   9.023  0.6237  0.0438  0.8836
   50CHL1  H23A 6166   6.003   6.249   8.992 -0.5155 -1.1687 -0.5788
   50CHL1  H23B 6167   6.157   6.205   9.057 -0.3599  1.9973  1.1035
   50CHL1   C24 6168   6.067   6.062   8.903  0.6422 -0.1054  0.9823
   50CHL1  H24A 6169   6.136   5.984   8.941  0.8674  0.8635  2.6529
   50CHL1  H24B 6170   5.967   6.020   8.882  1.0951 -1.8456  2.1619
   50CHL1   C25 6171   6.121   6.133   8.775  0.3899 -0.0090  0.2748
   50CHL1   H25 6172   6.040   6.206   8.755 -0.4736 -1.2118 -0.7584
   50CHL1   C26 6173   6.260   6.196   8.782 -1.1995  0.3427 -0.5156
   50CHL1  H26A 6174   6.262   6.277   8.858 -0.7852 -0.7321  0.6342
   50CHL1  H26B 6175   6.335   6.123   8.819  0.1705  1.3368 -1.3065
   50CHL1  H26C 6176   6.289   6.251   8.690 -1.2930 -0.1050 -0.8136
   50CHL1   C27 6177   6.108   6.043   8.652 -0.6522 -0.3841 -0.3919
   50CHL1  H27A 6178   6.005   6.019   8.618 -1.7394  2.8408  0.4768
   50CHL1  H27B 6179   6.171   6.097   8.578 -0.8068 -4.6806 -3.8852
   50CHL1  H27C 6180   6.141   5.940   8.678 -1.5144  0.0859  2.7411
   51CHL1    C3 6181   6.644   1.900  10.232  0.0855  0.0285 -0.9643
   51CHL1    H3 6182   6.554   1.835  10.220 -0.6170  1.1117 -1.7237
   51CHL1    O3 6183   6.680   1.897  10.367  0.0062  0.0728  0.3181
   51CHL1   H3' 6184   6.718   1.985  10.380 -2.2619  1.4285 -1.7610
   51CHL1    C4 6185   6.764   1.856  10.151  0.1635  0.4240 -0.2788
   51CHL1   H4A 6186   6.852   1.919  10.176  1.4021 -0.9531 -1.0541
   51CHL1   H4B 6187   6.792   1.754  10.186 -0.6553  0.9193  1.8489
   51CHL1    C5 6188   6.731   1.857  10.002  0.0316  0.1766  0.4564
   51CHL1    C6 6189   6.726   1.745   9.933  0.1972 -0.1690  0.0977
   51CHL1    H6 6190   6.754   1.655   9.990  3.9723  0.4933 -0.5990
   51CHL1    C7 6191   6.721   1.744   9.779  0.9636  0.4779 -0.1346
   51CHL1   H7A 6192   6.814   1.693   9.745  0.7580  1.1366 -1.7372
   51CHL1   H7B 6193   6.636   1.686   9.738  0.6884  1.0605 -0.3921
   51CHL1    C8 6194   6.709   1.885   9.712 -0.0405  0.9343 -0.6052
   51CHL1    H8 6195   6.812   1.928   9.706  0.9903 -1.4373 -0.2525
   51CHL1   C14 6196   6.637   1.888   9.578  0.1679 -0.3316  0.0117
   51CHL1   H14 6197   6.531   1.857   9.592 -0.3903  0.4447 -2.3549
   51CHL1   C15 6198   6.676   1.780   9.479  0.1107  0.0046  0.0257
   51CHL1  H15A 6199   6.787   1.771   9.480  0.1464  0.3450 -0.5642
   51CHL1  H15B 6200   6.627   1.684   9.509 -2.2797  1.0633 -0.4029
   51CHL1   C16 6201   6.635   1.826   9.341  0.8058 -0.9015 -0.5365
   51CHL1  H16A 6202   6.730   1.827   9.283 -0.0070  0.7398 -1.8767
   51CHL1  H16B 6203   6.562   1.759   9.292  0.8053 -0.8571 -0.5960
   51CHL1   C17 6204   6.580   1.975   9.363  0.1018  0.6309  0.1994
   51CHL1   H17 6205   6.470   1.966   9.369  0.1890 -0.0551  0.8303
   51CHL1   C13 6206   6.639   2.018   9.502 -0.9440 -0.4527 -0.1193
   51CHL1   C18 6207   6.790   2.055   9.485  0.3956 -1.2917  0.5062
   51CHL1  H18A 6208   6.858   1.981   9.437  0.6950 -0.3288 -0.5735
   51CHL1  H18B 6209   6.794   2.150   9.428 -3.4497 -0.1254  2.0010
   51CHL1  H18C 6210   6.838   2.093   9.578  1.7904 -2.2467  0.2072
   51CHL1   C12 6211   6.558   2.118   9.598  0.5213  0.1065 -0.3080
   51CHL1  H12A 6212   6.589   2.219   9.564  1.8511 -0.0767  0.2860
   51CHL1  H12B 6213   6.449   2.101   9.599  0.4762  0.0413 -2.7809
   51CHL1   C11 6214   6.611   2.121   9.741  0.5932 -0.9355  0.3198
   51CHL1  H11A 6215   6.703   2.182   9.729 -0.2178 -0.2740 -2.8960
   51CHL1  H11B 6216   6.535   2.173   9.803  2.8015  1.2766  1.2573
   51CHL1    C9 6217   6.635   1.980   9.808 -0.6605  0.6312  0.0105
   51CHL1    H9 6218   6.535   1.932   9.802 -0.0676 -0.4245 -1.7504
   51CHL1   C10 6219   6.687   1.995   9.951  0.0893  0.4324 -0.0711
   51CHL1   C19 6220   6.809   2.090   9.959 -0.1565  0.2317  0.1354
   51CHL1  H19A 6221   6.781   2.196   9.937 -1.3853 -0.3549 -1.1782
   51CHL1  H19B 6222   6.857   2.082  10.059 -0.4442  0.0431  0.2603
   51CHL1  H19C 6223   6.878   2.067   9.876 -1.5659  2.3556 -1.6864
   51CHL1    C1 6224   6.574   2.049  10.041 -0.3407 -0.0613  0.4630
   51CHL1   H1A 6225   6.561   2.158  10.021  0.8601  0.1701  0.8958
   51CHL1   H1B 6226   6.481   1.989  10.032 -0.6255  0.6083 -1.3129
   51CHL1    C2 6227   6.615   2.047  10.192  0.0568 -0.0902  0.4069
   51CHL1   H2A 6228   6.526   2.091  10.243 -0.5390  1.2890 -1.7566
   51CHL1   H2B 6229   6.706   2.108  10.207 -0.9292  1.3061  0.8475
   51CHL1   C20 6230   6.612   2.062   9.236 -0.3670 -0.5321 -0.2955
   51CHL1   H20 6231   6.722   2.072   9.221 -0.1337  1.4133  2.3766
   51CHL1   C21 6232   6.556   2.209   9.259 -0.5363 -0.0602  0.0536
   51CHL1  H21A 6233   6.593   2.257   9.353  2.8130 -0.9954 -0.7087
   51CHL1  H21B 6234   6.445   2.206   9.258 -0.5198 -0.2533 -1.5418
   51CHL1  H21C 6235   6.578   2.279   9.177 -1.5415 -0.3109 -0.4369
   51CHL1   C22 6236   6.550   1.997   9.117  0.5437  0.2947 -0.1892
   51CHL1  H22A 6237   6.588   1.895   9.096  2.3416  0.9164  0.0104
   51CHL1  H22B 6238   6.439   1.995   9.130  0.5494  2.8783  0.6199
   51CHL1   C23 6239   6.578   2.064   8.979 -0.2306 -0.1843  0.6558
   51CHL1  H23A 6240   6.561   2.173   8.985 -1.2536 -0.2979 -0.0520
   51CHL1  H23B 6241   6.688   2.062   8.964 -0.4244  1.4179 -1.1286
   51CHL1   C24 6242   6.485   2.003   8.865 -0.4115 -0.6927 -0.0143
   51CHL1  H24A 6243   6.389   2.015   8.919  0.6324  4.4324  0.9956
   51CHL1  H24B 6244   6.484   2.058   8.768  1.1699  0.5930  0.6759
   51CHL1   C25 6245   6.522   1.860   8.826 -0.3609  0.2881  0.3044
   51CHL1   H25 6246   6.549   1.805   8.918 -0.3530  0.2650  0.2879
   51CHL1   C26 6247   6.401   1.789   8.758  0.0450 -0.2649 -0.3401
   51CHL1  H26A 6248   6.322   1.759   8.830  0.8963 -0.9057  0.3407
   51CHL1  H26B 6249   6.351   1.853   8.683  0.6744 -0.6651 -1.1109
   51CHL1  H26C 6250   6.434   1.705   8.692 -1.4671 -0.3489 -1.0071
   51CHL1   C27 6251   6.657   1.854   8.739  0.3094 -0.8316  0.0517
   51CHL1  H27A 6252   6.751   1.877   8.794  1.7222 -0.1124 -2.6193
   51CHL1  H27B 6253   6.665   1.753   8.694 -2.6640 -0.3552 -1.6597
   51CHL1  H27C 6254   6.651   1.932   8.661 -2.4152  0.1152  1.1439
   52CHL1    C3 6255   3.361   0.993  10.057 -0.3580 -1.0010  0.3821
   52CHL1    H3 6256   3.408   0.903  10.013 -0.9139 -0.2128 -1.9118
   52CHL1    O3 6257   3.393   1.027  10.190 -0.1364 -0.4150 -0.4439
   52CHL1   H3' 6258   3.327   1.096  10.204 -1.0388 -1.2440 -0.5856
   52CHL1    C4 6259   3.400   1.115   9.973  0.5295  0.9622 -0.6906
   52CHL1   H4A 6260   3.340   1.203  10.005  0.3077  0.5955 -0.0910
   52CHL1   H4B 6261   3.506   1.144   9.990  1.1581 -1.7625  0.2882
   52CHL1    C5 6262   3.370   1.089   9.824 -0.0756 -0.0104 -0.4257
   52CHL1    C6 6263   3.467   1.095   9.732  0.4345 -0.4970 -0.8457
   52CHL1    H6 6264   3.563   1.127   9.776 -1.2399  0.1321  2.5068
   52CHL1    C7 6265   3.447   1.085   9.584  0.6639 -0.2071  0.3594
   52CHL1   H7A 6266   3.488   1.170   9.526  1.2999 -1.2228 -0.7005
   52CHL1   H7B 6267   3.492   0.997   9.534 -2.4709 -0.7849 -1.6204
   52CHL1    C8 6268   3.289   1.094   9.549  0.9873 -0.6332 -0.5084
   52CHL1    H8 6269   3.248   1.196   9.566  1.8850 -0.3501  0.0342
   52CHL1   C14 6270   3.253   1.060   9.406  0.0816 -0.7446  0.6019
   52CHL1   H14 6271   3.288   0.955   9.410 -1.0768 -1.2083 -1.0079
   52CHL1   C15 6272   3.327   1.131   9.298  0.2599 -0.3449 -0.4077
   52CHL1  H15A 6273   3.339   1.240   9.318 -0.0337 -0.1250 -1.3772
   52CHL1  H15B 6274   3.428   1.097   9.269  0.4537  1.4154 -1.8934
   52CHL1   C16 6275   3.242   1.114   9.172 -0.4033  0.3069  0.2308
   52CHL1  H16A 6276   3.201   1.205   9.124  1.3693  0.6755 -0.6265
   52CHL1  H16B 6277   3.300   1.062   9.093 -0.7635 -1.6109  1.2020
   52CHL1   C17 6278   3.107   1.040   9.217  0.2596 -0.1485  0.6221
   52CHL1   H17 6279   3.118   0.933   9.190 -0.9805 -0.0900 -0.1372
   52CHL1   C13 6280   3.105   1.057   9.369 -0.1330  0.1632 -0.1837
   52CHL1   C18 6281   3.053   1.201   9.395 -0.2265 -0.4871  0.3283
   52CHL1  H18A 6282   3.105   1.275   9.331 -2.3272  1.4790  0.8377
   52CHL1  H18B 6283   2.948   1.202   9.361  0.4958  0.0220 -1.9826
   52CHL1  H18C 6284   3.052   1.242   9.498  0.0426 -1.3646  0.6880
   52CHL1   C12 6285   3.030   0.951   9.452  0.1820 -0.3841 -0.2365
   52CHL1  H12A 6286   2.923   0.934   9.427  0.3622  1.9874 -2.9005
   52CHL1  H12B 6287   3.077   0.856   9.420  1.9066 -0.0499  1.2371
   52CHL1   C11 6288   3.063   0.976   9.603 -0.0389  0.1725  0.7145
   52CHL1  H11A 6289   3.007   1.070   9.621 -1.3201 -0.1793 -1.2018
   52CHL1  H11B 6290   3.019   0.901   9.671  0.5602  0.1597  1.0902
   52CHL1    C9 6291   3.210   1.000   9.648  0.3834 -0.5401 -0.0572
   52CHL1    H9 6292   3.254   0.899   9.643  3.3303  0.6929  0.2186
   52CHL1   C10 6293   3.227   1.054   9.794  0.1106  0.0266  0.0212
   52CHL1   C19 6294   3.143   1.186   9.812  0.2934  0.1826  0.1467
   52CHL1  H19A 6295   3.188   1.264   9.747  0.9889 -0.4023 -0.0739
   52CHL1  H19B 6296   3.036   1.164   9.790  0.2769 -1.5329  1.8121
   52CHL1  H19C 6297   3.156   1.225   9.915 -0.2018  2.3267 -0.5687
   52CHL1    C1 6298   3.180   0.952   9.900 -0.5681  0.3435 -0.1929
   52CHL1   H1A 6299   3.071   0.943   9.880 -0.6031  0.7013 -0.1619
   52CHL1   H1B 6300   3.236   0.859   9.878 -2.2723 -0.4999 -1.1490
   52CHL1    C2 6301   3.212   0.985  10.043  0.8946 -0.4388 -0.8265
   52CHL1   H2A 6302   3.172   0.903  10.105 -0.8249  3.1548  3.0449
   52CHL1   H2B 6303   3.160   1.077  10.076  2.9283  0.7167 -0.7187
   52CHL1   C20 6304   2.990   1.093   9.131  0.3637 -0.1109 -0.4869
   52CHL1   H20 6305   2.970   1.200   9.149 -0.2580 -0.2215 -0.4881
   52CHL1   C21 6306   2.866   1.015   9.168  0.0635 -0.3561  0.2017
   52CHL1  H21A 6307   2.784   1.063   9.111  1.2272  0.5773 -0.7097
   52CHL1  H21B 6308   2.827   1.028   9.271 -0.3275  0.8446 -0.0919
   52CHL1  H21C 6309   2.871   0.907   9.140  0.3654 -0.0501 -0.9704
   52CHL1   C22 6310   3.007   1.084   8.981  0.6044 -0.7440 -0.0730
   52CHL1  H22A 6311   3.109   1.125   8.965  0.8207 -1.4970 -0.6403
   52CHL1  H22B 6312   3.022   0.983   8.939 -1.8520 -0.5214 -1.6075
   52CHL1   C23 6313   2.909   1.166   8.890  0.8721  0.1570  0.3320
   52CHL1  H23A 6314   2.821   1.098   8.887  0.1206  1.1298  0.1118
   52CHL1  H23B 6315   2.875   1.255   8.947 -4.8258 -1.0643 -0.7904
   52CHL1   C24 6316   2.957   1.204   8.751 -0.1779 -0.3057 -0.2273
   52CHL1  H24A 6317   2.891   1.289   8.721 -0.7620 -0.9873 -0.8907
   52CHL1  H24B 6318   3.064   1.236   8.747 -0.7870  2.0275  1.0076
   52CHL1   C25 6319   2.935   1.101   8.627 -0.0160  0.8882  0.6122
   52CHL1   H25 6320   2.834   1.055   8.623  0.6343 -0.4131 -1.7296
   52CHL1   C26 6321   2.962   1.170   8.494 -0.2899 -0.3763 -0.1089
   52CHL1  H26A 6322   2.954   1.094   8.413 -0.8204  0.2895 -0.6960
   52CHL1  H26B 6323   2.892   1.256   8.484  1.3640  1.2030  1.3250
   52CHL1  H26C 6324   3.063   1.216   8.500 -0.4521  0.0512 -0.5842
   52CHL1   C27 6325   3.020   0.982   8.648  0.7551 -0.8733 -0.2868
   52CHL1  H27A 6326   3.125   1.007   8.672  1.4257 -2.9540 -0.9727
   52CHL1  H27B 6327   2.978   0.931   8.738 -0.6105  0.3900 -0.1874
   52CHL1  H27C 6328   3.016   0.915   8.559  1.6496  0.3166 -1.2312
   53CHL1    C3 6329   4.163   0.621  10.007 -0.4509 -0.5058 -0.0328
   53CHL1    H3 6330   4.144   0.721   9.962 -0.5608  0.6483  2.5338
   53CHL1    O3 6331   4.163   0.624  10.147 -0.2334 -0.4691  0.3316
   53CHL1   H3' 6332   4.173   0.530  10.165 -0.9115 -0.5524  0.3126
   53CHL1    C4 6333   4.048   0.528   9.961  0.5652 -0.1062  0.1769
   53CHL1   H4A 6334   4.057   0.424   9.999  0.6862  0.4629  1.7131
   53CHL1   H4B 6335   3.957   0.573  10.007 -0.4120 -1.1306 -0.7270
   53CHL1    C5 6336   4.050   0.517   9.811  1.1411  0.4267 -0.1442
   53CHL1    C6 6337   3.934   0.534   9.746 -0.5178 -0.4490  0.2334
   53CHL1    H6 6338   3.846   0.568   9.801 -1.6059 -0.8074 -1.2397
   53CHL1    C7 6339   3.914   0.516   9.600 -0.4477  0.0344 -0.8456
   53CHL1   H7A 6340   3.825   0.454   9.577  0.3560 -1.3011 -0.4236
   53CHL1   H7B 6341   3.902   0.620   9.564 -0.8912 -0.0707 -0.9981
   53CHL1    C8 6342   4.036   0.455   9.523  0.0255 -0.0369 -0.3022
   53CHL1    H8 6343   4.031   0.346   9.541 -1.8934  0.0125 -0.4420
   53CHL1   C14 6344   4.035   0.480   9.368  0.0749  0.0223 -0.8317
   53CHL1   H14 6345   4.032   0.591   9.362 -1.0690  0.0878  0.7112
   53CHL1   C15 6346   3.919   0.432   9.281 -0.1659  0.5555  0.6409
   53CHL1  H15A 6347   3.887   0.330   9.313 -2.1424  0.2044 -2.1659
   53CHL1  H15B 6348   3.832   0.500   9.292  0.6448  1.4399  1.6313
   53CHL1   C16 6349   3.976   0.437   9.138  0.5148  0.5892 -0.9031
   53CHL1  H16A 6350   3.955   0.351   9.071  0.1858 -1.4432  1.6970
   53CHL1  H16B 6351   3.943   0.528   9.084 -0.1065  1.6099  1.1494
   53CHL1   C17 6352   4.128   0.470   9.151  0.2591 -0.3950 -0.5029
   53CHL1   H17 6353   4.142   0.579   9.142 -0.7935 -0.3087 -1.2823
   53CHL1   C13 6354   4.165   0.437   9.296 -0.5483 -0.5989  0.1602
   53CHL1   C18 6355   4.179   0.282   9.310  0.6998 -0.6465  0.2587
   53CHL1  H18A 6356   4.270   0.254   9.252  0.2941  1.7721 -1.6164
   53CHL1  H18B 6357   4.189   0.252   9.416 -0.5201 -0.4559  0.4403
   53CHL1  H18C 6358   4.096   0.223   9.264  0.7150  0.1753 -0.8366
   53CHL1   C12 6359   4.276   0.519   9.368  0.1167 -0.0921  0.6057
   53CHL1  H12A 6360   4.375   0.513   9.317  0.4204 -0.8044  1.2761
   53CHL1  H12B 6361   4.245   0.625   9.358  0.5456  0.0368  0.6150
   53CHL1   C11 6362   4.294   0.486   9.516 -0.0417 -0.3348  0.0767
   53CHL1  H11A 6363   4.341   0.386   9.526  0.8974  0.0999  0.0441
   53CHL1  H11B 6364   4.373   0.557   9.550 -1.1537 -0.2150  2.4830
   53CHL1    C9 6365   4.161   0.513   9.590  0.0757  0.4867 -0.6782
   53CHL1    H9 6366   4.149   0.622   9.573  1.4775  0.6069 -0.9771
   53CHL1   C10 6367   4.179   0.485   9.738 -0.4212  0.6082 -0.1019
   53CHL1   C19 6368   4.221   0.335   9.761 -0.6179  0.3190  0.3143
   53CHL1  H19A 6369   4.146   0.279   9.702 -2.3070  2.6616  0.1744
   53CHL1  H19B 6370   4.321   0.321   9.715  0.5218 -1.7131  3.2287
   53CHL1  H19C 6371   4.226   0.305   9.868 -0.4970  0.2526  0.2902
   53CHL1    C1 6372   4.300   0.559   9.802 -0.7636 -0.8381  0.6925
   53CHL1   H1A 6373   4.390   0.510   9.758  0.9431  0.8655  2.1938
   53CHL1   H1B 6374   4.312   0.663   9.766 -1.9984 -0.3639  1.5935
   53CHL1    C2 6375   4.299   0.565   9.954  0.4392  0.0250  0.8070
   53CHL1   H2A 6376   4.386   0.626   9.989 -0.0937  0.2833  1.7054
   53CHL1   H2B 6377   4.307   0.466  10.004  0.3035  0.4730  1.7263
   53CHL1   C20 6378   4.210   0.405   9.042 -0.9036  0.1811 -0.3236
   53CHL1   H20 6379   4.181   0.298   9.047 -0.7767  0.1734  0.2338
   53CHL1   C21 6380   4.363   0.426   9.067  0.8764  0.4519 -0.0485
   53CHL1  H21A 6381   4.420   0.375   8.986 -0.4033 -0.0860 -0.6173
   53CHL1  H21B 6382   4.408   0.380   9.158  0.0117  0.3660  0.3389
   53CHL1  H21C 6383   4.381   0.535   9.073 -0.4772  0.7176 -0.6836
   53CHL1   C22 6384   4.174   0.442   8.898 -0.5388 -0.0542 -1.2140
   53CHL1  H22A 6385   4.064   0.456   8.895 -0.4607  1.1992  0.5921
   53CHL1  H22B 6386   4.221   0.537   8.867 -0.8170 -0.0080 -1.4825
   53CHL1   C23 6387   4.222   0.343   8.794 -0.6983 -0.8122 -0.3475
   53CHL1  H23A 6388   4.330   0.353   8.769 -0.6106 -1.3372 -0.1918
   53CHL1  H23B 6389   4.214   0.238   8.830 -0.8818 -1.1060 -1.2124
   53CHL1   C24 6390   4.133   0.360   8.666  0.2821 -0.4796 -0.0373
   53CHL1  H24A 6391   4.156   0.272   8.602  0.3516 -1.8831  1.8609
   53CHL1  H24B 6392   4.028   0.356   8.700  0.1601  0.0306 -0.3474
   53CHL1   C25 6393   4.165   0.490   8.591 -0.0981  0.5676  0.2341
   53CHL1   H25 6394   4.157   0.586   8.646 -1.9123 -0.9540  2.7363
   53CHL1   C26 6395   4.305   0.499   8.535 -0.0655  0.0510 -0.4598
   53CHL1  H26A 6396   4.319   0.416   8.463 -0.0431 -0.6290  0.3202
   53CHL1  H26B 6397   4.315   0.593   8.477 -0.1853 -0.5610 -1.4721
   53CHL1  H26C 6398   4.382   0.487   8.614 -0.5551  0.2794  0.0583
   53CHL1   C27 6399   4.070   0.508   8.466  0.4494  0.3031 -0.1879
   53CHL1  H27A 6400   4.057   0.415   8.407  0.3881  2.0581 -3.0043
   53CHL1  H27B 6401   3.969   0.543   8.498  0.1462 -1.9702  1.4919
   53CHL1  H27C 6402   4.116   0.588   8.405 -0.1784  1.4656  0.8417
   54CHL1    C3 6403   4.397   2.028  10.245 -0.0451  0.7429  0.3288
   54CHL1    H3 6404   4.322   2.098  10.201 -0.7011 -0.2996 -0.2264
   54CHL1    O3 6405   4.432   2.073  10.377  0.1469  0.0124  0.0872
   54CHL1   H3' 6406   4.504   2.134  10.359 -1.0739  1.3923 -0.2814
   54CHL1    C4 6407   4.333   1.889  10.262 -0.0897  0.2802 -0.4234
   54CHL1   H4A 6408   4.406   1.833  10.324 -1.3937  0.2704  1.1360
   54CHL1   H4B 6409   4.237   1.895  10.318 -0.2840  2.1341 -0.9088
   54CHL1    C5 6410   4.301   1.818  10.132 -0.0400 -0.2421 -0.0037
   54CHL1    C6 6411   4.183   1.750  10.126 -0.2855  0.2219 -0.0540
   54CHL1    H6 6412   4.117   1.739  10.214 -0.8451 -0.3185 -0.5422
   54CHL1    C7 6413   4.136   1.677  10.002 -0.7147  0.1183  0.2754
   54CHL1   H7A 6414   4.096   1.574  10.015  3.0575 -1.9335 -3.2525
   54CHL1   H7B 6415   4.058   1.736   9.949 -1.6826 -0.3248  1.1740
   54CHL1    C8 6416   4.255   1.654   9.896  0.5160 -0.2643  0.0965
   54CHL1    H8 6417   4.322   1.575   9.936  0.3269 -1.4448 -1.8273
   54CHL1   C14 6418   4.202   1.616   9.756 -0.5821  0.3634 -0.1464
   54CHL1   H14 6419   4.134   1.703   9.737  1.4401  1.6919 -1.4753
   54CHL1   C15 6420   4.125   1.487   9.740  0.2868  0.2256  0.0318
   54CHL1  H15A 6421   4.160   1.399   9.798  1.1638  1.2448  1.0754
   54CHL1  H15B 6422   4.024   1.518   9.774 -0.2201 -1.9934  0.5862
   54CHL1   C16 6423   4.128   1.449   9.589 -0.2146  0.2093 -0.2889
   54CHL1  H16A 6424   4.168   1.345   9.582  1.0445  0.5613  1.4062
   54CHL1  H16B 6425   4.028   1.460   9.542  0.1565  0.8424 -0.9583
   54CHL1   C17 6426   4.227   1.543   9.529 -1.1593 -1.2277  0.2199
   54CHL1   H17 6427   4.171   1.627   9.485  0.1066 -0.8457 -0.7019
   54CHL1   C13 6428   4.309   1.609   9.648 -0.7607 -0.0553  0.2238
   54CHL1   C18 6429   4.417   1.505   9.685  0.7587  0.8537 -0.0534
   54CHL1  H18A 6430   4.382   1.409   9.642  0.8365  1.3970 -1.3564
   54CHL1  H18B 6431   4.518   1.538   9.650  1.7367 -1.6931  0.2453
   54CHL1  H18C 6432   4.422   1.478   9.793 -0.2668 -0.6461 -0.3694
   54CHL1   C12 6433   4.370   1.750   9.636 -0.4349  0.5913 -0.0447
   54CHL1  H12A 6434   4.450   1.751   9.559  0.4022  0.0098  0.7984
   54CHL1  H12B 6435   4.299   1.831   9.612  0.3615  1.3389  0.1114
   54CHL1   C11 6436   4.437   1.794   9.766  0.0952 -0.0938  0.3931
   54CHL1  H11A 6437   4.520   1.720   9.767 -2.0858 -2.6511  2.6398
   54CHL1  H11B 6438   4.471   1.897   9.744  0.0981 -0.2373 -0.2866
   54CHL1    C9 6439   4.338   1.785   9.885 -0.6336 -0.1422 -0.2782
   54CHL1    H9 6440   4.260   1.861   9.867 -0.0522  0.8652  1.3093
   54CHL1   C10 6441   4.402   1.823  10.019  0.6825  0.3028  1.3379
   54CHL1   C19 6442   4.514   1.730  10.051  0.2045  0.5049 -0.0077
   54CHL1  H19A 6443   4.476   1.625  10.056 -2.4458  1.4721  0.9139
   54CHL1  H19B 6444   4.583   1.731   9.964 -1.3405 -1.1980 -1.2866
   54CHL1  H19C 6445   4.575   1.755  10.140 -1.3240 -1.0259  1.5157
   54CHL1    C1 6446   4.465   1.969  10.008  0.2233 -0.3147 -0.0506
   54CHL1   H1A 6447   4.549   1.962   9.936  1.0248 -2.0293  1.0173
   54CHL1   H1B 6448   4.388   2.039   9.967  1.1237  0.1918 -0.8899
   54CHL1    C2 6449   4.519   2.023  10.147  0.8909 -0.0330  0.2553
   54CHL1   H2A 6450   4.552   2.128  10.132 -0.5758  0.3986 -0.0396
   54CHL1   H2B 6451   4.597   1.953  10.184 -0.4230 -1.4919  0.2615
   54CHL1   C20 6452   4.295   1.487   9.403  0.1118  0.2061 -0.1935
   54CHL1   H20 6453   4.355   1.399   9.435  2.2784  1.6099 -0.2934
   54CHL1   C21 6454   4.401   1.588   9.349 -0.0553  0.2625 -0.1809
   54CHL1  H21A 6455   4.487   1.598   9.419  1.0206 -0.6198 -1.3450
   54CHL1  H21B 6456   4.354   1.689   9.345 -2.0341 -0.6346 -0.2188
   54CHL1  H21C 6457   4.429   1.552   9.248  0.3059 -2.1890  0.7602
   54CHL1   C22 6458   4.195   1.439   9.291 -0.0124 -0.2585  0.0465
   54CHL1  H22A 6459   4.119   1.375   9.341  0.4846 -1.5296 -0.8018
   54CHL1  H22B 6460   4.149   1.527   9.241 -0.5913 -1.4800 -1.6535
   54CHL1   C23 6461   4.259   1.348   9.182 -0.2560  0.1749 -0.1798
   54CHL1  H23A 6462   4.328   1.406   9.117  1.5612  2.0114  3.2138
   54CHL1  H23B 6463   4.312   1.268   9.238 -1.2758 -1.0338 -0.9172
   54CHL1   C24 6464   4.151   1.282   9.105 -0.0844  0.3457  0.0122
   54CHL1  H24A 6465   4.203   1.244   9.014 -1.1634  0.6539 -0.7392
   54CHL1  H24B 6466   4.096   1.196   9.150 -1.5192  0.7026 -1.0072
   54CHL1   C25 6467   4.041   1.375   9.039 -0.8160 -0.6220 -0.3157
   54CHL1   H25 6468   4.011   1.447   9.117 -0.5430 -1.2422  0.3690
   54CHL1   C26 6469   4.106   1.464   8.928 -0.7072 -0.0526 -0.5534
   54CHL1  H26A 6470   4.187   1.522   8.977 -1.9525  2.0617 -0.9173
   54CHL1  H26B 6471   4.147   1.391   8.855 -1.3762 -1.2429  0.2474
   54CHL1  H26C 6472   4.042   1.539   8.876 -1.6800 -0.3174  0.2694
   54CHL1   C27 6473   3.911   1.314   8.985 -0.0003 -0.3874 -0.4026
   54CHL1  H27A 6474   3.863   1.245   9.059  0.9618  0.3193  0.9084
   54CHL1  H27B 6475   3.841   1.388   8.941  3.4896  2.3567 -1.5467
   54CHL1  H27C 6476   3.943   1.248   8.902  3.5096  2.3616 -1.3176
   55CHL1    C3 6477   5.322   6.641  10.138  0.0523 -0.1426  0.1533
   55CHL1    H3 6478   5.374   6.728  10.093 -0.7261 -0.1697 -0.8276
   55CHL1    O3 6479   5.312   6.666  10.277  0.3330 -0.3097 -0.9470
   55CHL1   H3' 6480   5.401   6.651  10.308 -0.0955 -0.2036  0.3571
   55CHL1    C4 6481   5.178   6.637  10.079  0.3796 -0.3992 -0.0651
   55CHL1   H4A 6482   5.100   6.578  10.132 -3.0738  1.1040 -3.2604
   55CHL1   H4B 6483   5.146   6.743  10.090  1.1261 -0.4422  3.1432
   55CHL1    C5 6484   5.195   6.594   9.931 -0.5039  0.2069  0.3432
   55CHL1    C6 6485   5.154   6.672   9.823  0.3080 -0.1634  0.6504
   55CHL1    H6 6486   5.099   6.762   9.852  1.4614  0.2090  1.7350
   55CHL1    C7 6487   5.174   6.639   9.680 -0.2673 -0.0456 -0.1438
   55CHL1   H7A 6488   5.086   6.651   9.613 -1.4445 -2.6708  0.8615
   55CHL1   H7B 6489   5.249   6.711   9.640  0.7707 -0.7750  0.4443
   55CHL1    C8 6490   5.228   6.492   9.650 -0.2554  0.1814 -0.0305
   55CHL1    H8 6491   5.142   6.422   9.659  0.2904 -0.5200 -0.3357
   55CHL1   C14 6492   5.286   6.477   9.507  0.2542  0.0306 -0.5778
   55CHL1   H14 6493   5.380   6.536   9.500  0.2000  0.4124  1.4834
   55CHL1   C15 6494   5.212   6.529   9.387  0.3243  0.4217  0.2412
   55CHL1  H15A 6495   5.103   6.508   9.400  0.4489  0.1246  0.8104
   55CHL1  H15B 6496   5.229   6.638   9.373  2.5375  0.6137  3.9442
   55CHL1   C16 6497   5.272   6.444   9.274 -0.5813  0.1463  0.0359
   55CHL1  H16A 6498   5.190   6.389   9.222  0.7234 -1.3559 -0.4684
   55CHL1  H16B 6499   5.332   6.504   9.203  1.2254  1.4530  2.6043
   55CHL1   C17 6500   5.379   6.341   9.337  0.0731 -0.2663  0.8651
   55CHL1   H17 6501   5.474   6.397   9.327 -1.1280  1.5662 -0.5083
   55CHL1   C13 6502   5.331   6.328   9.478 -0.1930 -0.3640 -0.6233
   55CHL1   C18 6503   5.209   6.231   9.494  0.2182  0.9074 -0.3050
   55CHL1  H18A 6504   5.132   6.244   9.414 -0.1772  3.1743  0.4052
   55CHL1  H18B 6505   5.239   6.125   9.478  0.5598  1.1538 -1.3623
   55CHL1  H18C 6506   5.158   6.235   9.593 -1.4417 -2.4655 -0.9498
   55CHL1   C12 6507   5.443   6.295   9.575  0.4600 -0.2716 -0.5438
   55CHL1  H12A 6508   5.490   6.195   9.570 -1.8941 -1.4714  0.7746
   55CHL1  H12B 6509   5.520   6.372   9.550  0.6550  0.4374  2.0809
   55CHL1   C11 6510   5.392   6.316   9.716  0.0868  0.3173 -0.0854
   55CHL1  H11A 6511   5.323   6.233   9.742  1.2635  0.0838  2.4672
   55CHL1  H11B 6512   5.479   6.295   9.782 -0.7550 -1.2004  0.5784
   55CHL1    C9 6513   5.330   6.451   9.751 -0.4806  0.3654 -0.3998
   55CHL1    H9 6514   5.404   6.532   9.738 -0.2781  0.4151  0.9076
   55CHL1   C10 6515   5.282   6.467   9.899  0.0708  0.4669  0.2125
   55CHL1   C19 6516   5.187   6.345   9.940  0.4333 -0.3342  0.0417
   55CHL1  H19A 6517   5.093   6.346   9.882  1.0894 -0.8573 -1.0400
   55CHL1  H19B 6518   5.250   6.257   9.916  0.6654 -0.5485  1.4189
   55CHL1  H19C 6519   5.165   6.345  10.049 -0.9663 -0.1927 -0.2293
   55CHL1    C1 6520   5.413   6.458   9.987  0.3768 -0.3007  0.4979
   55CHL1   H1A 6521   5.459   6.357   9.985  2.4973  0.6405 -0.3145
   55CHL1   H1B 6522   5.487   6.525   9.939  0.6006 -0.8494  0.0762
   55CHL1    C2 6523   5.389   6.505  10.133  0.4447 -0.4260  0.2513
   55CHL1   H2A 6524   5.484   6.510  10.189  1.6507 -3.3265 -1.4137
   55CHL1   H2B 6525   5.323   6.441  10.195  0.6646 -2.3968 -1.4757
   55CHL1   C20 6526   5.381   6.219   9.253  0.1744  0.3680  0.4177
   55CHL1   H20 6527   5.277   6.181   9.256  0.2998  0.0314  0.6094
   55CHL1   C21 6528   5.465   6.099   9.309  0.2672  0.1820 -0.5166
   55CHL1  H21A 6529   5.555   6.137   9.362 -0.7017  0.0814  1.2673
   55CHL1  H21B 6530   5.496   6.026   9.232  0.2449 -0.2941 -0.0745
   55CHL1  H21C 6531   5.407   6.039   9.382  0.8375 -1.2191 -1.2038
   55CHL1   C22 6532   5.428   6.239   9.115 -0.3984 -0.8010 -0.2959
   55CHL1  H22A 6533   5.414   6.342   9.075 -1.9829 -0.5695  0.8190
   55CHL1  H22B 6534   5.537   6.216   9.114  0.1416  1.5636 -0.0865
   55CHL1   C23 6535   5.365   6.143   9.010 -0.2711 -0.3381 -0.0377
   55CHL1  H23A 6536   5.410   6.170   8.911 -1.3657  1.9325  0.0398
   55CHL1  H23B 6537   5.391   6.038   9.032 -2.1093 -0.7223  0.4066
   55CHL1   C24 6538   5.217   6.175   9.002 -0.2431  0.8228 -0.3268
   55CHL1  H24A 6539   5.176   6.126   9.093 -0.1992  2.2020  0.4642
   55CHL1  H24B 6540   5.212   6.285   9.017 -0.6104  0.6804  0.6687
   55CHL1   C25 6541   5.137   6.126   8.872 -0.3327 -0.5535  0.2963
   55CHL1   H25 6542   5.041   6.180   8.877 -0.6595 -1.0391 -0.6294
   55CHL1   C26 6543   5.198   6.165   8.742 -0.3217  0.0124 -0.0559
   55CHL1  H26A 6544   5.295   6.112   8.733 -0.0287  0.6474 -0.6410
   55CHL1  H26B 6545   5.133   6.136   8.657  2.2973 -0.7434 -1.8479
   55CHL1  H26C 6546   5.222   6.273   8.729  2.7582 -0.2847  2.3294
   55CHL1   C27 6547   5.108   5.972   8.884 -0.2226 -0.3132 -0.2661
   55CHL1  H27A 6548   5.053   5.959   8.980  0.1177  0.2007  0.0002
   55CHL1  H27B 6549   5.042   5.951   8.797 -0.7953  0.7421 -0.0966
   55CHL1  H27C 6550   5.202   5.914   8.874 -0.5477 -1.0907  1.0543
   56CHL1    C3 6551   2.698   4.205  10.067 -0.2586 -0.4198  0.3333
   56CHL1    H3 6552   2.643   4.298  10.041  0.2964 -0.1246  0.2046
   56CHL1    O3 6553   2.729   4.187  10.203  0.1479 -0.2538 -0.7809
   56CHL1   H3' 6554   2.772   4.101  10.211  1.0574  0.3065  0.4429
   56CHL1    C4 6555   2.630   4.080  10.015 -0.6052  0.3159 -0.2652
   56CHL1   H4A 6556   2.698   3.996  10.042  0.7214  1.6445  0.6460
   56CHL1   H4B 6557   2.533   4.056  10.063 -1.9853  1.9695 -2.1804
   56CHL1    C5 6558   2.620   4.088   9.863  0.6261 -0.4060 -0.4185
   56CHL1    C6 6559   2.505   4.097   9.803 -0.4115  0.1686 -0.6505
   56CHL1    H6 6560   2.416   4.080   9.865  0.0523 -0.3483 -0.1161
   56CHL1    C7 6561   2.485   4.077   9.657 -0.3951  0.3639 -0.6537
   56CHL1   H7A 6562   2.398   4.010   9.639  1.1177 -1.2666 -1.9508
   56CHL1   H7B 6563   2.460   4.178   9.618 -0.3300  0.3532 -0.7201
   56CHL1    C8 6564   2.614   4.030   9.583 -0.4309 -0.2676  0.2050
   56CHL1    H8 6565   2.622   3.919   9.585 -1.3709 -0.3230  1.4137
   56CHL1   C14 6566   2.601   4.068   9.434  0.0481  0.1873 -0.1640
   56CHL1   H14 6567   2.591   4.179   9.427  1.8818  0.4820  1.4394
   56CHL1   C15 6568   2.483   4.008   9.356  0.2852  0.0016  0.3957
   56CHL1  H15A 6569   2.472   3.898   9.363 -1.3346 -0.0187 -1.7651
   56CHL1  H15B 6570   2.390   4.051   9.400  1.0970  1.3643  0.8191
   56CHL1   C16 6571   2.524   4.042   9.207 -0.1611 -0.5913  0.7184
   56CHL1  H16A 6572   2.524   3.943   9.156  0.2805  0.7266 -1.9407
   56CHL1  H16B 6573   2.453   4.115   9.163 -0.1428 -0.8564  0.2568
   56CHL1   C17 6574   2.671   4.092   9.209 -0.5244  0.3833 -0.4248
   56CHL1   H17 6575   2.656   4.202   9.214 -1.4749  0.3157 -1.5278
   56CHL1   C13 6576   2.719   4.047   9.345  1.0632  0.4920 -0.6893
   56CHL1   C18 6577   2.761   3.892   9.343 -0.4224 -0.0653 -0.5195
   56CHL1  H18A 6578   2.689   3.845   9.272 -2.6997  4.0393 -1.0910
   56CHL1  H18B 6579   2.865   3.886   9.304  0.5052 -3.5369  2.2249
   56CHL1  H18C 6580   2.752   3.826   9.432 -0.7183  0.1386 -0.3977
   56CHL1   C12 6581   2.842   4.125   9.403  0.1043 -0.3612 -0.1230
   56CHL1  H12A 6582   2.930   4.100   9.340 -0.0395 -1.9436  0.3052
   56CHL1  H12B 6583   2.835   4.236   9.400 -0.6432 -0.4232 -1.0304
   56CHL1   C11 6584   2.858   4.089   9.550 -0.2977  1.4186 -0.3397
   56CHL1  H11A 6585   2.887   3.982   9.548 -2.9617  0.6607 -0.6994
   56CHL1  H11B 6586   2.944   4.145   9.592  0.5990 -0.2210  0.0418
   56CHL1    C9 6587   2.735   4.106   9.641  0.7867  1.2319  0.8620
   56CHL1    H9 6588   2.694   4.208   9.632 -2.4517 -0.2203 -2.1391
   56CHL1   C10 6589   2.756   4.087   9.789  0.4543 -0.5723 -0.3130
   56CHL1   C19 6590   2.843   3.960   9.823  0.1736  0.8189 -0.3185
   56CHL1  H19A 6591   2.789   3.864   9.811  2.3046 -0.4677  0.1901
   56CHL1  H19B 6592   2.933   3.956   9.759 -0.3757 -0.7903 -1.0154
   56CHL1  H19C 6593   2.879   3.962   9.928 -0.2431  0.4084 -0.1681
   56CHL1    C1 6594   2.833   4.214   9.837  0.8128  0.2447  0.8920
   56CHL1   H1A 6595   2.938   4.206   9.802  0.1199  1.8289 -1.6589
   56CHL1   H1B 6596   2.797   4.301   9.777 -1.7514 -1.8614 -0.7335
   56CHL1    C2 6597   2.835   4.233   9.990  0.6659 -0.4711 -0.3995
   56CHL1   H2A 6598   2.879   4.331  10.020  0.1153  0.0836 -1.3790
   56CHL1   H2B 6599   2.913   4.166  10.032  1.9543  0.8024 -0.7150
   56CHL1   C20 6600   2.743   4.046   9.076 -0.3792 -0.7468  0.3444
   56CHL1   H20 6601   2.764   3.937   9.076 -1.8399 -1.0375 -1.7872
   56CHL1   C21 6602   2.874   4.121   9.064  0.3777 -0.3066 -0.0382
   56CHL1  H21A 6603   2.936   4.096   9.153 -2.3592 -3.0249  1.1981
   56CHL1  H21B 6604   2.850   4.228   9.084 -2.5965 -0.8057 -0.7436
   56CHL1  H21C 6605   2.922   4.092   8.968  0.9535  0.8506 -0.1067
   56CHL1   C22 6606   2.646   4.073   8.959 -0.1495  0.3720 -0.6171
   56CHL1  H22A 6607   2.558   4.006   8.950 -0.1767  0.8335 -4.3442
   56CHL1  H22B 6608   2.621   4.181   8.968  1.4353  0.5720  1.9467
   56CHL1   C23 6609   2.716   4.065   8.815  0.4934  0.2016 -0.6072
   56CHL1  H23A 6610   2.806   4.130   8.810  0.1325  0.6862 -0.8383
   56CHL1  H23B 6611   2.745   3.960   8.796  0.8336  0.4139 -1.2703
   56CHL1   C24 6612   2.620   4.113   8.700 -0.0389  0.0210 -1.2276
   56CHL1  H24A 6613   2.591   4.213   8.739 -2.3377 -0.6239 -1.2092
   56CHL1  H24B 6614   2.677   4.116   8.605 -1.3574 -2.6303 -2.1680
   56CHL1   C25 6615   2.495   4.030   8.677  0.1166 -0.1220 -0.5386
   56CHL1   H25 6616   2.474   3.967   8.766  1.0377 -0.9746 -0.9133
   56CHL1   C26 6617   2.370   4.112   8.634 -0.1330 -0.3703 -0.0909
   56CHL1  H26A 6618   2.340   4.186   8.711  3.0293 -0.3074  1.1555
   56CHL1  H26B 6619   2.390   4.163   8.537 -1.7941 -2.3238 -1.5139
   56CHL1  H26C 6620   2.280   4.050   8.616 -0.9147  0.3520  1.2496
   56CHL1   C27 6621   2.533   3.930   8.567  0.7152  0.2673 -0.0494
   56CHL1  H27A 6622   2.471   3.838   8.553  0.3691  0.4491  0.2828
   56CHL1  H27B 6623   2.535   3.982   8.469  1.3094 -2.3194 -1.4589
   56CHL1  H27C 6624   2.632   3.884   8.587 -0.0483 -2.5721 -2.3438
   57CHL1    C3 6625   5.405   0.239  10.157 -0.0949  0.1008 -0.2438
   57CHL1    H3 6626   5.326   0.161  10.156 -1.4316  1.4143  0.3230
   57CHL1    O3 6627   5.413   0.296  10.286  0.0522 -0.5720  0.4548
   57CHL1   H3' 6628   5.476   0.244  10.337 -1.5131 -1.3939  1.6031
   57CHL1    C4 6629   5.542   0.193  10.130  0.4044  0.0610 -0.0357
   57CHL1   H4A 6630   5.615   0.277  10.137  0.2797  0.0548  1.6267
   57CHL1   H4B 6631   5.577   0.117  10.204  1.0528  0.2346 -0.1554
   57CHL1    C5 6632   5.558   0.139   9.990 -0.1615 -0.3326 -0.6330
   57CHL1    C6 6633   5.623   0.019   9.973 -0.1312  0.5005 -0.1452
   57CHL1    H6 6634   5.666  -0.038  10.057  1.1602  0.5900 -0.7339
   57CHL1    C7 6635   5.639  -0.047   9.838  0.2658  0.0609 -0.0008
   57CHL1   H7A 6636   5.745  -0.081   9.841  1.0475  2.5445  2.9517
   57CHL1   H7B 6637   5.583  -0.143   9.844  0.0915  0.1753  0.2099
   57CHL1    C8 6638   5.602   0.046   9.719 -0.1683 -0.3883  0.1590
   57CHL1    H8 6639   5.690   0.113   9.707 -0.5256 -0.0683 -0.6872
   57CHL1   C14 6640   5.573  -0.028   9.597 -0.1889 -0.3224  0.3898
   57CHL1   H14 6641   5.473  -0.078   9.604 -1.4733  1.9527 -1.2076
   57CHL1   C15 6642   5.664  -0.150   9.569  1.1398 -0.4743 -0.5690
   57CHL1  H15A 6643   5.766  -0.108   9.583  0.3259  0.8878  1.4304
   57CHL1  H15B 6644   5.653  -0.241   9.631 -1.0450 -1.3516 -2.1697
   57CHL1   C16 6645   5.628  -0.176   9.428  0.9306  0.3886 -0.3413
   57CHL1  H16A 6646   5.719  -0.182   9.365 -0.5962 -0.8462 -2.4883
   57CHL1  H16B 6647   5.588  -0.280   9.426 -1.2640  1.0844  3.0381
   57CHL1   C17 6648   5.529  -0.061   9.369  0.5660 -0.4951  0.0945
   57CHL1   H17 6649   5.424  -0.098   9.375 -0.2508  1.5873 -0.9274
   57CHL1   C13 6650   5.553   0.053   9.469  0.4688  0.6209 -0.0772
   57CHL1   C18 6651   5.682   0.138   9.441 -0.2216 -0.1003 -0.2986
   57CHL1  H18A 6652   5.672   0.193   9.345  0.4471 -0.8815 -0.8281
   57CHL1  H18B 6653   5.687   0.214   9.521 -0.9243 -0.3765  0.0139
   57CHL1  H18C 6654   5.763   0.064   9.426 -1.3721 -1.4508 -0.0023
   57CHL1   C12 6655   5.424   0.125   9.498 -0.3325 -0.5163  0.3543
   57CHL1  H12A 6656   5.404   0.197   9.417 -0.2816 -2.3131 -1.2874
   57CHL1  H12B 6657   5.336   0.058   9.508  0.3937 -1.2133  2.4146
   57CHL1   C11 6658   5.431   0.215   9.624 -0.6331 -0.0829  0.5968
   57CHL1  H11A 6659   5.511   0.289   9.607 -0.2694 -0.2947  1.3768
   57CHL1  H11B 6660   5.337   0.271   9.644  0.2748  2.0116 -0.8040
   57CHL1    C9 6661   5.480   0.132   9.748  0.2951 -0.0414 -0.3499
   57CHL1    H9 6662   5.390   0.068   9.763 -1.1910  2.2327  0.9306
   57CHL1   C10 6663   5.495   0.219   9.878 -1.3152  0.3935  0.0402
   57CHL1   C19 6664   5.599   0.327   9.861 -0.7328 -0.2060  0.0360
   57CHL1  H19A 6665   5.574   0.394   9.775  1.3010  1.2482  0.5195
   57CHL1  H19B 6666   5.601   0.391   9.952  0.1986 -0.1597 -0.0059
   57CHL1  H19C 6667   5.697   0.281   9.834 -0.1091  1.1449 -0.0887
   57CHL1    C1 6668   5.357   0.282   9.913 -0.4697 -0.3236 -0.2180
   57CHL1   H1A 6669   5.339   0.362   9.838  1.7949 -1.2016 -1.7516
   57CHL1   H1B 6670   5.272   0.213   9.899 -0.8262 -0.1793  1.1418
   57CHL1    C2 6671   5.351   0.345  10.053 -0.4359 -0.3160 -0.0353
   57CHL1   H2A 6672   5.252   0.377  10.093  0.0803  0.2276  0.8227
   57CHL1   H2B 6673   5.413   0.438  10.048 -1.7459  0.5828  0.1261
   57CHL1   C20 6674   5.561  -0.032   9.224  0.1762 -0.5388 -0.1394
   57CHL1   H20 6675   5.665   0.009   9.223  0.8972 -2.3018  0.5166
   57CHL1   C21 6676   5.468   0.083   9.170 -0.4420  0.0464 -0.1928
   57CHL1  H21A 6677   5.440   0.072   9.063  3.5852  1.7094 -1.5250
   57CHL1  H21B 6678   5.525   0.178   9.179  0.3193 -0.5422  1.3929
   57CHL1  H21C 6679   5.374   0.100   9.226  0.2102  0.9417  0.6746
   57CHL1   C22 6680   5.555  -0.155   9.134 -0.0815 -0.3898 -0.3092
   57CHL1  H22A 6681   5.577  -0.249   9.189  0.5434  0.5916  1.1791
   57CHL1  H22B 6682   5.447  -0.156   9.109 -0.2753  0.7340  0.4434
   57CHL1   C23 6683   5.650  -0.153   9.013  0.7480 -0.3151 -0.0821
   57CHL1  H23A 6684   5.631  -0.078   8.933 -0.0143 -0.9184 -0.4829
   57CHL1  H23B 6685   5.752  -0.127   9.050  0.8190  0.1919 -0.6254
   57CHL1   C24 6686   5.644  -0.281   8.930  0.2285  0.1739 -1.0539
   57CHL1  H24A 6687   5.700  -0.360   8.985 -0.3265  2.0628  2.4282
   57CHL1  H24B 6688   5.548  -0.335   8.924  0.6718 -0.9441  1.2051
   57CHL1   C25 6689   5.712  -0.272   8.794 -0.1954 -0.1399  0.1298
   57CHL1   H25 6690   5.647  -0.212   8.727  0.4039  0.2852 -0.0741
   57CHL1   C26 6691   5.846  -0.212   8.791 -0.2447 -0.1411  0.4793
   57CHL1  H26A 6692   5.841  -0.103   8.812 -0.2705 -0.3281  1.4545
   57CHL1  H26B 6693   5.904  -0.258   8.874  0.1643  1.6593  1.2284
   57CHL1  H26C 6694   5.896  -0.236   8.695 -3.0429 -1.5591 -0.6778
   57CHL1   C27 6695   5.703  -0.409   8.711 -0.3652 -0.0782 -0.2183
   57CHL1  H27A 6696   5.598  -0.433   8.684 -1.1753  1.8916  1.0482
   57CHL1  H27B 6697   5.757  -0.417   8.614 -1.7931 -3.5181 -0.8168
   57CHL1  H27C 6698   5.737  -0.500   8.766 -1.0299  0.8325  1.7227
   58CHL1    C3 6699   1.439   5.281  10.081 -0.2428  0.7298  0.1675
   58CHL1    H3 6700   1.364   5.361  10.064 -0.2204  0.4747 -1.2598
   58CHL1    O3 6701   1.457   5.257  10.221  0.4091 -0.3823 -0.2435
   58CHL1   H3' 6702   1.529   5.317  10.242 -0.1222  0.5657 -1.0602
   58CHL1    C4 6703   1.384   5.148  10.017  0.1553  0.6614  0.2674
   58CHL1   H4A 6704   1.456   5.072  10.053  1.8823  1.9615 -0.3763
   58CHL1   H4B 6705   1.290   5.114  10.066  1.2298 -1.8652  0.6739
   58CHL1    C5 6706   1.385   5.158   9.865  0.3201  0.6935 -0.1996
   58CHL1    C6 6707   1.275   5.123   9.806 -0.1839 -0.1392  1.1476
   58CHL1    H6 6708   1.189   5.091   9.867  0.1887 -1.0844  1.1716
   58CHL1    C7 6709   1.265   5.113   9.650  0.1309 -0.3315  0.5268
   58CHL1   H7A 6710   1.195   5.032   9.621 -0.8690  1.1238 -1.2552
   58CHL1   H7B 6711   1.218   5.208   9.616 -0.2902 -0.6174  0.2984
   58CHL1    C8 6712   1.412   5.106   9.584 -0.4348 -0.0892  0.2416
   58CHL1    H8 6713   1.446   5.003   9.607 -0.9237 -0.4384 -0.5841
   58CHL1   C14 6714   1.413   5.128   9.433  0.0170  0.9054  0.2604
   58CHL1   H14 6715   1.381   5.233   9.419  1.4866  1.4136  0.6314
   58CHL1   C15 6716   1.313   5.033   9.355 -0.0058 -0.1971  0.4625
   58CHL1  H15A 6717   1.323   4.926   9.384  0.2735  0.0114  1.1453
   58CHL1  H15B 6718   1.215   5.075   9.386 -0.6720 -1.2600 -0.1438
   58CHL1   C16 6719   1.353   5.042   9.212  1.1069  0.0812  0.6900
   58CHL1  H16A 6720   1.362   4.939   9.171  1.3970  0.4772 -0.2524
   58CHL1  H16B 6721   1.275   5.100   9.159 -0.4877 -1.7661  0.9724
   58CHL1   C17 6722   1.492   5.114   9.217 -0.0949 -0.3636 -0.6308
   58CHL1   H17 6723   1.474   5.222   9.198  3.0384  0.5211  1.1813
   58CHL1   C13 6724   1.545   5.111   9.362 -1.0906  0.6273 -0.1514
   58CHL1   C18 6725   1.596   4.964   9.383  0.7223  0.3857  0.3957
   58CHL1  H18A 6726   1.534   4.885   9.335  0.1497 -0.0848  1.8676
   58CHL1  H18B 6727   1.702   4.957   9.348  0.5021 -0.0708 -0.2010
   58CHL1  H18C 6728   1.607   4.933   9.489 -0.2940 -0.9349  0.1304
   58CHL1   C12 6729   1.626   5.234   9.428 -0.8990  0.4121  0.0996
   58CHL1  H12A 6730   1.718   5.251   9.368 -0.6314  1.7335  0.8577
   58CHL1  H12B 6731   1.573   5.330   9.406  2.3812  1.6189 -2.8681
   58CHL1   C11 6732   1.647   5.210   9.574  0.1877  0.2115 -0.4598
   58CHL1  H11A 6733   1.712   5.121   9.590 -0.7172 -0.0116  2.2125
   58CHL1  H11B 6734   1.701   5.296   9.619  3.3148 -2.3898  0.8852
   58CHL1    C9 6735   1.512   5.209   9.644  0.3964 -0.0317  0.2919
   58CHL1    H9 6736   1.465   5.308   9.629 -2.5555 -1.0788  2.1662
   58CHL1   C10 6737   1.523   5.189   9.792  0.0173 -0.1149 -0.5232
   58CHL1   C19 6738   1.626   5.077   9.826 -0.5933 -0.2629  0.1322
   58CHL1  H19A 6739   1.600   4.992   9.759  0.0719  0.3397 -0.9036
   58CHL1  H19B 6740   1.731   5.113   9.819  0.2786 -2.7042 -0.2289
   58CHL1  H19C 6741   1.609   5.041   9.930  0.3214  1.3739  0.8711
   58CHL1    C1 6742   1.572   5.324   9.860  0.1137 -0.4991 -0.1759
   58CHL1   H1A 6743   1.671   5.355   9.820 -0.5468  0.4104 -1.1582
   58CHL1   H1B 6744   1.502   5.409   9.842  3.9073  2.2649 -2.7149
   58CHL1    C2 6745   1.574   5.318  10.014  0.2500  0.2933 -0.9265
   58CHL1   H2A 6746   1.587   5.421  10.054  4.1283 -0.2712 -0.5504
   58CHL1   H2B 6747   1.654   5.251  10.051  0.6787  0.5591 -1.3651
   58CHL1   C20 6748   1.592   5.066   9.107  0.3254 -0.0563 -1.0951
   58CHL1   H20 6749   1.603   4.956   9.119  2.4973  0.2479  0.0250
   58CHL1   C21 6750   1.720   5.138   9.124  0.1905 -0.3593 -0.4948
   58CHL1  H21A 6751   1.705   5.247   9.140  0.1875 -0.5548  0.8361
   58CHL1  H21B 6752   1.779   5.135   9.029 -2.2792 -1.7667 -2.0350
   58CHL1  H21C 6753   1.772   5.108   9.217 -0.1061  1.7009  0.3508
   58CHL1   C22 6754   1.532   5.083   8.962  0.1308  0.2777  0.1773
   58CHL1  H22A 6755   1.432   5.036   8.963 -0.6376  1.8746  0.4725
   58CHL1  H22B 6756   1.516   5.192   8.947  0.1010  0.2936  0.3300
   58CHL1   C23 6757   1.618   5.021   8.848 -0.0109  0.1890 -0.4298
   58CHL1  H23A 6758   1.717   5.070   8.854  1.6693 -3.0116 -0.8256
   58CHL1  H23B 6759   1.629   4.912   8.868  3.3789  0.0364 -2.6513
   58CHL1   C24 6760   1.563   5.051   8.712  0.5297 -0.4343 -0.2702
   58CHL1  H24A 6761   1.452   5.049   8.702  0.4975  0.8189 -0.3451
   58CHL1  H24B 6762   1.595   5.157   8.701  0.2277 -0.1178  1.7005
   58CHL1   C25 6763   1.619   4.979   8.596  0.0210 -0.1152 -0.7136
   58CHL1   H25 6764   1.607   4.870   8.611 -0.3985  0.4801  3.9322
   58CHL1   C26 6765   1.550   5.013   8.456 -0.2868 -0.0047  0.1720
   58CHL1  H26A 6766   1.559   5.122   8.437 -0.6954  0.2039  1.1330
   58CHL1  H26B 6767   1.605   4.963   8.373  1.1785 -0.7152  1.5299
   58CHL1  H26C 6768   1.443   4.984   8.465  0.9617 -4.2803  3.0903
   58CHL1   C27 6769   1.777   5.000   8.586  0.3961 -0.8564 -0.0555
   58CHL1  H27A 6770   1.826   4.978   8.683 -0.2199  1.5678  0.8404
   58CHL1  H27B 6771   1.824   4.929   8.515 -2.5329 -2.3116 -0.6572
   58CHL1  H27C 6772   1.798   5.105   8.555 -1.5723  0.6272  3.3772
   59CHL1    C3 6773   0.512   4.786  10.397  0.1687  0.6073 -0.3128
   59CHL1    H3 6774   0.615   4.765  10.432  0.6235  1.1600 -1.2764
   59CHL1    O3 6775   0.430   4.778  10.513  0.0575  0.4391  0.2851
   59CHL1   H3' 6776   0.451   4.698  10.561 -0.1596  0.2940  0.1399
   59CHL1    C4 6777   0.490   4.919  10.331  0.6041 -0.1455  0.2992
   59CHL1   H4A 6778   0.384   4.953  10.330  0.8772  0.7243 -0.3310
   59CHL1   H4B 6779   0.540   4.993  10.397 -0.0733  0.5672  0.0251
   59CHL1    C5 6780   0.548   4.926  10.186 -0.0611 -0.2182 -0.2758
   59CHL1    C6 6781   0.634   5.025  10.153 -0.0123  0.4225  0.4685
   59CHL1    H6 6782   0.650   5.107  10.225  0.5530  0.3273  0.4580
   59CHL1    C7 6783   0.703   5.038  10.015  0.1198  0.1061 -0.1915
   59CHL1   H7A 6784   0.690   5.144   9.984 -1.7914  0.6748  2.3334
   59CHL1   H7B 6785   0.810   5.009  10.015 -0.0277 -0.4469 -0.1498
   59CHL1    C8 6786   0.635   4.954   9.910 -0.0910  0.3896 -0.8088
   59CHL1    H8 6787   0.538   5.000   9.880 -0.2221 -0.1436 -1.1923
   59CHL1   C14 6788   0.723   4.932   9.791  0.3366  0.5123 -0.8503
   59CHL1   H14 6789   0.806   4.873   9.835 -0.9653 -1.2215 -0.6265
   59CHL1   C15 6790   0.782   5.054   9.732  0.1616  0.5981 -0.2026
   59CHL1  H15A 6791   0.703   5.127   9.708 -0.6680 -0.9257 -2.1576
   59CHL1  H15B 6792   0.855   5.112   9.793  2.0146 -1.6203 -0.2453
   59CHL1   C16 6793   0.844   5.011   9.600  0.1940  0.1757  0.8762
   59CHL1  H16A 6794   0.804   5.082   9.524 -1.2945 -2.0317 -0.4383
   59CHL1  H16B 6795   0.955   5.014   9.603  0.2648 -2.6743  4.6648
   59CHL1   C17 6796   0.799   4.860   9.580 -0.3035  0.2301  0.4720
   59CHL1   H17 6797   0.876   4.792   9.622  1.2805  0.0565 -2.5835
   59CHL1   C13 6798   0.682   4.842   9.674  0.4250  0.0688 -0.7059
   59CHL1   C18 6799   0.559   4.905   9.602 -0.7984  0.8625 -1.1863
   59CHL1  H18A 6800   0.585   5.004   9.559 -1.8241  2.0952  0.9023
   59CHL1  H18B 6801   0.492   4.833   9.550  0.8431 -1.6199  0.0580
   59CHL1  H18C 6802   0.492   4.930   9.687  1.4163  0.3451  0.7459
   59CHL1   C12 6803   0.650   4.704   9.735  0.4078  0.1042  0.7188
   59CHL1  H12A 6804   0.604   4.644   9.653 -1.1724  0.2131  1.5198
   59CHL1  H12B 6805   0.747   4.657   9.761  1.8843  1.4452 -2.1073
   59CHL1   C11 6806   0.548   4.719   9.854  0.0831 -0.2469 -0.3217
   59CHL1  H11A 6807   0.449   4.738   9.807 -0.1429 -1.5223 -0.3871
   59CHL1  H11B 6808   0.550   4.617   9.898  0.7021 -0.5118 -0.9531
   59CHL1    C9 6809   0.598   4.812   9.964 -0.0167  0.3647 -0.4912
   59CHL1    H9 6810   0.694   4.765   9.991 -0.5767 -1.7046 -2.0039
   59CHL1   C10 6811   0.511   4.813  10.093  0.2869 -0.7629  0.3582
   59CHL1   C19 6812   0.357   4.839  10.055 -0.9596 -0.5736 -0.5346
   59CHL1  H19A 6813   0.296   4.872  10.142 -0.1398  2.0783 -0.9301
   59CHL1  H19B 6814   0.354   4.919   9.978 -1.4716  0.0385  0.1206
   59CHL1  H19C 6815   0.309   4.748  10.013 -0.3781 -1.2918  0.3250
   59CHL1    C1 6816   0.523   4.679  10.170 -0.7634  0.1145 -0.4032
   59CHL1   H1A 6817   0.486   4.603  10.098 -0.9162 -2.3895  2.2237
   59CHL1   H1B 6818   0.628   4.649  10.192 -1.0919 -0.5505  0.2524
   59CHL1    C2 6819   0.462   4.669  10.307  0.0030  0.3589 -0.0228
   59CHL1   H2A 6820   0.479   4.565  10.343 -2.0469 -0.3309 -0.9315
   59CHL1   H2B 6821   0.351   4.670  10.299 -0.0277 -1.1424 -0.0030
   59CHL1   C20 6822   0.788   4.814   9.426 -0.3751  0.5856 -1.1032
   59CHL1   H20 6823   0.714   4.877   9.374 -0.6753 -1.1056 -2.7652
   59CHL1   C21 6824   0.753   4.664   9.413 -0.6712 -0.1608  0.6103
   59CHL1  H21A 6825   0.797   4.632   9.316 -0.2390  1.1537  0.3545
   59CHL1  H21B 6826   0.646   4.638   9.419 -0.5746 -0.5978  0.3970
   59CHL1  H21C 6827   0.799   4.603   9.494  0.9097 -1.2791 -1.1048
   59CHL1   C22 6828   0.926   4.833   9.365  0.0006 -0.4500 -0.2981
   59CHL1  H22A 6829   0.969   4.931   9.397  1.0231 -1.2115  0.7023
   59CHL1  H22B 6830   0.995   4.761   9.413  0.0849 -0.0574  0.1771
   59CHL1   C23 6831   0.942   4.833   9.212 -0.2090  0.1835  0.3048
   59CHL1  H23A 6832   1.043   4.788   9.199 -0.0688  0.2033  1.3133
   59CHL1  H23B 6833   0.877   4.755   9.167 -0.3909  0.1460  0.6299
   59CHL1   C24 6834   0.901   4.966   9.149 -0.0223  0.7819 -0.4402
   59CHL1  H24A 6835   0.792   4.984   9.156 -0.6390 -2.2971 -1.5662
   59CHL1  H24B 6836   0.949   5.044   9.213 -0.6600 -1.5541  3.0276
   59CHL1   C25 6837   0.930   4.986   8.994  0.4198  0.0632  0.3783
   59CHL1   H25 6838   1.038   4.971   8.976 -0.1118 -2.3372 -0.9887
   59CHL1   C26 6839   0.841   4.885   8.915  0.0285  0.2810  0.2204
   59CHL1  H26A 6840   0.736   4.922   8.922 -0.3920 -0.8818  0.0688
   59CHL1  H26B 6841   0.869   4.887   8.807  1.2067 -0.6515  0.4982
   59CHL1  H26C 6842   0.872   4.787   8.957  3.5519  0.3418 -1.9796
   59CHL1   C27 6843   0.896   5.127   8.945 -0.0715 -0.1535 -0.1599
   59CHL1  H27A 6844   0.954   5.210   8.990 -0.9062  1.5316 -2.1019
   59CHL1  H27B 6845   0.915   5.135   8.836  0.6716 -3.2587 -0.3267
   59CHL1  H27C 6846   0.788   5.148   8.959  0.4469  1.6686  1.1610
   60CHL1    C3 6847   6.714   3.316  10.410  0.6331 -0.2451  0.6169
   60CHL1    H3 6848   6.811   3.264  10.393  1.1236  0.6656  0.6306
   60CHL1    O3 6849   6.671   3.316  10.549  0.1738  0.1032  0.5506
   60CHL1   H3' 6850   6.576   3.306  10.537  0.4116 -0.0852 -1.5005
   60CHL1    C4 6851   6.735   3.461  10.361 -0.1750  0.1307 -0.0740
   60CHL1   H4A 6852   6.654   3.528  10.397  0.2625  1.0955 -0.8793
   60CHL1   H4B 6853   6.827   3.489  10.416 -0.6340  0.1763  0.6776
   60CHL1    C5 6854   6.748   3.473  10.206  0.0802  1.1466 -0.0445
   60CHL1    C6 6855   6.855   3.528  10.146  0.6744  0.3910  0.2292
   60CHL1    H6 6856   6.935   3.573  10.206  0.3796  0.0645  0.8691
   60CHL1    C7 6857   6.872   3.551  10.003  0.3448 -0.1187  0.1445
   60CHL1   H7A 6858   6.914   3.652   9.981 -0.0996  0.0010 -0.1753
   60CHL1   H7B 6859   6.949   3.483   9.961 -1.7749 -2.7324  0.3745
   60CHL1    C8 6860   6.739   3.525   9.933  0.1087 -0.1336  1.1489
   60CHL1    H8 6861   6.674   3.611   9.959 -2.0200 -1.6262  0.9659
   60CHL1   C14 6862   6.763   3.514   9.785 -0.2221 -0.2308  0.5466
   60CHL1   H14 6863   6.821   3.422   9.765  1.4218  0.7502  0.6608
   60CHL1   C15 6864   6.855   3.632   9.735 -0.4237 -0.6172 -0.0144
   60CHL1  H15A 6865   6.832   3.733   9.777 -1.9616 -0.9366 -0.0482
   60CHL1  H15B 6866   6.960   3.613   9.766  0.3372  2.8319 -0.2387
   60CHL1   C16 6867   6.822   3.638   9.583  0.2784  0.0768  0.4218
   60CHL1  H16A 6868   6.793   3.741   9.553 -1.0314 -0.4442 -0.1605
   60CHL1  H16B 6869   6.917   3.612   9.532 -0.7469 -0.1610 -1.4269
   60CHL1   C17 6870   6.721   3.524   9.559  1.2691  0.6484  0.1227
   60CHL1   H17 6871   6.785   3.435   9.541 -1.8579 -1.7046  0.3173
   60CHL1   C13 6872   6.644   3.507   9.692  0.1992  0.2385  1.1793
   60CHL1   C18 6873   6.546   3.629   9.711 -0.4972  0.5101  0.2753
   60CHL1  H18A 6874   6.588   3.722   9.669 -1.3571  1.6729  1.9288
   60CHL1  H18B 6875   6.450   3.608   9.660 -0.0994  0.5811 -0.5028
   60CHL1  H18C 6876   6.516   3.651   9.816  2.2003  3.9285  0.4108
   60CHL1   C12 6877   6.587   3.361   9.726  0.0416  0.1437 -0.7797
   60CHL1  H12A 6878   6.490   3.344   9.675  0.0316 -0.2270 -0.6401
   60CHL1  H12B 6879   6.663   3.291   9.687 -1.2484 -0.6224 -1.9911
   60CHL1   C11 6880   6.558   3.349   9.877  0.4269  0.4404 -0.5806
   60CHL1  H11A 6881   6.477   3.420   9.904 -0.1830 -0.4348 -0.1135
   60CHL1  H11B 6882   6.535   3.245   9.906  1.6406  0.6249  1.0955
   60CHL1    C9 6883   6.671   3.392   9.974  0.1580 -0.0044  0.5907
   60CHL1    H9 6884   6.759   3.324   9.971  3.0667  3.6509 -0.9241
   60CHL1   C10 6885   6.636   3.404  10.126  0.7730 -0.1297  0.1126
   60CHL1   C19 6886   6.503   3.493  10.141 -0.2319  0.0884  0.1729
   60CHL1  H19A 6887   6.528   3.593  10.101 -0.2737  0.7904  1.8741
   60CHL1  H19B 6888   6.416   3.442  10.095  1.6656 -1.5628 -1.7214
   60CHL1  H19C 6889   6.484   3.497  10.250  0.8692 -0.1476  0.3841
   60CHL1    C1 6890   6.616   3.264  10.186  0.1381 -0.5873 -0.0939
   60CHL1   H1A 6891   6.527   3.215  10.139 -0.2959  0.4239 -0.3445
   60CHL1   H1B 6892   6.707   3.205  10.163  1.0144  0.5213  0.4657
   60CHL1    C2 6893   6.598   3.260  10.336 -0.7248 -0.2131  0.8255
   60CHL1   H2A 6894   6.564   3.163  10.379 -1.8031  0.6238  1.9121
   60CHL1   H2B 6895   6.511   3.325  10.359 -0.1851  0.4449  1.0256
   60CHL1   C20 6896   6.636   3.543   9.438  0.9052 -0.0651 -0.2839
   60CHL1   H20 6897   6.581   3.638   9.452  1.4436 -0.0720  2.0409
   60CHL1   C21 6898   6.542   3.428   9.423 -0.2317  0.2348  0.5920
   60CHL1  H21A 6899   6.597   3.332   9.427  1.8188  1.2627 -1.8733
   60CHL1  H21B 6900   6.479   3.436   9.332 -0.4610  2.5572  0.9417
   60CHL1  H21C 6901   6.480   3.443   9.514  1.0570  2.5149  1.1262
   60CHL1   C22 6902   6.719   3.560   9.302  0.5780 -0.1765 -0.4570
   60CHL1  H22A 6903   6.801   3.633   9.315 -2.7366  3.5426  0.4999
   60CHL1  H22B 6904   6.762   3.462   9.273 -1.2884 -1.5500  1.2257
   60CHL1   C23 6905   6.634   3.603   9.185  0.0461  0.1353  0.5830
   60CHL1  H23A 6906   6.535   3.554   9.184  0.7502 -1.3736  1.8172
   60CHL1  H23B 6907   6.620   3.713   9.192 -3.5869 -0.2026 -0.3952
   60CHL1   C24 6908   6.697   3.580   9.045 -0.5099  0.7419 -0.2276
   60CHL1  H24A 6909   6.790   3.640   9.042 -0.4734  0.6562 -0.8632
   60CHL1  H24B 6910   6.719   3.474   9.019  0.3879  0.3254  2.1291
   60CHL1   C25 6911   6.621   3.655   8.929 -0.1292 -0.1674  0.4492
   60CHL1   H25 6912   6.603   3.761   8.955  0.2866  0.2545 -0.9571
   60CHL1   C26 6913   6.693   3.668   8.794 -0.3079 -0.4179 -0.2489
   60CHL1  H26A 6914   6.722   3.565   8.767  0.9314  0.0708 -0.8561
   60CHL1  H26B 6915   6.627   3.712   8.716 -2.2681 -0.0452  1.5576
   60CHL1  H26C 6916   6.787   3.727   8.795 -1.0568  0.8157 -0.5768
   60CHL1   C27 6917   6.475   3.605   8.911  0.0133  0.1223 -0.4645
   60CHL1  H27A 6918   6.448   3.508   8.864 -1.4113  0.6337 -0.7332
   60CHL1  H27B 6919   6.432   3.592   9.013  2.1794 -0.5502  0.3824
   60CHL1  H27C 6920   6.413   3.679   8.854 -0.6300 -2.0249 -2.6171
   61CHL1    C3 6921   4.192   3.813  10.430  0.7702 -0.4444  0.5375
   61CHL1    H3 6922   4.200   3.908  10.374 -2.0788  0.0303  0.8450
   61CHL1    O3 6923   4.187   3.832  10.572 -0.1926  0.2336  0.3308
   61CHL1   H3' 6924   4.095   3.831  10.599 -0.7646  1.1626 -1.4593
   61CHL1    C4 6925   4.067   3.745  10.379 -0.0606 -0.8424 -0.9011
   61CHL1   H4A 6926   4.031   3.645  10.414  0.6220 -0.3685  1.2715
   61CHL1   H4B 6927   3.983   3.811  10.410  0.4483 -0.7222  0.2724
   61CHL1    C5 6928   4.083   3.723  10.230  0.5676 -0.6916 -0.2483
   61CHL1    C6 6929   3.981   3.775  10.148 -0.4519 -0.7526  0.0297
   61CHL1    H6 6930   3.896   3.822  10.201 -0.2671 -0.7261  0.3050
   61CHL1    C7 6931   3.981   3.762   9.993 -0.9532 -0.1107 -0.2208
   61CHL1   H7A 6932   3.885   3.735   9.944  0.4441 -0.7313 -2.7137
   61CHL1   H7B 6933   4.018   3.859   9.954 -0.8564 -0.3175 -0.6443
   61CHL1    C8 6934   4.086   3.655   9.955  0.7544  0.0163  0.3971
   61CHL1    H8 6935   4.039   3.559   9.987 -1.4458  0.3260 -1.7106
   61CHL1   C14 6936   4.120   3.671   9.804 -0.2027  0.2389 -0.0926
   61CHL1   H14 6937   4.181   3.761   9.785  0.0022 -0.5158 -3.3181
   61CHL1   C15 6938   3.996   3.672   9.712  0.7842 -0.7706  0.5045
   61CHL1  H15A 6939   3.922   3.599   9.751 -0.1732 -0.6288 -1.0218
   61CHL1  H15B 6940   3.957   3.776   9.712  0.5098 -0.8727  0.9646
   61CHL1   C16 6941   4.038   3.623   9.578  0.1532  0.1849  1.0422
   61CHL1  H16A 6942   3.991   3.528   9.545 -0.2987  1.2088 -1.3976
   61CHL1  H16B 6943   4.008   3.702   9.506  1.6358  0.8025  1.0826
   61CHL1   C17 6944   4.187   3.589   9.588  0.1231  0.5980 -0.2474
   61CHL1   H17 6945   4.250   3.678   9.568  1.5434 -0.2255  0.4770
   61CHL1   C13 6946   4.206   3.561   9.740  0.1978 -0.0731  0.2385
   61CHL1   C18 6947   4.139   3.422   9.766 -0.7753 -0.5804  0.5715
   61CHL1  H18A 6948   4.214   3.348   9.731 -1.6926 -0.8069 -0.9603
   61CHL1  H18B 6949   4.115   3.405   9.873 -2.5909 -0.0377  0.2674
   61CHL1  H18C 6950   4.052   3.402   9.700 -0.4002  0.7024 -0.3451
   61CHL1   C12 6951   4.348   3.579   9.807 -0.3144  0.1104  0.7540
   61CHL1  H12A 6952   4.424   3.503   9.778  0.5461  0.7568  1.2869
   61CHL1  H12B 6953   4.395   3.677   9.782  0.6402 -0.8075 -1.2330
   61CHL1   C11 6954   4.327   3.571   9.957 -0.2635 -0.2417  0.4460
   61CHL1  H11A 6955   4.312   3.463   9.980  0.9621  0.1475  3.2734
   61CHL1  H11B 6956   4.428   3.589  10.000 -0.2313  2.6083 -0.7190
   61CHL1    C9 6957   4.221   3.666  10.022 -0.4236  0.1076  0.7580
   61CHL1    H9 6958   4.258   3.769  10.004  0.2113  0.3008  3.0341
   61CHL1   C10 6959   4.208   3.652  10.175  0.3169  0.2267  0.0307
   61CHL1   C19 6960   4.200   3.502  10.215 -0.5404  0.3731 -0.2275
   61CHL1  H19A 6961   4.302   3.461  10.197  0.1438  1.9914 -0.1300
   61CHL1  H19B 6962   4.179   3.496  10.324 -1.6280 -3.0087 -0.5936
   61CHL1  H19C 6963   4.131   3.433  10.162 -0.0233 -0.6410  0.4104
   61CHL1    C1 6964   4.328   3.723  10.235 -0.0104 -0.7952 -0.4647
   61CHL1   H1A 6965   4.424   3.672  10.212 -0.2668 -1.0803 -0.8947
   61CHL1   H1B 6966   4.335   3.828  10.201  1.9213 -0.4748  0.8134
   61CHL1    C2 6967   4.317   3.735  10.391  0.1441  0.2957  0.3437
   61CHL1   H2A 6968   4.410   3.772  10.439  0.1471 -0.5585  1.0015
   61CHL1   H2B 6969   4.295   3.631  10.425  2.0289 -0.3289 -0.2429
   61CHL1   C20 6970   4.232   3.476   9.481 -0.0334  0.4687 -0.4631
   61CHL1   H20 6971   4.193   3.385   9.532 -0.3580  0.2880 -1.0200
   61CHL1   C21 6972   4.386   3.474   9.473 -0.0941 -0.0552 -1.0205
   61CHL1  H21A 6973   4.433   3.574   9.459  2.1723 -0.8250  0.7426
   61CHL1  H21B 6974   4.418   3.412   9.387  1.8291  0.1366 -0.4749
   61CHL1  H21C 6975   4.419   3.422   9.566  1.0150 -0.5350 -1.6701
   61CHL1   C22 6976   4.155   3.490   9.347  0.6043 -0.4409 -0.2907
   61CHL1  H22A 6977   4.050   3.458   9.361  0.4454 -0.0674 -0.6154
   61CHL1  H22B 6978   4.158   3.598   9.318 -1.9721  0.1723  1.5392
   61CHL1   C23 6979   4.202   3.408   9.223 -0.1011 -0.1799 -0.4243
   61CHL1  H23A 6980   4.299   3.452   9.191 -0.4393  0.5602 -0.4590
   61CHL1  H23B 6981   4.214   3.305   9.263 -2.9133 -0.0275  0.9091
   61CHL1   C24 6982   4.109   3.414   9.097  1.1056 -0.0615 -0.5394
   61CHL1  H24A 6983   4.139   3.341   9.020  1.6466  0.9129 -1.2656
   61CHL1  H24B 6984   4.004   3.389   9.123  0.9998  0.7793 -0.1213
   61CHL1   C25 6985   4.119   3.552   9.029  0.5006 -0.1239 -0.6654
   61CHL1   H25 6986   4.100   3.624   9.112  1.6825 -0.7764  0.1944
   61CHL1   C26 6987   4.248   3.574   8.951 -0.2393 -0.1572 -0.6114
   61CHL1  H26A 6988   4.250   3.662   8.885 -0.4429  0.2732 -0.0466
   61CHL1  H26B 6989   4.338   3.577   9.016 -1.5196  0.8434  1.1796
   61CHL1  H26C 6990   4.260   3.486   8.884 -0.0322 -0.1289 -0.6105
   61CHL1   C27 6991   3.991   3.555   8.936 -0.5647  0.5483 -0.3844
   61CHL1  H27A 6992   3.908   3.572   9.007  0.5238 -2.5101  1.7010
   61CHL1  H27B 6993   3.992   3.647   8.874  1.0096  1.3804  0.8211
   61CHL1  H27C 6994   3.972   3.465   8.873 -1.1979 -0.4373  1.1952
   62CHL1    C3 6995   4.744   0.278  10.188 -0.6504  0.1525 -0.2303
   62CHL1    H3 6996   4.753   0.171  10.213  3.6485  1.2550  3.7239
   62CHL1    O3 6997   4.763   0.357  10.306 -0.1971  0.0692  0.3145
   62CHL1   H3' 6998   4.685   0.343  10.360  0.3907  1.0405  1.4715
   62CHL1    C4 6999   4.851   0.319  10.087 -0.3173 -0.1654  0.3147
   62CHL1   H4A 7000   4.842   0.429  10.072  0.4609 -0.4318 -2.3330
   62CHL1   H4B 7001   4.949   0.297  10.136 -0.4390 -0.9510  0.2140
   62CHL1    C5 7002   4.826   0.246   9.954  0.5318  0.2888 -0.4895
   62CHL1    C6 7003   4.932   0.179   9.901 -0.0269  0.2765  0.4867
   62CHL1    H6 7004   5.033   0.180   9.944  1.7562  0.8134 -3.5200
   62CHL1    C7 7005   4.922   0.105   9.767 -0.6700 -0.6598 -0.4760
   62CHL1   H7A 7006   5.019   0.115   9.715 -1.9974  0.8044 -2.7613
   62CHL1   H7B 7007   4.907  -0.003   9.787  0.9564 -0.6230  1.0452
   62CHL1    C8 7008   4.805   0.162   9.690 -0.0723  0.4992  0.4285
   62CHL1    H8 7009   4.823   0.265   9.654 -0.6282  0.0730 -1.0956
   62CHL1   C14 7010   4.796   0.071   9.567  0.2699 -0.3549  0.0062
   62CHL1   H14 7011   4.789  -0.034   9.602  0.7296 -0.2569  0.4054
   62CHL1   C15 7012   4.916   0.064   9.484 -0.3699  0.2045 -0.3592
   62CHL1  H15A 7013   4.959   0.165   9.469 -0.9433  0.0770 -3.0939
   62CHL1  H15B 7014   5.003   0.001   9.514 -0.5408  0.4459  0.6725
   62CHL1   C16 7015   4.861   0.016   9.350  0.4692 -0.1395 -0.2905
   62CHL1  H16A 7016   4.887   0.079   9.262 -0.3697 -0.3807 -0.7124
   62CHL1  H16B 7017   4.902  -0.083   9.323 -0.7267 -1.6332  3.1090
   62CHL1   C17 7018   4.710  -0.006   9.366  0.0881  0.3845 -0.3537
   62CHL1   H17 7019   4.686  -0.105   9.409 -0.4515  0.1551 -1.1590
   62CHL1   C13 7020   4.672   0.092   9.478 -0.0047 -0.2471  0.0518
   62CHL1   C18 7021   4.675   0.230   9.421  0.4492  0.2940  1.0863
   62CHL1  H18A 7022   4.684   0.307   9.501  1.3266  0.4246  0.8661
   62CHL1  H18B 7023   4.760   0.244   9.351 -0.5464 -0.1613 -0.2289
   62CHL1  H18C 7024   4.581   0.258   9.368  1.0063  0.0929 -0.0214
   62CHL1   C12 7025   4.552   0.063   9.568  0.5215  0.4134 -0.4202
   62CHL1  H12A 7026   4.458   0.070   9.509 -0.0685 -1.6249  0.2478
   62CHL1  H12B 7027   4.566  -0.041   9.603 -2.3392 -0.2917 -1.2148
   62CHL1   C11 7028   4.551   0.156   9.691 -0.5306 -0.0880 -0.1060
   62CHL1  H11A 7029   4.528   0.257   9.652  1.0453  0.1992 -0.3282
   62CHL1  H11B 7030   4.467   0.133   9.760  2.3133 -0.6637  3.3494
   62CHL1    C9 7031   4.679   0.148   9.768  0.6114 -0.0634 -0.1346
   62CHL1    H9 7032   4.675   0.042   9.800 -0.3398 -0.1556 -0.5510
   62CHL1   C10 7033   4.688   0.245   9.897 -0.4182 -0.3001  0.1241
   62CHL1   C19 7034   4.665   0.388   9.841 -0.0350 -0.0118  0.4114
   62CHL1  H19A 7035   4.555   0.404   9.829 -0.0376 -0.5177 -0.3264
   62CHL1  H19B 7036   4.708   0.464   9.909  1.2256 -2.0471  1.9419
   62CHL1  H19C 7037   4.705   0.393   9.737 -0.2087  0.3763  0.3630
   62CHL1    C1 7038   4.586   0.198  10.006 -0.4376  0.4479  0.3113
   62CHL1   H1A 7039   4.485   0.198   9.959  0.6690  1.5802 -2.1319
   62CHL1   H1B 7040   4.610   0.094  10.036  0.9472  0.6585 -0.0652
   62CHL1    C2 7041   4.600   0.287  10.137  0.1137  0.1358  0.5198
   62CHL1   H2A 7042   4.518   0.248  10.201  0.5775 -1.3065  0.2601
   62CHL1   H2B 7043   4.593   0.397  10.124 -0.7079  0.2147  1.6376
   62CHL1   C20 7044   4.642   0.011   9.230  0.7055  0.5749 -0.0949
   62CHL1   H20 7045   4.663   0.114   9.194  0.0759 -0.0468 -2.3253
   62CHL1   C21 7046   4.491   0.002   9.243  0.0021 -0.4197  0.0059
   62CHL1  H21A 7047   4.464  -0.097   9.287 -0.2052 -0.6261 -0.5805
   62CHL1  H21B 7048   4.445   0.006   9.142  0.5042  1.6565 -0.1530
   62CHL1  H21C 7049   4.447   0.085   9.302 -0.1360 -1.4009  1.3019
   62CHL1   C22 7050   4.706  -0.103   9.131 -0.2271 -0.4577  0.1629
   62CHL1  H22A 7051   4.714  -0.199   9.186  3.0400 -0.6386 -0.5531
   62CHL1  H22B 7052   4.631  -0.111   9.050 -3.9278  2.1626  3.1410
   62CHL1   C23 7053   4.826  -0.058   9.046  0.4913  1.0175 -1.1649
   62CHL1  H23A 7054   4.818   0.052   9.033  1.2392  1.1453 -0.5658
   62CHL1  H23B 7055   4.912  -0.081   9.111 -0.4387  0.5558 -0.0817
   62CHL1   C24 7056   4.835  -0.128   8.911 -0.5884  0.3812 -0.2212
   62CHL1  H24A 7057   4.814  -0.235   8.929  0.3753 -0.2450 -2.6555
   62CHL1  H24B 7058   4.760  -0.092   8.837 -2.3231  1.1193  1.8202
   62CHL1   C25 7059   4.971  -0.127   8.842 -0.4543 -0.0541 -0.8062
   62CHL1   H25 7060   5.003  -0.023   8.817 -0.5648 -0.4335 -2.5873
   62CHL1   C26 7061   5.087  -0.184   8.931 -0.0336  0.4172  0.5314
   62CHL1  H26A 7062   5.062  -0.289   8.958  0.5033 -0.4068 -2.0004
   62CHL1  H26B 7063   5.176  -0.182   8.865 -0.1062  3.5302  0.4773
   62CHL1  H26C 7064   5.105  -0.122   9.021  2.1471 -0.3227  0.6242
   62CHL1   C27 7065   4.957  -0.190   8.704  0.0321  0.3922 -0.0172
   62CHL1  H27A 7066   4.912  -0.290   8.718  0.0206  0.2250 -1.2006
   62CHL1  H27B 7067   4.878  -0.132   8.650 -0.8555 -1.3816 -0.6457
   62CHL1  H27C 7068   5.048  -0.180   8.642 -0.0825  0.7394 -0.1318
   63CHL1    C3 7069   6.446   1.548  10.365 -0.1318 -0.5733  0.7617
   63CHL1    H3 7070   6.548   1.577  10.333 -0.1759  0.9764  1.9495
   63CHL1    O3 7071   6.434   1.556  10.505  0.1129 -0.8479  0.8318
   63CHL1   H3' 7072   6.369   1.487  10.521 -0.5647 -0.5576 -0.5903
   63CHL1    C4 7073   6.337   1.636  10.310 -0.6541  0.4489 -0.4725
   63CHL1   H4A 7074   6.241   1.591  10.344 -1.4873  0.1189 -3.2009
   63CHL1   H4B 7075   6.348   1.739  10.352 -0.1318  0.9894 -1.9201
   63CHL1    C5 7076   6.337   1.628  10.157 -0.4043 -0.8715 -0.0883
   63CHL1    C6 7077   6.332   1.741  10.087  0.0658  0.1733  0.6730
   63CHL1    H6 7078   6.323   1.834  10.145 -2.2770  1.4268 -1.5892
   63CHL1    C7 7079   6.303   1.738   9.940  0.8747  0.2916 -0.2540
   63CHL1   H7A 7080   6.209   1.796   9.928 -0.5513 -1.8815  0.2458
   63CHL1   H7B 7081   6.390   1.787   9.890  0.9766  1.0812  0.6774
   63CHL1    C8 7082   6.278   1.598   9.871 -0.1290  0.0895 -0.5414
   63CHL1    H8 7083   6.169   1.587   9.889  0.3570 -1.8037  1.4734
   63CHL1   C14 7084   6.297   1.605   9.725  0.7306 -0.6111 -0.7258
   63CHL1   H14 7085   6.402   1.641   9.716  0.3399  0.2596 -1.9006
   63CHL1   C15 7086   6.201   1.706   9.657  0.0964 -0.9719 -0.3698
   63CHL1  H15A 7087   6.093   1.696   9.679  0.1482  0.0714  0.4021
   63CHL1  H15B 7088   6.224   1.814   9.672  1.0042 -1.0893 -0.9197
   63CHL1   C16 7089   6.222   1.668   9.510 -0.1849  0.3781  0.0059
   63CHL1  H16A 7090   6.125   1.649   9.460  0.0154 -1.0901  0.1388
   63CHL1  H16B 7091   6.268   1.750   9.451 -1.2505  1.0252  0.0611
   63CHL1   C17 7092   6.310   1.540   9.511  0.0824  0.7840 -0.4071
   63CHL1   H17 7093   6.416   1.572   9.517  0.0447  0.5668  1.6451
   63CHL1   C13 7094   6.287   1.476   9.650 -0.1880 -0.4524 -0.1518
   63CHL1   C18 7095   6.146   1.418   9.657 -0.0685 -0.0942 -0.3765
   63CHL1  H18A 7096   6.140   1.309   9.634  0.9925 -0.0598 -0.8703
   63CHL1  H18B 7097   6.106   1.426   9.760 -0.1807  1.3423 -0.5161
   63CHL1  H18C 7098   6.076   1.478   9.595 -0.0682  0.8957  0.5765
   63CHL1   C12 7099   6.388   1.373   9.707 -0.3005 -0.3742  0.2034
   63CHL1  H12A 7100   6.377   1.282   9.643 -1.9686 -0.6645  0.8769
   63CHL1  H12B 7101   6.489   1.417   9.698 -0.2710 -0.8498 -2.3086
   63CHL1   C11 7102   6.367   1.349   9.859 -0.3128  0.0682  0.0582
   63CHL1  H11A 7103   6.270   1.303   9.888  0.7358 -3.5257 -1.8164
   63CHL1  H11B 7104   6.453   1.286   9.890  0.6710  0.5812 -1.5653
   63CHL1    C9 7105   6.365   1.493   9.934 -0.1428 -0.0200 -0.3133
   63CHL1    H9 7106   6.469   1.527   9.915 -0.4361  1.9532  1.4287
   63CHL1   C10 7107   6.333   1.480  10.085 -0.0102 -0.3578 -0.3521
   63CHL1   C19 7108   6.193   1.421  10.116 -0.5587  0.4542 -0.3339
   63CHL1  H19A 7109   6.150   1.435  10.218  1.3740  0.0005  0.5700
   63CHL1  H19B 7110   6.125   1.462  10.039 -0.5695 -0.1524 -0.6464
   63CHL1  H19C 7111   6.194   1.311  10.101 -1.1091  0.4338 -0.2557
   63CHL1    C1 7112   6.450   1.408  10.155  0.9689 -0.1175  0.2386
   63CHL1   H1A 7113   6.455   1.304  10.116 -0.9873 -0.2725  0.3529
   63CHL1   H1B 7114   6.540   1.466  10.128  0.1930  0.8564 -0.2923
   63CHL1    C2 7115   6.435   1.407  10.309 -0.1093  0.2038 -0.4929
   63CHL1   H2A 7116   6.517   1.347  10.353 -0.5134 -0.6361 -0.8809
   63CHL1   H2B 7117   6.343   1.357  10.345 -0.5480  0.8216 -0.7359
   63CHL1   C20 7118   6.296   1.447   9.382  0.3665 -0.6823 -0.1329
   63CHL1   H20 7119   6.202   1.392   9.405  0.5970 -0.5215  1.2737
   63CHL1   C21 7120   6.410   1.342   9.368 -0.1834 -0.3652  0.0503
   63CHL1  H21A 7121   6.417   1.282   9.461 -0.6435 -1.2739 -0.4913
   63CHL1  H21B 7122   6.506   1.396   9.355  0.9966 -2.0345  1.6387
   63CHL1  H21C 7123   6.386   1.280   9.278  0.6790  1.3619 -1.3977
   63CHL1   C22 7124   6.292   1.519   9.246 -0.9270 -0.3833 -0.3181
   63CHL1  H22A 7125   6.262   1.626   9.253  1.1731  0.3473 -1.8183
   63CHL1  H22B 7126   6.394   1.519   9.201 -1.0495  1.3614 -0.6209
   63CHL1   C23 7127   6.199   1.456   9.143  0.8460  0.2686 -0.1303
   63CHL1  H23A 7128   6.225   1.349   9.132  0.0063  0.0741 -0.2563
   63CHL1  H23B 7129   6.096   1.466   9.184  2.1005  2.5106  2.6304
   63CHL1   C24 7130   6.194   1.520   9.005 -0.3198 -0.4797  0.5596
   63CHL1  H24A 7131   6.159   1.625   9.006  0.2734 -0.2804  1.2818
   63CHL1  H24B 7132   6.294   1.521   8.956 -0.1995 -1.9467  0.7573
   63CHL1   C25 7133   6.100   1.442   8.899 -0.3593 -0.2172  0.1943
   63CHL1   H25 7134   6.142   1.344   8.868 -0.2868 -0.8456  2.1885
   63CHL1   C26 7135   5.956   1.428   8.949 -0.2942  0.3757 -0.2721
   63CHL1  H26A 7136   5.950   1.384   9.051  1.8460  1.2869  0.2608
   63CHL1  H26B 7137   5.911   1.528   8.962  1.0730  0.5627  3.5040
   63CHL1  H26C 7138   5.893   1.364   8.882 -1.6236  0.8000  0.5481
   63CHL1   C27 7139   6.102   1.526   8.772 -0.3000  0.0529  0.5277
   63CHL1  H27A 7140   6.033   1.490   8.693  1.1487  0.3535 -0.8896
   63CHL1  H27B 7141   6.073   1.630   8.798  0.7400  0.9365 -1.6878
   63CHL1  H27C 7142   6.201   1.534   8.722  0.1213  2.3464  1.7004
   64CHL1    C3 7143   5.117   0.857  10.072  0.2573 -0.1481 -0.3911
   64CHL1    H3 7144   5.030   0.895  10.014  1.6947  1.5552 -1.4793
   64CHL1    O3 7145   5.107   0.896  10.206 -0.4853 -0.5695 -0.0703
   64CHL1   H3' 7146   5.176   0.961  10.220 -2.1905  0.9231  1.7559
   64CHL1    C4 7147   5.137   0.702  10.060  0.3897 -0.9009  0.2585
   64CHL1   H4A 7148   5.226   0.681  10.122  0.1104  0.1413  1.0276
   64CHL1   H4B 7149   5.045   0.652  10.099 -0.5096  0.3231 -0.2420
   64CHL1    C5 7150   5.155   0.662   9.916  0.0896 -1.1617  0.2197
   64CHL1    C6 7151   5.068   0.570   9.864 -0.0424  0.5115 -0.9361
   64CHL1    H6 7152   4.984   0.533   9.925  1.1213 -3.4279 -1.5871
   64CHL1    C7 7153   5.062   0.518   9.721 -0.1739  0.3402 -0.1655
   64CHL1   H7A 7154   5.064   0.407   9.724  3.7989  0.3667  0.4890
   64CHL1   H7B 7155   4.972   0.558   9.670 -0.4164  1.8743  1.4052
   64CHL1    C8 7156   5.182   0.566   9.640  0.5403 -0.3555  0.0673
   64CHL1    H8 7157   5.263   0.492   9.657  0.3530 -0.6799 -0.4644
   64CHL1   C14 7158   5.139   0.552   9.497  0.1621 -0.3307 -0.6379
   64CHL1   H14 7159   5.052   0.615   9.471  0.5704  0.4716 -0.0705
   64CHL1   C15 7160   5.097   0.412   9.453  0.1602  0.2761  0.4618
   64CHL1  H15A 7161   5.146   0.330   9.510 -0.0539  0.9652  1.6643
   64CHL1  H15B 7162   4.989   0.399   9.479  0.4947 -0.5537  1.4584
   64CHL1   C16 7163   5.119   0.414   9.301 -0.0118  0.7982  0.0906
   64CHL1  H16A 7164   5.188   0.333   9.270 -1.0135 -0.5557  1.3546
   64CHL1  H16B 7165   5.033   0.402   9.232  0.2183 -0.9931  0.1126
   64CHL1   C17 7166   5.183   0.555   9.268 -0.4031 -0.8046  0.2754
   64CHL1   H17 7167   5.102   0.629   9.253  0.1322 -0.2447  0.1009
   64CHL1   C13 7168   5.244   0.602   9.400 -0.3329  0.2833  0.1319
   64CHL1   C18 7169   5.375   0.519   9.425 -0.0859  0.1880  0.2614
   64CHL1  H18A 7170   5.413   0.538   9.528  0.6776 -0.2463  0.0613
   64CHL1  H18B 7171   5.358   0.410   9.411 -2.0058  0.7098 -1.7812
   64CHL1  H18C 7172   5.461   0.550   9.363 -0.0742 -0.1652  0.1054
   64CHL1   C12 7173   5.255   0.758   9.420  0.0573 -0.4071 -0.6879
   64CHL1  H12A 7174   5.327   0.803   9.348  1.6154 -0.2014  0.9714
   64CHL1  H12B 7175   5.157   0.798   9.388  1.6665  2.1943 -2.5661
   64CHL1   C11 7176   5.299   0.787   9.563 -0.4641  0.3906 -0.2708
   64CHL1  H11A 7177   5.403   0.750   9.576 -0.4431  1.4898  3.0279
   64CHL1  H11B 7178   5.297   0.898   9.560  2.3958  0.4900  0.2171
   64CHL1    C9 7179   5.211   0.718   9.674 -0.4865  0.7289  0.6096
   64CHL1    H9 7180   5.119   0.779   9.664  0.5272  2.1944  0.0760
   64CHL1   C10 7181   5.252   0.743   9.825 -0.0323  0.1931  1.0348
   64CHL1   C19 7182   5.396   0.690   9.840  0.4505 -0.0247  0.0886
   64CHL1  H19A 7183   5.473   0.755   9.794  1.7567 -1.7328 -0.2127
   64CHL1  H19B 7184   5.420   0.681   9.948  0.2046  1.2718  0.2599
   64CHL1  H19C 7185   5.402   0.591   9.788  1.6071 -1.3976  2.7330
   64CHL1    C1 7186   5.234   0.895   9.851 -0.4434 -0.2373  0.3132
   64CHL1   H1A 7187   5.315   0.961   9.814  0.4173 -0.7069  1.2954
   64CHL1   H1B 7188   5.141   0.938   9.810 -0.7341 -2.0114 -0.9484
   64CHL1    C2 7189   5.228   0.934   9.998  0.1461 -0.1922  0.8827
   64CHL1   H2A 7190   5.213   1.044   9.993 -2.8757 -0.6661 -1.4842
   64CHL1   H2B 7191   5.320   0.907  10.056  1.0007 -1.8583 -1.1792
   64CHL1   C20 7192   5.274   0.549   9.142  0.7844 -0.7345  0.1871
   64CHL1   H20 7193   5.357   0.476   9.154  2.3076  0.7860 -0.8990
   64CHL1   C21 7194   5.341   0.682   9.115 -0.4132  0.1854  0.3745
   64CHL1  H21A 7195   5.268   0.766   9.105 -0.6884  0.0519  1.2301
   64CHL1  H21B 7196   5.404   0.690   9.024  0.6811  0.1880  1.1278
   64CHL1  H21C 7197   5.412   0.697   9.199 -0.8751 -0.8777  0.9645
   64CHL1   C22 7198   5.186   0.509   9.017 -0.3823  0.3054  0.5130
   64CHL1  H22A 7199   5.103   0.436   9.031 -0.0409 -0.9372 -3.4141
   64CHL1  H22B 7200   5.146   0.606   8.982  2.3493  1.6069  0.8356
   64CHL1   C23 7201   5.267   0.456   8.900 -0.5302 -0.1064  0.4301
   64CHL1  H23A 7202   5.356   0.522   8.889  0.3906 -1.4080 -0.0931
   64CHL1  H23B 7203   5.311   0.357   8.924  1.8129  0.9668  0.7222
   64CHL1   C24 7204   5.180   0.460   8.775 -0.2961 -0.2534 -0.5297
   64CHL1  H24A 7205   5.079   0.420   8.796 -1.1818  1.4687 -1.4570
   64CHL1  H24B 7206   5.169   0.568   8.750  0.6545 -0.2228 -0.8255
   64CHL1   C25 7207   5.244   0.393   8.657 -0.0672  0.3062  0.8585
   64CHL1   H25 7208   5.355   0.393   8.665 -0.0171  2.3876  0.5311
   64CHL1   C26 7209   5.200   0.245   8.650 -0.1329  0.0303 -0.2295
   64CHL1  H26A 7210   5.095   0.242   8.686 -0.5351 -2.5626 -1.5078
   64CHL1  H26B 7211   5.217   0.197   8.551 -2.0651 -0.4126 -0.3750
   64CHL1  H26C 7212   5.251   0.188   8.731  0.8933  0.4421 -0.5750
   64CHL1   C27 7213   5.206   0.476   8.537 -0.4475 -0.0137 -0.2121
   64CHL1  H27A 7214   5.272   0.459   8.449 -0.8542  0.1137 -0.5485
   64CHL1  H27B 7215   5.107   0.442   8.497 -0.2693  0.6005 -1.2032
   64CHL1  H27C 7216   5.189   0.584   8.554  1.5012  0.0492  1.4099
   65CHL1    C3 7217   0.953   4.677  10.281  0.3708 -0.4593 -0.0407
   65CHL1    H3 7218   0.887   4.604  10.229 -0.0639  0.5768 -0.9716
   65CHL1    O3 7219   0.906   4.700  10.411  0.1568 -0.6249 -0.5987
   65CHL1   H3' 7220   0.969   4.769  10.432 -0.6599 -0.0962  0.1356
   65CHL1    C4 7221   1.095   4.621  10.279  0.6057 -0.4670  0.4882
   65CHL1   H4A 7222   1.165   4.694  10.325 -0.6633  0.0295  1.6309
   65CHL1   H4B 7223   1.095   4.530  10.343 -0.6491 -0.3322  0.6788
   65CHL1    C5 7224   1.137   4.582  10.135  0.7757  0.7321 -0.0455
   65CHL1    C6 7225   1.189   4.462  10.108 -0.1425  0.3158 -0.5578
   65CHL1    H6 7226   1.209   4.389  10.189 -0.0568 -0.2130 -1.0572
   65CHL1    C7 7227   1.222   4.419   9.970  0.6448 -0.2640  0.0847
   65CHL1   H7A 7228   1.311   4.353   9.976 -0.6357 -1.9505  1.1229
   65CHL1   H7B 7229   1.138   4.359   9.927 -1.1000  2.9449 -1.1564
   65CHL1    C8 7230   1.250   4.538   9.872  0.2634  0.8492 -0.2565
   65CHL1    H8 7231   1.333   4.604   9.901 -0.7459  1.8698  0.3457
   65CHL1   C14 7232   1.258   4.480   9.729 -0.2923  0.8119 -0.3067
   65CHL1   H14 7233   1.163   4.423   9.722  0.6956 -0.9965  0.6440
   65CHL1   C15 7234   1.363   4.375   9.690  0.2039 -0.9731 -0.8161
   65CHL1  H15A 7235   1.458   4.413   9.734 -0.3074 -0.4938 -0.1316
   65CHL1  H15B 7236   1.338   4.274   9.729  2.0064 -0.4358  1.9216
   65CHL1   C16 7237   1.371   4.369   9.539 -0.2647 -0.4588 -0.0676
   65CHL1  H16A 7238   1.475   4.393   9.506 -1.3287  2.7350 -1.3355
   65CHL1  H16B 7239   1.335   4.274   9.496  0.1249 -2.1662  3.1765
   65CHL1   C17 7240   1.282   4.485   9.488  0.0391 -0.2754 -0.1961
   65CHL1   H17 7241   1.188   4.429   9.474  0.7595 -1.1929 -1.4573
   65CHL1   C13 7242   1.270   4.584   9.611 -0.8716  0.4525  0.4094
   65CHL1   C18 7243   1.404   4.663   9.613 -0.0035  0.1049  0.0441
   65CHL1  H18A 7244   1.416   4.736   9.531  4.3003  1.3739  1.7156
   65CHL1  H18B 7245   1.422   4.723   9.705 -0.9269  1.7985 -0.8581
   65CHL1  H18C 7246   1.494   4.599   9.616 -1.0990 -1.5325 -0.9712
   65CHL1   C12 7247   1.150   4.680   9.624 -1.1316 -0.8286 -0.3582
   65CHL1  H12A 7248   1.153   4.768   9.556 -1.9060 -1.5556 -1.3425
   65CHL1  H12B 7249   1.055   4.626   9.606 -1.6964  0.5207 -1.5426
   65CHL1   C11 7250   1.138   4.738   9.767 -0.4725  1.1687 -0.1616
   65CHL1  H11A 7251   1.223   4.807   9.783 -0.2121  0.5902  1.0026
   65CHL1  H11B 7252   1.044   4.796   9.782 -2.5412 -2.0365 -0.2305
   65CHL1    C9 7253   1.130   4.630   9.886 -0.1182 -0.1769 -1.4217
   65CHL1    H9 7254   1.040   4.567   9.871  1.2249 -2.9550  1.5483
   65CHL1   C10 7255   1.121   4.693  10.030  0.2013 -0.3344 -0.0171
   65CHL1   C19 7256   1.227   4.796  10.054  0.0017 -1.3098 -0.3197
   65CHL1  H19A 7257   1.209   4.891  10.001 -0.2304 -0.9525  0.4028
   65CHL1  H19B 7258   1.228   4.821  10.162 -0.6947  0.0239 -0.6258
   65CHL1  H19C 7259   1.330   4.768  10.021 -0.0661 -1.4952 -0.3736
   65CHL1    C1 7260   0.984   4.770  10.045 -0.0129  0.1033  0.2918
   65CHL1   H1A 7261   0.981   4.863   9.985  0.6987  1.3447  2.1178
   65CHL1   H1B 7262   0.908   4.698  10.007  0.9087 -0.5843 -0.2655
   65CHL1    C2 7263   0.944   4.802  10.188 -0.4814  0.0272 -0.0837
   65CHL1   H2A 7264   0.841   4.843  10.189 -0.9719 -1.1786  0.3460
   65CHL1   H2B 7265   1.003   4.892  10.215  1.0808  0.1983 -3.8399
   65CHL1   C20 7266   1.336   4.536   9.357  1.1868 -0.5523 -0.3688
   65CHL1   H20 7267   1.434   4.586   9.374  0.8308  0.6268 -1.6845
   65CHL1   C21 7268   1.233   4.626   9.293 -0.5276  0.3205 -0.7564
   65CHL1  H21A 7269   1.268   4.653   9.192 -1.7580 -1.7321 -1.7721
   65CHL1  H21B 7270   1.206   4.720   9.345  0.0026 -0.4255  0.9364
   65CHL1  H21C 7271   1.137   4.571   9.281 -0.8743 -0.0630  3.1283
   65CHL1   C22 7272   1.359   4.415   9.254  0.1241 -0.5551 -0.8183
   65CHL1  H22A 7273   1.441   4.355   9.299  1.1699  0.2983 -1.5536
   65CHL1  H22B 7274   1.269   4.354   9.235 -0.4381  0.5124 -1.6324
   65CHL1   C23 7275   1.420   4.440   9.116 -0.2092  0.3852  0.7721
   65CHL1  H23A 7276   1.500   4.515   9.134 -1.4303  1.4582  1.8723
   65CHL1  H23B 7277   1.463   4.345   9.079 -1.0829  0.1185  0.4255
   65CHL1   C24 7278   1.313   4.472   9.005  0.0570  0.4057  0.6934
   65CHL1  H24A 7279   1.242   4.387   8.996 -0.0572  0.3934  1.6566
   65CHL1  H24B 7280   1.248   4.553   9.044 -2.0965 -0.8902 -0.0975
   65CHL1   C25 7281   1.373   4.492   8.863 -0.5571 -1.0006  0.1512
   65CHL1   H25 7282   1.292   4.514   8.790 -0.2664  0.6837  0.3081
   65CHL1   C26 7283   1.462   4.622   8.858 -0.0770  0.5462  0.0145
   65CHL1  H26A 7284   1.491   4.653   8.756  2.0132 -2.1225 -0.2670
   65CHL1  H26B 7285   1.407   4.706   8.906  1.1592 -0.2745  2.9682
   65CHL1  H26C 7286   1.554   4.606   8.919 -0.7030  0.5640  0.9616
   65CHL1   C27 7287   1.448   4.362   8.805  0.0556  0.1585  0.4350
   65CHL1  H27A 7288   1.502   4.388   8.712 -2.7113  2.3165 -0.6236
   65CHL1  H27B 7289   1.524   4.328   8.879  0.1698  0.7307  0.5826
   65CHL1  H27C 7290   1.372   4.284   8.780  0.0824  0.5966 -1.0695
   66CHL1    C3 7291   5.982   2.679  10.460  0.4621  0.3914 -0.4654
   66CHL1    H3 7292   6.076   2.737  10.442 -0.3117  2.0576  0.6702
   66CHL1    O3 7293   5.964   2.648  10.599 -0.5970 -0.0542  0.4381
   66CHL1   H3' 7294   5.976   2.554  10.613  0.4600 -0.0273 -0.2387
   66CHL1    C4 7295   5.863   2.755  10.420  0.8250 -0.0025 -0.2611
   66CHL1   H4A 7296   5.778   2.687  10.442  1.8685 -1.5481 -0.9810
   66CHL1   H4B 7297   5.858   2.857  10.465  0.7617  0.5276 -1.4393
   66CHL1    C5 7298   5.867   2.770  10.272  0.1923 -0.8769 -0.1450
   66CHL1    C6 7299   5.876   2.890  10.216 -0.5804  1.0365 -0.4355
   66CHL1    H6 7300   5.869   2.974  10.287  0.2219 -0.1191  1.0342
   66CHL1    C7 7301   5.892   2.918  10.064 -0.0719 -0.4597  0.2913
   66CHL1   H7A 7302   5.820   2.999  10.040  0.1948  0.2548  1.7995
   66CHL1   H7B 7303   5.988   2.963  10.032 -0.0470  0.4361  1.5977
   66CHL1    C8 7304   5.868   2.797   9.979 -0.7155 -0.2055 -0.4202
   66CHL1    H8 7305   5.762   2.769   9.993 -0.2409 -1.8807 -0.1244
   66CHL1   C14 7306   5.909   2.814   9.829  0.9509 -0.7163  0.2207
   66CHL1   H14 7307   6.020   2.820   9.834  1.0570 -0.2251 -2.1283
   66CHL1   C15 7308   5.882   2.948   9.751  0.2908  0.0565 -0.0282
   66CHL1  H15A 7309   5.773   2.969   9.763 -0.1119 -2.3484  0.7485
   66CHL1  H15B 7310   5.927   3.042   9.790  0.8716 -1.8964  4.3120
   66CHL1   C16 7311   5.903   2.916   9.608 -0.0300  0.1926  0.2107
   66CHL1  H16A 7312   5.811   2.928   9.548 -0.7449  2.0180  1.6313
   66CHL1  H16B 7313   5.990   2.969   9.562 -0.1528  0.9701  0.8647
   66CHL1   C17 7314   5.931   2.755   9.598  0.5180  0.8171  0.1406
   66CHL1   H17 7315   6.041   2.744   9.603  0.3927  0.2090  2.0207
   66CHL1   C13 7316   5.882   2.701   9.738 -0.4485 -0.0598 -0.7788
   66CHL1   C18 7317   5.727   2.677   9.735 -0.7460 -0.0678  0.1453
   66CHL1  H18A 7318   5.712   2.596   9.661  2.5826 -0.9647  0.3470
   66CHL1  H18B 7319   5.692   2.644   9.836  0.2076 -1.3347  0.0772
   66CHL1  H18C 7320   5.669   2.765   9.702 -0.9453 -0.1315  0.3200
   66CHL1   C12 7321   5.963   2.590   9.794 -0.0394 -0.1431  0.4188
   66CHL1  H12A 7322   5.948   2.496   9.737  2.4048 -0.1477 -0.3102
   66CHL1  H12B 7323   6.073   2.605   9.782 -0.1989  1.1643  0.4440
   66CHL1   C11 7324   5.911   2.557   9.942 -0.4685  0.0664  0.3948
   66CHL1  H11A 7325   5.810   2.514   9.924  0.2168 -0.6190 -1.9997
   66CHL1  H11B 7326   5.966   2.466   9.977  0.3666  0.8966  1.2859
   66CHL1    C9 7327   5.932   2.675  10.042 -0.1272 -0.3456 -0.1390
   66CHL1    H9 7328   6.041   2.697  10.047  0.3204 -2.4031 -0.3921
   66CHL1   C10 7329   5.883   2.648  10.188  0.4890 -0.4274 -0.1482
   66CHL1   C19 7330   5.743   2.582  10.191 -1.0290 -0.4670 -0.0008
   66CHL1  H19A 7331   5.719   2.544  10.292  2.2263 -0.8454  0.6688
   66CHL1  H19B 7332   5.660   2.645  10.150 -0.1990  0.1350 -0.7718
   66CHL1  H19C 7333   5.739   2.492  10.126  1.0120 -0.8920  0.4287
   66CHL1    C1 7334   5.992   2.550  10.242 -0.6500  0.5541 -0.3670
   66CHL1   H1A 7335   5.970   2.448  10.205  2.5141  0.1275 -1.2444
   66CHL1   H1B 7336   6.096   2.570  10.209  0.9784 -0.8273  3.6508
   66CHL1    C2 7337   6.006   2.541  10.394 -0.0143 -0.2211  0.2040
   66CHL1   H2A 7338   6.110   2.511  10.419  1.0126  1.3581 -1.9733
   66CHL1   H2B 7339   5.934   2.467  10.436 -0.5889 -0.9392 -1.9838
   66CHL1   C20 7340   5.880   2.697   9.462 -0.2544 -0.1170 -0.4953
   66CHL1   H20 7341   5.774   2.730   9.452 -0.2912  0.1531  0.7931
   66CHL1   C21 7342   5.896   2.548   9.457 -0.2770 -0.0684  0.3076
   66CHL1  H21A 7343   5.835   2.528   9.366 -0.1645  0.2129  0.1673
   66CHL1  H21B 7344   5.858   2.495   9.547 -0.2508 -0.4073  0.1191
   66CHL1  H21C 7345   6.000   2.513   9.437  0.1965  2.4781 -1.9340
   66CHL1   C22 7346   5.963   2.760   9.348  0.2655 -0.3652 -0.0314
   66CHL1  H22A 7347   5.953   2.870   9.356 -1.3130 -0.3478 -1.9165
   66CHL1  H22B 7348   6.070   2.734   9.368  0.0215 -0.4072  1.2625
   66CHL1   C23 7349   5.917   2.706   9.218  0.1171 -0.2020  0.1647
   66CHL1  H23A 7350   5.947   2.600   9.205 -1.3588 -0.8071  1.4330
   66CHL1  H23B 7351   5.806   2.713   9.226  0.2895  0.2304  2.7407
   66CHL1   C24 7352   5.967   2.791   9.093  0.0263  0.1347 -0.6131
   66CHL1  H24A 7353   5.950   2.901   9.104 -4.1887 -0.5008  0.2737
   66CHL1  H24B 7354   6.077   2.776   9.092  0.1150  0.7875 -1.4049
   66CHL1   C25 7355   5.899   2.752   8.970 -0.1693  0.1131 -0.0797
   66CHL1   H25 7356   5.945   2.801   8.881  2.1921 -1.2481  0.3459
   66CHL1   C26 7357   5.909   2.603   8.931 -0.0265  0.3429  0.3827
   66CHL1  H26A 7358   5.879   2.590   8.825  1.4092  2.0499 -0.2457
   66CHL1  H26B 7359   6.017   2.577   8.931 -0.2524 -0.8751  3.6258
   66CHL1  H26C 7360   5.839   2.544   8.995 -1.3719  0.0247 -1.3546
   66CHL1   C27 7361   5.747   2.789   8.954 -0.3968  0.3159  0.1823
   66CHL1  H27A 7362   5.723   2.896   8.966 -0.7042  0.4316 -1.4480
   66CHL1  H27B 7363   5.714   2.762   8.851  1.1391  0.2613 -0.3068
   66CHL1  H27C 7364   5.695   2.727   9.031 -1.3749 -0.5874 -1.1773
   67CHL1    C3 7365   3.612   3.628  10.278  0.4513  0.0777 -1.1949
   67CHL1    H3 7366   3.674   3.716  10.253  0.6124  0.6558  1.1350
   67CHL1    O3 7367   3.593   3.624  10.417 -0.4924  0.1501  0.0464
   67CHL1   H3' 7368   3.596   3.530  10.432  1.8030  0.2749  0.6697
   67CHL1    C4 7369   3.476   3.630  10.209 -0.6715  0.9541  0.0022
   67CHL1   H4A 7370   3.407   3.552  10.248  0.1268 -0.0158 -0.5137
   67CHL1   H4B 7371   3.432   3.729  10.235  0.2828  1.0902  1.1095
   67CHL1    C5 7372   3.486   3.625  10.051  0.3190  0.4195  0.0458
   67CHL1    C6 7373   3.433   3.721   9.971  0.0204  0.8120  0.1459
   67CHL1    H6 7374   3.376   3.808  10.006 -1.3272  0.1406 -0.3225
   67CHL1    C7 7375   3.438   3.715   9.818  0.5035 -0.6432 -0.1894
   67CHL1   H7A 7376   3.338   3.740   9.774  0.1161 -0.6441  0.6785
   67CHL1   H7B 7377   3.515   3.785   9.779 -0.4768  0.8271  0.4589
   67CHL1    C8 7378   3.490   3.582   9.768  0.5406 -0.0359  0.6452
   67CHL1    H8 7379   3.401   3.519   9.786 -0.1956  0.9444  0.5171
   67CHL1   C14 7380   3.535   3.593   9.624  0.1454  0.8015  0.7514
   67CHL1   H14 7381   3.633   3.646   9.628  0.2236  0.8135 -1.2632
   67CHL1   C15 7382   3.456   3.666   9.511 -0.1841  0.4171  0.4454
   67CHL1  H15A 7383   3.349   3.655   9.539 -0.9358  2.5392 -1.4947
   67CHL1  H15B 7384   3.472   3.776   9.512  0.4850  0.3404 -0.7224
   67CHL1   C16 7385   3.496   3.597   9.380  0.4801 -0.0142 -0.1973
   67CHL1  H16A 7386   3.409   3.545   9.335  1.0846 -0.6908 -0.5920
   67CHL1  H16B 7387   3.533   3.668   9.304 -1.5430  0.7080 -0.5413
   67CHL1   C17 7388   3.596   3.486   9.419 -0.0351  0.3745  0.3043
   67CHL1   H17 7389   3.697   3.533   9.425  0.2267 -0.3742  2.3070
   67CHL1   C13 7390   3.564   3.449   9.562 -0.4878  0.7639  0.6094
   67CHL1   C18 7391   3.450   3.352   9.558  0.2534  0.6627  0.4146
   67CHL1  H18A 7392   3.404   3.329   9.657  2.5252 -2.5204  0.8021
   67CHL1  H18B 7393   3.377   3.390   9.483 -2.0046 -1.6851  1.3776
   67CHL1  H18C 7394   3.488   3.254   9.523  0.1713  0.5260  0.7081
   67CHL1   C12 7395   3.684   3.388   9.641 -0.1066 -0.2008 -0.1487
   67CHL1  H12A 7396   3.696   3.290   9.590 -0.9149  0.1692 -1.0698
   67CHL1  H12B 7397   3.774   3.449   9.620  0.2697  0.2310  2.5750
   67CHL1   C11 7398   3.649   3.387   9.790  0.8730 -0.1353  0.6214
   67CHL1  H11A 7399   3.577   3.303   9.803  1.9934 -1.5282 -1.6988
   67CHL1  H11B 7400   3.740   3.347   9.839 -0.3243 -4.2359 -0.2702
   67CHL1    C9 7401   3.600   3.521   9.851  0.0156 -0.1179 -0.4925
   67CHL1    H9 7402   3.684   3.590   9.833  2.1093 -2.4627  0.0116
   67CHL1   C10 7403   3.576   3.512  10.000  0.8979  0.3378 -1.2203
   67CHL1   C19 7404   3.493   3.390  10.030 -0.2789 -0.1338  0.2525
   67CHL1  H19A 7405   3.426   3.364   9.946  0.4573 -0.6169 -0.1834
   67CHL1  H19B 7406   3.553   3.298  10.045 -0.5131 -0.1212  1.3742
   67CHL1  H19C 7407   3.426   3.395  10.119  1.2919  0.9678  1.4095
   67CHL1    C1 7408   3.706   3.506  10.074  0.0220 -0.0737 -0.4611
   67CHL1   H1A 7409   3.769   3.419  10.047  4.0817  2.5093  0.2488
   67CHL1   H1B 7410   3.772   3.593  10.055 -2.4148  1.2282 -3.4143
   67CHL1    C2 7411   3.688   3.506  10.228 -0.4735  0.0682 -0.2767
   67CHL1   H2A 7412   3.786   3.494  10.278 -0.4215 -2.2973 -0.8785
   67CHL1   H2B 7413   3.612   3.428  10.254  1.6393 -2.5301 -1.7051
   67CHL1   C20 7414   3.619   3.377   9.313 -0.8087  0.0120  1.0050
   67CHL1   H20 7415   3.534   3.306   9.306  0.1896 -0.9928 -1.6304
   67CHL1   C21 7416   3.747   3.291   9.336 -0.4649  0.8062  0.5447
   67CHL1  H21A 7417   3.723   3.214   9.413  0.4952  1.6665  1.7070
   67CHL1  H21B 7418   3.834   3.351   9.370 -0.2386  0.6092  0.3153
   67CHL1  H21C 7419   3.772   3.239   9.241 -1.0156  1.7041 -0.1077
   67CHL1   C22 7420   3.629   3.443   9.175  0.6103  0.3787  0.0638
   67CHL1  H22A 7421   3.550   3.517   9.150 -0.3705 -0.6982 -0.0365
   67CHL1  H22B 7422   3.722   3.504   9.172  1.2286 -0.4688  1.4278
   67CHL1   C23 7423   3.625   3.344   9.053  0.4967 -0.6762 -0.0476
   67CHL1  H23A 7424   3.726   3.298   9.049  1.2708  0.9587  0.1009
   67CHL1  H23B 7425   3.557   3.261   9.083  0.1201 -0.6844 -0.9265
   67CHL1   C24 7426   3.589   3.411   8.917 -0.2808 -0.0747  0.3113
   67CHL1  H24A 7427   3.489   3.458   8.921  0.2008  0.8919  1.1580
   67CHL1  H24B 7428   3.662   3.490   8.889 -0.9546  0.7124  0.7490
   67CHL1   C25 7429   3.584   3.312   8.808  0.5818 -0.3710  0.2984
   67CHL1   H25 7430   3.553   3.214   8.849 -0.6783  0.1019  0.5037
   67CHL1   C26 7431   3.482   3.358   8.697 -0.2027  0.1639 -0.1327
   67CHL1  H26A 7432   3.526   3.453   8.659 -0.2622  0.2592  0.0355
   67CHL1  H26B 7433   3.485   3.292   8.608 -0.3694  1.4313 -1.0963
   67CHL1  H26C 7434   3.378   3.377   8.730  0.4274  2.7480  0.4951
   67CHL1   C27 7435   3.723   3.286   8.742  0.2827  0.1059 -0.6357
   67CHL1  H27A 7436   3.762   3.370   8.681 -0.5203  0.0761 -1.1993
   67CHL1  H27B 7437   3.804   3.254   8.811  0.3962 -1.1653 -1.3383
   67CHL1  H27C 7438   3.709   3.204   8.669  1.8021  0.2131 -1.0574
   68CHL1    C3 7439   0.758   4.135  10.313  0.4146 -0.1754 -0.2287
   68CHL1    H3 7440   0.733   4.028  10.302 -1.8236 -0.0375  2.8172
   68CHL1    O3 7441   0.755   4.159  10.457  0.0504 -0.4121  0.0661
   68CHL1   H3' 7442   0.770   4.254  10.450  0.7322 -0.5090  0.2217
   68CHL1    C4 7443   0.899   4.164  10.258  0.1122 -0.1401  0.1116
   68CHL1   H4A 7444   0.922   4.269  10.286  2.1490 -0.1481 -1.3787
   68CHL1   H4B 7445   0.969   4.093  10.307  0.1924  2.3034  3.7918
   68CHL1    C5 7446   0.906   4.142  10.107 -0.0868 -0.0009  0.4154
   68CHL1    C6 7447   0.985   4.051  10.058 -0.5898  0.5402  0.4903
   68CHL1    H6 7448   1.043   3.997  10.134  0.3228  0.0648 -0.5317
   68CHL1    C7 7449   1.003   4.026   9.916  0.2674  0.1135 -0.6199
   68CHL1   H7A 7450   1.111   4.034   9.891  0.1622 -2.1485 -2.0155
   68CHL1   H7B 7451   0.954   3.929   9.891  0.5118  0.4139 -2.3848
   68CHL1    C8 7452   0.923   4.123   9.818  0.0499  0.2170 -1.0221
   68CHL1    H8 7453   0.981   4.218   9.828 -0.0105  0.0640  0.9874
   68CHL1   C14 7454   0.920   4.083   9.678 -0.0700  0.8899 -0.1229
   68CHL1   H14 7455   0.862   3.988   9.674  3.1599 -1.1457 -0.7513
   68CHL1   C15 7456   1.057   4.038   9.613 -0.0211  1.0571  0.1091
   68CHL1  H15A 7457   1.144   4.098   9.647  0.6361  0.3377 -0.2766
   68CHL1  H15B 7458   1.074   3.935   9.652 -0.6878  1.3468  1.1993
   68CHL1   C16 7459   1.016   4.048   9.466  0.4199  0.4179 -0.1205
   68CHL1  H16A 7460   1.088   4.104   9.402 -1.3597  1.3092 -1.3709
   68CHL1  H16B 7461   1.008   3.942   9.434 -0.5706  0.1037  1.1209
   68CHL1   C17 7462   0.872   4.108   9.453  0.5235  0.0653 -0.3132
   68CHL1   H17 7463   0.800   4.024   9.459  0.7866 -0.0290  2.3103
   68CHL1   C13 7464   0.848   4.186   9.588  0.0566  0.3880  0.2357
   68CHL1   C18 7465   0.937   4.314   9.589 -0.3836 -0.0763  0.0237
   68CHL1  H18A 7466   1.031   4.299   9.532 -0.7912 -1.4993 -0.3092
   68CHL1  H18B 7467   0.877   4.383   9.526 -2.1344  0.2137  1.9421
   68CHL1  H18C 7468   0.959   4.359   9.688  1.8710  0.2239 -0.5978
   68CHL1   C12 7469   0.703   4.219   9.637  0.0697 -0.2641 -0.3318
   68CHL1  H12A 7470   0.644   4.289   9.574 -1.0089  3.0830  4.1670
   68CHL1  H12B 7471   0.659   4.118   9.636 -1.6757  0.4814  0.1485
   68CHL1   C11 7472   0.704   4.258   9.787  0.6205 -0.4720  0.2256
   68CHL1  H11A 7473   0.747   4.361   9.785  0.7762 -0.5255  0.6841
   68CHL1  H11B 7474   0.598   4.262   9.820  0.0565 -0.1769 -1.5544
   68CHL1    C9 7475   0.781   4.159   9.878 -0.5815  0.1402 -0.3211
   68CHL1    H9 7476   0.737   4.057   9.882  0.5267 -0.3041  0.6126
   68CHL1   C10 7477   0.796   4.214  10.026 -0.9090  0.5066  0.1691
   68CHL1   C19 7478   0.833   4.367  10.032  0.0861  0.4406  0.5403
   68CHL1  H19A 7479   0.810   4.405  10.134 -1.6299 -1.6882  0.9890
   68CHL1  H19B 7480   0.941   4.380  10.010  0.4765  0.8199  2.5355
   68CHL1  H19C 7481   0.779   4.438   9.965 -0.1584  1.0899  1.4121
   68CHL1    C1 7482   0.659   4.187  10.091 -0.3628  0.4628 -0.7081
   68CHL1   H1A 7483   0.579   4.239  10.034 -1.5739 -0.8530 -0.2211
   68CHL1   H1B 7484   0.641   4.078  10.082  0.2284  0.1418  1.5821
   68CHL1    C2 7485   0.650   4.211  10.249  0.1237 -0.3171  0.3958
   68CHL1   H2A 7486   0.552   4.168  10.282 -1.8016  1.7208 -2.4729
   68CHL1   H2B 7487   0.650   4.318  10.279  0.0117 -0.1228 -0.2972
   68CHL1   C20 7488   0.847   4.179   9.318  0.4537 -0.1964  0.5453
   68CHL1   H20 7489   0.895   4.280   9.319  0.5159 -0.2199  0.1712
   68CHL1   C21 7490   0.698   4.195   9.293  0.1437 -0.1747 -0.4384
   68CHL1  H21A 7491   0.673   4.276   9.220  0.5054 -0.7815 -1.2344
   68CHL1  H21B 7492   0.634   4.216   9.381 -0.8246 -0.2018 -1.1271
   68CHL1  H21C 7493   0.660   4.098   9.254 -0.1829 -0.1719 -0.1247
   68CHL1   C22 7494   0.908   4.100   9.193 -0.2947 -0.1998  0.2042
   68CHL1  H22A 7495   1.018   4.114   9.202 -0.5846  1.4612  1.2916
   68CHL1  H22B 7496   0.879   3.994   9.214 -4.2331  1.0600  1.5651
   68CHL1   C23 7497   0.873   4.152   9.055 -0.2412 -0.5390  0.4385
   68CHL1  H23A 7498   0.916   4.085   8.976  1.4684  3.2404 -1.9768
   68CHL1  H23B 7499   0.763   4.153   9.038 -0.3267 -0.6340  0.9902
   68CHL1   C24 7500   0.937   4.284   9.021  0.3035 -0.1793 -0.6881
   68CHL1  H24A 7501   0.900   4.358   9.096  0.3184 -0.2161 -0.6446
   68CHL1  H24B 7502   1.046   4.274   9.039  0.4146 -1.0992 -1.8777
   68CHL1   C25 7503   0.915   4.342   8.884 -0.9304 -0.2018  0.3579
   68CHL1   H25 7504   0.804   4.344   8.870 -1.1319  1.9689  1.9682
   68CHL1   C26 7505   0.955   4.492   8.883  0.3063  0.4089 -0.2207
   68CHL1  H26A 7506   1.064   4.502   8.860  0.8007  1.9300  2.4645
   68CHL1  H26B 7507   0.905   4.558   8.809 -1.6179  0.2807  0.9424
   68CHL1  H26C 7508   0.938   4.547   8.978 -0.0912 -1.3117  0.7281
   68CHL1   C27 7509   0.984   4.268   8.770 -0.4404 -0.6769 -0.4232
   68CHL1  H27A 7510   1.093   4.291   8.763  0.8609 -5.9498  0.7102
   68CHL1  H27B 7511   0.980   4.157   8.770  1.1781 -0.7794  2.0375
   68CHL1  H27C 7512   0.925   4.293   8.679 -0.6291  0.6460  0.0516
   69CHL1    C3 7513   6.801   2.131   6.841 -0.0297  0.0523  0.2472
   69CHL1    H3 7514   6.693   2.142   6.863  0.5473  1.9200  2.2939
   69CHL1    O3 7515   6.815   2.110   6.701  0.5864 -0.6045 -0.4267
   69CHL1   H3' 7516   6.907   2.132   6.686 -0.0630  0.7986 -2.6498
   69CHL1    C4 7517   6.884   2.255   6.879 -0.1801 -0.0357  0.4879
   69CHL1   H4A 7518   6.989   2.248   6.842 -0.4282  1.5700 -0.5663
   69CHL1   H4B 7519   6.839   2.335   6.817  0.4420 -0.6318 -0.7495
   69CHL1    C5 7520   6.894   2.282   7.031 -0.0966  0.6230  0.2403
   69CHL1    C6 7521   6.864   2.404   7.075  0.1695  0.2180 -0.6110
   69CHL1    H6 7522   6.840   2.484   7.004 -1.4030  1.1452  0.9145
   69CHL1    C7 7523   6.867   2.434   7.221  0.0045  0.8593  0.2879
   69CHL1   H7A 7524   6.903   2.538   7.236 -1.9968  1.5463  0.4644
   69CHL1   H7B 7525   6.762   2.437   7.255 -0.9826  0.2882 -2.6199
   69CHL1    C8 7526   6.943   2.329   7.313  0.3106 -0.4677 -0.9533
   69CHL1    H8 7527   7.048   2.346   7.282 -0.3387  2.5608 -1.6576
   69CHL1   C14 7528   6.915   2.352   7.462  0.3208  0.2106 -0.3091
   69CHL1   H14 7529   6.805   2.353   7.476  0.2041 -2.4777 -0.6254
   69CHL1   C15 7530   6.968   2.484   7.515 -0.0792 -0.1672  0.0923
   69CHL1  H15A 7531   7.066   2.511   7.471  0.0292  1.2327  1.1499
   69CHL1  H15B 7532   6.893   2.559   7.481  0.7777  1.4130  1.6118
   69CHL1   C16 7533   6.969   2.463   7.674  0.4227  0.4253  0.3919
   69CHL1  H16A 7534   7.070   2.478   7.718  0.4093 -0.1993  0.6314
   69CHL1  H16B 7535   6.896   2.528   7.727 -1.0288  0.1368 -1.1902
   69CHL1   C17 7536   6.927   2.311   7.691 -0.2834 -0.4284 -0.3875
   69CHL1   H17 7537   6.817   2.306   7.690 -0.2518 -1.0811 -1.2610
   69CHL1   C13 7538   6.967   2.245   7.554 -0.6301 -0.4634 -0.0099
   69CHL1   C18 7539   7.120   2.245   7.538 -0.3717  0.2219 -0.1197
   69CHL1  H18A 7540   7.161   2.323   7.607 -0.4236 -1.1971  1.5482
   69CHL1  H18B 7541   7.167   2.150   7.571 -1.3625 -0.5327 -0.8638
   69CHL1  H18C 7542   7.164   2.254   7.436 -0.2300 -0.5593 -0.1275
   69CHL1   C12 7543   6.911   2.111   7.511  0.6757 -0.7523 -0.0164
   69CHL1  H12A 7544   6.938   2.037   7.589 -0.9899  0.3362  1.6351
   69CHL1  H12B 7545   6.802   2.124   7.527  0.6132  0.6176 -1.4624
   69CHL1   C11 7546   6.938   2.075   7.364 -0.1818 -0.0030 -0.2382
   69CHL1  H11A 7547   7.046   2.050   7.356 -0.2460 -0.2195 -0.4433
   69CHL1  H11B 7548   6.878   1.984   7.342  1.2957 -1.2035  0.5923
   69CHL1    C9 7549   6.898   2.190   7.263  0.3128  0.2321 -0.2411
   69CHL1    H9 7550   6.787   2.194   7.271  0.1706 -1.5028 -1.1974
   69CHL1   C10 7551   6.924   2.157   7.118  0.4107 -0.3741 -0.2081
   69CHL1   C19 7552   7.080   2.129   7.104  0.0693 -0.6545  0.0268
   69CHL1  H19A 7553   7.125   2.051   7.169  2.8364 -1.1017 -2.3588
   69CHL1  H19B 7554   7.103   2.091   7.003  0.5413 -1.6383  0.5011
   69CHL1  H19C 7555   7.136   2.225   7.111 -1.5162  0.2358  0.9647
   69CHL1    C1 7556   6.844   2.036   7.067  0.1914 -0.1710 -0.4239
   69CHL1   H1A 7557   6.877   1.950   7.129 -1.1290 -0.9828 -0.8309
   69CHL1   H1B 7558   6.736   2.058   7.083 -0.1691 -0.8465 -1.8258
   69CHL1    C2 7559   6.851   2.005   6.920  0.0392  0.3239  0.5513
   69CHL1   H2A 7560   6.798   1.912   6.891 -3.0765  2.9773 -2.8273
   69CHL1   H2B 7561   6.953   2.006   6.875 -0.6767  1.9623 -1.1164
   69CHL1   C20 7562   6.989   2.258   7.828 -0.1021 -0.0714 -0.2227
   69CHL1   H20 7563   7.100   2.260   7.827 -0.0629 -1.7506 -1.9448
   69CHL1   C21 7564   6.941   2.114   7.843 -0.1284  0.9854 -0.4805
   69CHL1  H21A 7565   6.834   2.122   7.816  0.2445  2.1823 -1.7105
   69CHL1  H21B 7566   6.951   2.074   7.946  0.0980 -2.4321 -1.7743
   69CHL1  H21C 7567   6.991   2.031   7.789 -1.0714 -0.5263  0.9530
   69CHL1   C22 7568   6.949   2.351   7.948 -0.9192  0.1823 -0.4603
   69CHL1  H22A 7569   7.004   2.444   7.922 -1.5167  0.7109  0.1180
   69CHL1  H22B 7570   6.843   2.381   7.935 -0.1044  2.4217 -2.3053
   69CHL1   C23 7571   6.999   2.303   8.090 -0.1964  0.4844 -0.1224
   69CHL1  H23A 7572   6.937   2.215   8.117 -0.2336  0.8089  0.8902
   69CHL1  H23B 7573   7.102   2.266   8.074 -0.5990 -0.3604 -0.8153
   69CHL1   C24 7574   6.993   2.407   8.202 -0.3715 -0.4533 -0.6876
   69CHL1  H24A 7575   7.025   2.507   8.166  0.9939 -0.6716 -0.1195
   69CHL1  H24B 7576   6.885   2.410   8.230 -0.2566 -0.1783 -0.2639
   69CHL1   C25 7577   7.077   2.389   8.332  1.1702  1.0032  0.0399
   69CHL1   H25 7578   7.048   2.288   8.369  1.3765  1.1307  0.5612
   69CHL1   C26 7579   7.231   2.396   8.326 -0.0019  0.0286  0.5443
   69CHL1  H26A 7580   7.259   2.314   8.256  0.9549  1.5902 -0.9280
   69CHL1  H26B 7581   7.261   2.491   8.277 -3.9363  0.8715 -0.3704
   69CHL1  H26C 7582   7.290   2.378   8.418 -2.6657 -1.1941  2.0806
   69CHL1   C27 7583   7.030   2.496   8.438 -0.2215  0.1539  0.0063
   69CHL1  H27A 7584   7.078   2.473   8.535  2.0785  0.9853 -0.9024
   69CHL1  H27B 7585   7.058   2.595   8.397 -0.1060  0.6628  1.2860
   69CHL1  H27C 7586   6.920   2.506   8.442 -0.2762 -0.5747  0.4331
   70CHL1    C3 7587   5.752   6.490   7.145 -0.0650  0.5630  0.1908
   70CHL1    H3 7588   5.833   6.565   7.131  2.3788 -1.8471  0.7257
   70CHL1    O3 7589   5.718   6.429   7.027 -0.3041 -0.5258 -0.0304
   70CHL1   H3' 7590   5.779   6.355   7.018  1.2704  0.4044  2.3889
   70CHL1    C4 7591   5.790   6.375   7.243 -0.0850  0.5867  0.4201
   70CHL1   H4A 7592   5.714   6.294   7.238  1.5109 -0.7951 -2.7089
   70CHL1   H4B 7593   5.886   6.336   7.202  0.4544  1.6790  0.6305
   70CHL1    C5 7594   5.820   6.407   7.391  1.1196 -0.1402 -0.5720
   70CHL1    C6 7595   5.932   6.366   7.448  0.1530  0.2104  0.2983
   70CHL1    H6 7596   6.009   6.305   7.399 -0.4319  0.2630 -0.6966
   70CHL1    C7 7597   5.953   6.418   7.591 -0.5751  0.4317  0.1628
   70CHL1   H7A 7598   6.006   6.346   7.658  2.4322  0.5379 -2.0176
   70CHL1   H7B 7599   6.025   6.502   7.579 -1.8423  1.6643  1.0742
   70CHL1    C8 7600   5.838   6.475   7.666  0.3891 -0.2879 -0.4317
   70CHL1    H8 7601   5.776   6.390   7.698 -0.6382  1.1050  1.3762
   70CHL1   C14 7602   5.889   6.560   7.789 -0.0137  0.1502  0.8116
   70CHL1   H14 7603   5.954   6.641   7.750 -1.1390  1.2240  1.1704
   70CHL1   C15 7604   5.977   6.492   7.897  0.8003 -0.1354 -0.3696
   70CHL1  H15A 7605   5.940   6.387   7.904  3.4545 -1.2143 -1.9190
   70CHL1  H15B 7606   6.085   6.492   7.874  0.7864  2.0582 -0.4618
   70CHL1   C16 7607   5.957   6.580   8.020 -0.0824 -0.3792 -0.2714
   70CHL1  H16A 7608   5.925   6.516   8.105  0.5550  0.4728  0.6196
   70CHL1  H16B 7609   6.046   6.630   8.065 -0.9184  2.1979 -1.4259
   70CHL1   C17 7610   5.856   6.692   7.981  0.4937 -0.2609  0.1396
   70CHL1   H17 7611   5.917   6.773   7.935 -0.0653  1.0087  1.5940
   70CHL1   C13 7612   5.784   6.631   7.862 -0.4160 -0.3462  0.2687
   70CHL1   C18 7613   5.674   6.525   7.905  0.6610  0.0737  0.4453
   70CHL1  H18A 7614   5.608   6.567   7.984  0.7165  0.6804  0.1732
   70CHL1  H18B 7615   5.612   6.482   7.824  1.4920  2.1092 -1.3402
   70CHL1  H18C 7616   5.727   6.436   7.946  1.2269 -0.4721 -1.4298
   70CHL1   C12 7617   5.711   6.734   7.770 -0.5321 -0.8400 -0.4434
   70CHL1  H12A 7618   5.623   6.780   7.821  0.3845 -0.2376  0.6151
   70CHL1  H12B 7619   5.787   6.807   7.734  1.3969 -1.7460  1.7300
   70CHL1   C11 7620   5.657   6.666   7.645 -0.0699 -0.5325 -0.3606
   70CHL1  H11A 7621   5.569   6.606   7.677  0.6874 -1.9105 -0.8227
   70CHL1  H11B 7622   5.625   6.753   7.583 -2.1840 -0.1841  1.1581
   70CHL1    C9 7623   5.761   6.578   7.574 -0.2887 -0.4549 -0.8142
   70CHL1    H9 7624   5.837   6.650   7.535 -0.6105 -0.0551 -0.7054
   70CHL1   C10 7625   5.716   6.503   7.444 -0.3896  0.3886 -0.2179
   70CHL1   C19 7626   5.598   6.411   7.486 -0.5898  0.0577 -0.4148
   70CHL1  H19A 7627   5.515   6.466   7.535 -1.7201 -0.5879 -1.5584
   70CHL1  H19B 7628   5.556   6.363   7.394  0.2905 -2.3964  0.4133
   70CHL1  H19C 7629   5.626   6.328   7.554 -2.0377  0.4596  0.6952
   70CHL1    C1 7630   5.673   6.615   7.342 -0.0383  0.0219  0.3593
   70CHL1   H1A 7631   5.589   6.674   7.384  0.5600  2.1119 -1.2817
   70CHL1   H1B 7632   5.755   6.691   7.336  0.1420 -0.3846 -3.6207
   70CHL1    C2 7633   5.631   6.565   7.203  0.7739  0.1391  0.1601
   70CHL1   H2A 7634   5.603   6.642   7.128 -2.1799  0.3980  1.4805
   70CHL1   H2B 7635   5.555   6.484   7.205  1.3232 -0.3723  0.3770
   70CHL1   C20 7636   5.773   6.759   8.091 -0.0397  0.1800  0.8365
   70CHL1   H20 7637   5.675   6.785   8.046  0.7619 -0.7965 -1.5494
   70CHL1   C21 7638   5.840   6.895   8.126 -0.0522  0.9033  0.0931
   70CHL1  H21A 7639   5.839   6.963   8.038  3.7684 -0.4637 -1.1035
   70CHL1  H21B 7640   5.946   6.876   8.153 -0.1106 -0.2266 -0.4636
   70CHL1  H21C 7641   5.793   6.948   8.212 -0.7953  0.8349 -0.2714
   70CHL1   C22 7642   5.742   6.681   8.218 -0.6657 -0.0549  0.7535
   70CHL1  H22A 7643   5.691   6.589   8.183 -0.8063  0.9613 -1.8356
   70CHL1  H22B 7644   5.836   6.658   8.272 -0.4613  0.9037  0.8104
   70CHL1   C23 7645   5.639   6.740   8.319 -0.2554 -0.3381 -0.0777
   70CHL1  H23A 7646   5.680   6.832   8.365  1.1526 -1.1126  0.2329
   70CHL1  H23B 7647   5.544   6.771   8.269  0.2466  1.8176  0.2662
   70CHL1   C24 7648   5.613   6.643   8.439  0.2032  0.3510 -0.5298
   70CHL1  H24A 7649   5.593   6.543   8.396  2.0179  0.9634 -2.8945
   70CHL1  H24B 7650   5.704   6.638   8.502 -0.2924 -0.8382  0.1128
   70CHL1   C25 7651   5.487   6.686   8.524 -0.1979  0.0146  0.3487
   70CHL1   H25 7652   5.475   6.603   8.597  0.5905  0.5335  1.0889
   70CHL1   C26 7653   5.497   6.819   8.604  0.2261  0.2153  0.2296
   70CHL1  H26A 7654   5.563   6.800   8.691  0.0091  1.5455  0.6977
   70CHL1  H26B 7655   5.517   6.912   8.547 -3.4907  0.0429 -1.5080
   70CHL1  H26C 7656   5.394   6.827   8.645 -0.1030 -0.1168 -0.5141
   70CHL1   C27 7657   5.362   6.680   8.430 -0.3057  0.8627  0.2564
   70CHL1  H27A 7658   5.376   6.622   8.336 -0.3430 -1.4286  1.6470
   70CHL1  H27B 7659   5.273   6.634   8.477 -0.4177  0.3944 -0.4082
   70CHL1  H27C 7660   5.341   6.785   8.399  0.8408  0.8632 -0.5622
   71CHL1    C3 7661   5.766   2.043   6.856  0.0301 -0.3066  0.0664
   71CHL1    H3 7662   5.675   1.985   6.883 -0.4050  0.2724 -0.1536
   71CHL1    O3 7663   5.743   2.123   6.739  0.3030 -0.1196 -0.1209
   71CHL1   H3' 7664   5.830   2.121   6.697 -0.0870 -1.0111 -0.8914
   71CHL1    C4 7665   5.783   2.137   6.969 -0.5384 -0.4704 -0.4226
   71CHL1   H4A 7666   5.871   2.202   6.953 -0.8459 -0.2019 -1.0689
   71CHL1   H4B 7667   5.692   2.200   6.975  0.6590  1.2157  0.4144
   71CHL1    C5 7668   5.813   2.062   7.100 -0.0340 -0.4590 -0.5046
   71CHL1    C6 7669   5.736   2.076   7.209 -0.4710 -0.0793  0.1387
   71CHL1    H6 7670   5.651   2.145   7.216 -1.5055 -1.5744  2.9934
   71CHL1    C7 7671   5.761   2.009   7.337  0.5511  0.0364 -1.2831
   71CHL1   H7A 7672   5.759   2.091   7.412 -0.3253  0.2646 -1.5378
   71CHL1   H7B 7673   5.684   1.931   7.353  1.5354 -1.0459 -1.7723
   71CHL1    C8 7674   5.897   1.938   7.348 -0.1089 -0.3208  0.0470
   71CHL1    H8 7675   5.976   2.015   7.361  0.5830 -1.0159 -0.0277
   71CHL1   C14 7676   5.914   1.852   7.473  0.0410  0.3151  0.6258
   71CHL1   H14 7677   5.836   1.773   7.473 -1.6164  1.8979 -2.1329
   71CHL1   C15 7678   5.893   1.921   7.612 -0.0986  0.8201 -0.2673
   71CHL1  H15A 7679   5.950   2.016   7.618  2.2737 -0.4777 -1.3018
   71CHL1  H15B 7680   5.786   1.941   7.633 -0.5336 -0.4348 -1.1850
   71CHL1   C16 7681   5.953   1.815   7.707 -0.6388  0.1468 -0.2098
   71CHL1  H16A 7682   6.027   1.872   7.768  0.8907 -1.5211 -0.4586
   71CHL1  H16B 7683   5.879   1.773   7.779 -0.6132  0.3685 -0.0505
   71CHL1   C17 7684   6.030   1.711   7.620 -0.3261  0.6981 -0.5284
   71CHL1   H17 7685   5.959   1.626   7.609  0.5512 -0.0815 -0.2248
   71CHL1   C13 7686   6.042   1.782   7.486 -0.3469  0.1602 -0.1802
   71CHL1   C18 7687   6.157   1.882   7.508 -0.3570  0.5854  1.1378
   71CHL1  H18A 7688   6.156   1.931   7.607 -2.6750  1.3851  0.7673
   71CHL1  H18B 7689   6.258   1.837   7.507  0.5133  2.5035  1.0978
   71CHL1  H18C 7690   6.164   1.960   7.428  0.6661 -0.4178  0.2380
   71CHL1   C12 7691   6.064   1.693   7.359 -0.2309 -0.3099  0.3903
   71CHL1  H12A 7692   6.164   1.643   7.360  0.8380  1.6970 -1.4715
   71CHL1  H12B 7693   5.978   1.624   7.349  0.1327 -0.8897  1.2148
   71CHL1   C11 7694   6.064   1.778   7.226  0.1918 -0.2915 -0.4878
   71CHL1  H11A 7695   6.154   1.844   7.236 -2.2839  3.3229 -1.0014
   71CHL1  H11B 7696   6.085   1.708   7.142  0.3731 -1.0733  0.2052
   71CHL1    C9 7697   5.931   1.870   7.217 -0.0316 -0.1936  0.9926
   71CHL1    H9 7698   5.847   1.796   7.212  2.3923 -3.1132  1.6773
   71CHL1   C10 7699   5.928   1.965   7.098 -0.0294 -1.2493 -0.0350
   71CHL1   C19 7700   6.059   2.039   7.086 -0.2835 -0.7033  0.1179
   71CHL1  H19A 7701   6.058   2.108   7.000  2.2722 -1.3180 -0.4395
   71CHL1  H19B 7702   6.074   2.101   7.177 -2.7239  0.1192  0.0081
   71CHL1  H19C 7703   6.146   1.970   7.084  0.7418  0.6149 -2.4577
   71CHL1    C1 7704   5.899   1.879   6.977 -0.4811  0.0796  0.3428
   71CHL1   H1A 7705   5.980   1.806   6.958  0.1451  0.9517 -0.3217
   71CHL1   H1B 7706   5.819   1.803   6.992 -0.1346 -0.3829 -0.1527
   71CHL1    C2 7707   5.884   1.949   6.841  0.0288 -0.4563  0.0930
   71CHL1   H2A 7708   5.875   1.873   6.760 -4.2738  0.0303  0.0043
   71CHL1   H2B 7709   5.968   2.019   6.822 -1.4704  1.9245  1.9584
   71CHL1   C20 7710   6.154   1.649   7.698  0.3488 -0.5981  0.3868
   71CHL1   H20 7711   6.220   1.735   7.723  0.6346  0.0691 -2.5598
   71CHL1   C21 7712   6.239   1.547   7.622  0.4651 -0.1515  0.3912
   71CHL1  H21A 7713   6.264   1.590   7.523  0.6923 -3.4037 -1.0420
   71CHL1  H21B 7714   6.185   1.451   7.612 -3.2965  2.0363 -1.1481
   71CHL1  H21C 7715   6.336   1.523   7.670  0.2713 -2.1928 -0.2029
   71CHL1   C22 7716   6.106   1.572   7.837  0.1328  0.7453  0.4369
   71CHL1  H22A 7717   6.041   1.639   7.897  0.0103  2.0140 -1.0940
   71CHL1  H22B 7718   6.051   1.481   7.804  3.0063 -1.2161  0.9039
   71CHL1   C23 7719   6.228   1.517   7.922 -0.7041 -0.3637  0.4134
   71CHL1  H23A 7720   6.303   1.457   7.867 -0.8390  1.1798 -1.5219
   71CHL1  H23B 7721   6.286   1.608   7.947  1.6948 -1.7132 -0.1380
   71CHL1   C24 7722   6.189   1.461   8.057 -0.1274 -0.2339  0.6125
   71CHL1  H24A 7723   6.140   1.539   8.119 -1.3868 -0.0754 -0.5604
   71CHL1  H24B 7724   6.120   1.378   8.029  0.2707 -1.0296  1.9545
   71CHL1   C25 7725   6.297   1.402   8.152  0.1776  0.7604  0.2778
   71CHL1   H25 7726   6.336   1.308   8.107  0.1575  0.4089  0.9933
   71CHL1   C26 7727   6.410   1.501   8.170 -0.5778  0.4219 -0.2164
   71CHL1  H26A 7728   6.445   1.538   8.072 -0.5210  4.2976  1.1732
   71CHL1  H26B 7729   6.395   1.589   8.236  2.5400  0.6646  0.2460
   71CHL1  H26C 7730   6.494   1.457   8.230 -1.1907 -0.3444  0.0866
   71CHL1   C27 7731   6.241   1.371   8.292 -0.0336  0.3029  0.1359
   71CHL1  H27A 7732   6.159   1.295   8.285  0.0123  0.3610 -1.0731
   71CHL1  H27B 7733   6.319   1.326   8.356  0.4775  1.2132  0.1456
   71CHL1  H27C 7734   6.199   1.464   8.337  1.4948  0.9589  0.2129
   72CHL1    C3 7735   5.965   0.087   7.178  0.2793  0.6716  0.2383
   72CHL1    H3 7736   5.867   0.050   7.217  0.6249 -1.2983 -0.6856
   72CHL1    O3 7737   5.939   0.116   7.041 -0.0060 -1.0426 -0.1214
   72CHL1   H3' 7738   5.979   0.201   7.022 -0.3238 -1.1522 -1.2953
   72CHL1    C4 7739   5.986   0.216   7.261  0.0195  0.3918 -0.2748
   72CHL1   H4A 7740   6.056   0.285   7.210 -0.3606  0.6412 -0.4610
   72CHL1   H4B 7741   5.882   0.254   7.264 -0.4519 -0.9801  1.7478
   72CHL1    C5 7742   6.025   0.180   7.407 -0.3574  0.1094  0.5599
   72CHL1    C6 7743   5.965   0.242   7.512  0.4648 -0.7225  0.6231
   72CHL1    H6 7744   5.883   0.312   7.493 -0.5853 -1.7197  1.4043
   72CHL1    C7 7745   6.011   0.217   7.656 -0.0913 -0.6725  0.3571
   72CHL1   H7A 7746   6.021   0.313   7.712 -0.3552 -0.9610  0.9054
   72CHL1   H7B 7747   5.944   0.145   7.707 -1.8776  0.8683  0.2233
   72CHL1    C8 7748   6.154   0.147   7.661  0.7581  0.2998 -0.1516
   72CHL1    H8 7749   6.219   0.232   7.631 -0.3200  0.6031 -1.6980
   72CHL1   C14 7750   6.191   0.099   7.798  0.0980  0.1341  0.6497
   72CHL1   H14 7751   6.121   0.016   7.821 -0.7931  1.2344  1.9664
   72CHL1   C15 7752   6.167   0.188   7.917 -0.2983  0.0350  0.4983
   72CHL1  H15A 7753   6.221   0.283   7.899  0.5065 -0.2943  1.1406
   72CHL1  H15B 7754   6.062   0.204   7.952  0.1697  2.6315  0.8094
   72CHL1   C16 7755   6.245   0.119   8.032 -0.5895  0.0604  0.2869
   72CHL1  H16A 7756   6.307   0.192   8.088  0.0115 -0.1430 -0.1150
   72CHL1  H16B 7757   6.179   0.071   8.107  2.2088 -0.7000  2.3485
   72CHL1   C17 7758   6.340   0.005   7.969 -0.3129  0.7421  0.2844
   72CHL1   H17 7759   6.281  -0.088   7.977 -1.3673  0.8221 -4.6923
   72CHL1   C13 7760   6.327   0.030   7.811  0.1089  0.8671 -0.8441
   72CHL1   C18 7761   6.435   0.137   7.775 -0.4647 -1.0087 -0.5433
   72CHL1  H18A 7762   6.429   0.225   7.842 -0.2723 -1.9008  0.6727
   72CHL1  H18B 7763   6.538   0.097   7.782  0.9450  2.7737  1.5942
   72CHL1  H18C 7764   6.418   0.162   7.668 -0.3794  2.0040  0.1276
   72CHL1   C12 7765   6.318  -0.091   7.719 -0.0495  0.1864  0.1132
   72CHL1  H12A 7766   6.407  -0.158   7.714  0.1459  0.4629 -0.1578
   72CHL1  H12B 7767   6.237  -0.159   7.751 -0.5773  1.1631  0.8692
   72CHL1   C11 7768   6.300  -0.049   7.573 -0.0070  0.1716 -1.0769
   72CHL1  H11A 7769   6.394   0.002   7.542  0.2291 -1.2123 -2.6860
   72CHL1  H11B 7770   6.283  -0.139   7.510 -1.5742  0.4636 -1.1111
   72CHL1    C9 7771   6.172   0.037   7.556  0.7178 -0.5047 -1.1781
   72CHL1    H9 7772   6.089  -0.032   7.584 -0.4217 -0.1788 -3.6386
   72CHL1   C10 7773   6.134   0.070   7.413 -0.4498 -0.8561 -0.0588
   72CHL1   C19 7774   6.261   0.136   7.349 -0.1043 -0.4470  0.1628
   72CHL1  H19A 7775   6.295   0.215   7.419 -0.1984 -0.4023  0.1583
   72CHL1  H19B 7776   6.341   0.061   7.332  0.9012  0.7918 -0.6783
   72CHL1  H19C 7777   6.241   0.192   7.254  0.3283 -3.2081 -1.6130
   72CHL1    C1 7778   6.105  -0.055   7.329  0.1188 -0.1156  0.1302
   72CHL1   H1A 7779   6.206  -0.102   7.323 -1.0776 -2.8233  0.6514
   72CHL1   H1B 7780   6.034  -0.118   7.387 -0.3028 -0.6712 -0.9786
   72CHL1    C2 7781   6.073  -0.024   7.183  1.0737  0.4245  0.6087
   72CHL1   H2A 7782   6.036  -0.116   7.132  1.2059 -0.4281  2.0106
   72CHL1   H2B 7783   6.170   0.011   7.143  0.5945  0.3974 -0.5725
   72CHL1   C20 7784   6.471  -0.006   8.030 -0.1742 -0.3714 -0.8735
   72CHL1   H20 7785   6.531   0.088   8.033  0.2780 -0.6691 -0.4546
   72CHL1   C21 7786   6.556  -0.110   7.957 -0.1050 -0.5061  0.3787
   72CHL1  H21A 7787   6.654  -0.108   8.008 -0.7448  1.7671  1.5381
   72CHL1  H21B 7788   6.575  -0.085   7.850  0.7915 -0.6687  0.4992
   72CHL1  H21C 7789   6.506  -0.209   7.963 -1.1157  0.0143  0.6160
   72CHL1   C22 7790   6.463  -0.039   8.179  0.2269 -0.3732  0.1620
   72CHL1  H22A 7791   6.400   0.042   8.221  0.1140 -0.4145  0.0725
   72CHL1  H22B 7792   6.392  -0.125   8.185 -0.9765  0.6722  1.2973
   72CHL1   C23 7793   6.595  -0.046   8.264 -0.0982 -0.2343  0.5884
   72CHL1  H23A 7794   6.649  -0.132   8.219  0.3310  0.4670 -0.2424
   72CHL1  H23B 7795   6.643   0.051   8.238 -0.0548  0.1057  1.8747
   72CHL1   C24 7796   6.564  -0.062   8.414  0.4478  0.2889  0.1164
   72CHL1  H24A 7797   6.654  -0.030   8.470  0.2534 -0.4785  0.8767
   72CHL1  H24B 7798   6.485   0.012   8.439  2.4562  2.0731  1.3647
   72CHL1   C25 7799   6.509  -0.202   8.455 -0.7886 -1.2102  0.0463
   72CHL1   H25 7800   6.416  -0.220   8.398 -0.6470 -1.9119  0.0363
   72CHL1   C26 7801   6.601  -0.317   8.418 -0.7053  0.0239  0.6028
   72CHL1  H26A 7802   6.701  -0.303   8.465 -0.3090  0.7764 -0.4329
   72CHL1  H26B 7803   6.566  -0.418   8.448 -0.7045  0.6994  2.9616
   72CHL1  H26C 7804   6.615  -0.319   8.308  0.1944 -0.4243  0.7190
   72CHL1   C27 7805   6.471  -0.204   8.608 -0.4798 -0.1336  1.0044
   72CHL1  H27A 7806   6.450  -0.308   8.643  1.7248 -0.3874  1.6478
   72CHL1  H27B 7807   6.563  -0.180   8.665 -0.1580  0.9662  0.0460
   72CHL1  H27C 7808   6.388  -0.132   8.624 -0.7727  0.3613 -2.3267
   73CHL1    C3 7809   5.955   2.668   6.963 -0.4932  0.3036  0.2564
   73CHL1    H3 7810   5.934   2.771   6.997 -1.2355  0.0343  0.6053
   73CHL1    O3 7811   5.949   2.661   6.827 -0.7440  0.0532  0.3916
   73CHL1   H3' 7812   6.015   2.601   6.792  3.0776  4.3859 -0.2403
   73CHL1    C4 7813   6.102   2.636   7.019  0.0629 -0.0598  0.9952
   73CHL1   H4A 7814   6.133   2.535   6.986 -2.4526 -1.2939  2.2652
   73CHL1   H4B 7815   6.182   2.700   6.977 -2.7166  0.8993 -3.0552
   73CHL1    C5 7816   6.098   2.621   7.171 -0.1094 -0.6495  0.9844
   73CHL1    C6 7817   6.179   2.703   7.240 -0.1553  0.4830 -0.3367
   73CHL1    H6 7818   6.257   2.754   7.182  0.0782 -1.8466 -2.1224
   73CHL1    C7 7819   6.185   2.705   7.392 -0.4021  0.3293 -0.2896
   73CHL1   H7A 7820   6.289   2.708   7.430  0.4479  2.7260 -2.5706
   73CHL1   H7B 7821   6.140   2.798   7.434 -1.2086 -1.7033  3.5493
   73CHL1    C8 7822   6.114   2.577   7.446 -0.1109 -0.2738  0.1047
   73CHL1    H8 7823   6.169   2.485   7.417 -0.0603  0.5006 -2.3200
   73CHL1   C14 7824   6.084   2.598   7.597 -0.2228  0.5135 -0.3712
   73CHL1   H14 7825   6.023   2.690   7.599  0.3277  0.9461 -2.0757
   73CHL1   C15 7826   6.215   2.624   7.683 -0.5085 -0.0682  0.5276
   73CHL1  H15A 7827   6.306   2.566   7.660 -0.2852  0.1642  0.8227
   73CHL1  H15B 7828   6.243   2.732   7.684  2.5243 -0.8116  3.0824
   73CHL1   C16 7829   6.170   2.576   7.822 -0.0570  0.0352 -0.4122
   73CHL1  H16A 7830   6.226   2.489   7.862  0.6982  0.2555 -0.9957
   73CHL1  H16B 7831   6.182   2.666   7.886 -0.5683  0.1289 -0.4423
   73CHL1   C17 7832   6.019   2.536   7.816 -0.7151  0.4373  0.0537
   73CHL1   H17 7833   5.962   2.631   7.827 -1.4019  0.1522 -1.0130
   73CHL1   C13 7834   6.006   2.490   7.670  0.4027 -0.0174 -0.2142
   73CHL1   C18 7835   6.083   2.353   7.655 -0.0190  0.0203  0.4284
   73CHL1  H18A 7836   6.038   2.278   7.723  0.7630 -0.6340  0.2308
   73CHL1  H18B 7837   6.075   2.319   7.550 -3.1312  0.8462  0.3525
   73CHL1  H18C 7838   6.192   2.361   7.678  0.0393 -0.7234  0.4378
   73CHL1   C12 7839   5.865   2.479   7.604  0.4019  0.1532  0.2282
   73CHL1  H12A 7840   5.804   2.398   7.650  1.5679 -1.2077 -0.5768
   73CHL1  H12B 7841   5.812   2.576   7.602 -1.2313 -0.6812  1.7930
   73CHL1   C11 7842   5.879   2.454   7.447  0.0384 -0.4421  0.1945
   73CHL1  H11A 7843   5.922   2.352   7.432  0.6394 -0.0819 -0.5445
   73CHL1  H11B 7844   5.776   2.454   7.405  0.4389 -1.0632 -0.8284
   73CHL1    C9 7845   5.974   2.560   7.379 -0.2904 -0.2888  0.5784
   73CHL1    H9 7846   5.928   2.661   7.391  1.3088  0.5498 -0.2346
   73CHL1   C10 7847   5.989   2.537   7.227  0.4037 -1.0939  0.0140
   73CHL1   C19 7848   6.034   2.390   7.191 -0.2985 -0.1494  0.8591
   73CHL1  H19A 7849   5.952   2.325   7.230 -0.1804  1.0074  3.1613
   73CHL1  H19B 7850   6.043   2.364   7.084  0.0737  1.2799  0.5388
   73CHL1  H19C 7851   6.127   2.357   7.242 -0.2023 -0.0833  0.7245
   73CHL1    C1 7852   5.849   2.581   7.168  0.4514  0.9724  0.2481
   73CHL1   H1A 7853   5.768   2.515   7.206 -0.0108  0.8128 -0.9984
   73CHL1   H1B 7854   5.826   2.687   7.192  2.0880  0.9876  1.9065
   73CHL1    C2 7855   5.847   2.574   7.014 -0.2735  0.2172  0.0703
   73CHL1   H2A 7856   5.747   2.613   6.985 -0.3913  0.0565  0.2633
   73CHL1   H2B 7857   5.863   2.470   6.977  0.2279  0.1137  0.5657
   73CHL1   C20 7858   5.988   2.449   7.936  0.2115  0.4459  0.3796
   73CHL1   H20 7859   6.041   2.351   7.933  0.8472  0.8206 -0.9188
   73CHL1   C21 7860   5.836   2.416   7.942  0.1646 -0.0034  0.3299
   73CHL1  H21A 7861   5.780   2.512   7.948  0.7060  0.5071 -2.2510
   73CHL1  H21B 7862   5.816   2.345   8.025  1.8610 -1.4450 -0.4779
   73CHL1  H21C 7863   5.794   2.359   7.856 -1.8279  0.6434  0.8475
   73CHL1   C22 7864   6.021   2.517   8.066 -0.2419  0.0499 -0.4145
   73CHL1  H22A 7865   6.132   2.518   8.064 -0.1540 -1.1569  2.0934
   73CHL1  H22B 7866   5.985   2.622   8.071  2.5034  1.0745 -1.1463
   73CHL1   C23 7867   5.999   2.437   8.190 -0.7933  0.2654  0.3218
   73CHL1  H23A 7868   5.894   2.402   8.202 -0.5625 -0.0558  1.4659
   73CHL1  H23B 7869   6.056   2.345   8.166 -2.2131 -1.3776  2.9659
   73CHL1   C24 7870   6.031   2.522   8.316  0.2468 -0.1576 -0.2543
   73CHL1  H24A 7871   6.139   2.547   8.312  0.1197  0.2854 -0.9843
   73CHL1  H24B 7872   5.970   2.615   8.330  1.2123  0.6409 -1.3173
   73CHL1   C25 7873   6.003   2.439   8.443  0.2107 -0.0744  0.0608
   73CHL1   H25 7874   5.898   2.403   8.445 -1.1513  3.6685  0.8622
   73CHL1   C26 7875   6.095   2.315   8.449  0.3430  0.1687  0.1805
   73CHL1  H26A 7876   6.071   2.250   8.363 -0.0531 -1.4641  1.4914
   73CHL1  H26B 7877   6.202   2.344   8.446  0.5007 -0.4432 -0.1817
   73CHL1  H26C 7878   6.061   2.275   8.548 -0.0621 -0.7939 -0.3405
   73CHL1   C27 7879   6.021   2.532   8.563  0.3629  0.4910  0.4353
   73CHL1  H27A 7880   6.129   2.553   8.580  0.6417  0.5690 -1.3468
   73CHL1  H27B 7881   5.964   2.627   8.554  0.7696  0.8708  1.6801
   73CHL1  H27C 7882   5.982   2.486   8.657 -0.1623 -0.4514 -0.2399
   74CHL1    C3 7883   5.522   1.685   6.908  0.0458 -0.2237 -0.4881
   74CHL1    H3 7884   5.625   1.714   6.878  0.0515  1.3564  0.9811
   74CHL1    O3 7885   5.438   1.691   6.795  0.4123  0.4877  0.2348
   74CHL1   H3' 7886   5.347   1.682   6.824  0.1750  3.0338  0.3848
   74CHL1    C4 7887   5.526   1.538   6.953  0.4583 -0.2190  0.0880
   74CHL1   H4A 7888   5.426   1.489   6.948  1.1503 -1.6078 -0.5317
   74CHL1   H4B 7889   5.587   1.492   6.873  3.0300 -0.7313  2.2473
   74CHL1    C5 7890   5.592   1.520   7.091  0.0116 -0.0829  0.8563
   74CHL1    C6 7891   5.693   1.430   7.107 -0.4476 -0.7723 -0.0073
   74CHL1    H6 7892   5.737   1.367   7.029  0.3541 -1.9746  1.3733
   74CHL1    C7 7893   5.750   1.412   7.243  0.0944 -0.1734  0.2399
   74CHL1   H7A 7894   5.785   1.307   7.249 -1.4897 -0.7652 -0.6527
   74CHL1   H7B 7895   5.842   1.474   7.255  1.2867 -1.8102 -0.2372
   74CHL1    C8 7896   5.660   1.447   7.363  0.1219 -0.3579 -0.6522
   74CHL1    H8 7897   5.571   1.381   7.365  0.6567 -1.0734  0.6141
   74CHL1   C14 7898   5.728   1.439   7.499 -0.5753 -0.5609 -1.0077
   74CHL1   H14 7899   5.802   1.521   7.510 -0.7443 -0.5819  0.3886
   74CHL1   C15 7900   5.792   1.308   7.546  0.5166 -0.0505  0.7470
   74CHL1  H15A 7901   5.750   1.226   7.484 -1.5579  0.7918  0.9937
   74CHL1  H15B 7902   5.900   1.311   7.521  0.4429 -3.1183 -0.0566
   74CHL1   C16 7903   5.776   1.300   7.698 -0.4218  0.2308  0.7384
   74CHL1  H16A 7904   5.722   1.209   7.731  0.9717 -0.7714  0.3364
   74CHL1  H16B 7905   5.875   1.295   7.748  0.7005  1.0125 -1.3371
   74CHL1   C17 7906   5.713   1.434   7.741 -0.0280  0.1370 -0.1687
   74CHL1   H17 7907   5.791   1.514   7.742 -0.1918  0.2976  2.7054
   74CHL1   C13 7908   5.632   1.472   7.616  0.1105  0.4674 -0.6786
   74CHL1   C18 7909   5.504   1.386   7.622 -0.6837  0.3992  0.1826
   74CHL1  H18A 7910   5.522   1.282   7.655 -1.3331 -0.2860 -1.5520
   74CHL1  H18B 7911   5.442   1.437   7.699 -0.7132  0.3374  0.2004
   74CHL1  H18C 7912   5.449   1.390   7.525  2.3202 -1.6307 -1.6918
   74CHL1   C12 7913   5.582   1.619   7.600  0.1167  0.0248  0.3465
   74CHL1  H12A 7914   5.502   1.641   7.674  1.0624 -0.2603  1.4751
   74CHL1  H12B 7915   5.670   1.685   7.614  0.3014 -0.5372  1.9244
   74CHL1   C11 7916   5.514   1.635   7.464  0.3654 -0.3741  0.2191
   74CHL1  H11A 7917   5.416   1.585   7.477  0.0852  0.2912  0.7158
   74CHL1  H11B 7918   5.478   1.740   7.457  0.0677 -0.5160 -0.4256
   74CHL1    C9 7919   5.602   1.588   7.340 -0.1587 -0.0799 -0.1423
   74CHL1    H9 7920   5.692   1.654   7.342 -1.6169  1.9125  1.0794
   74CHL1   C10 7921   5.528   1.600   7.200 -0.8188 -0.2369 -0.3525
   74CHL1   C19 7922   5.385   1.538   7.214 -0.6719  0.3974 -0.0156
   74CHL1  H19A 7923   5.328   1.545   7.119  1.7919 -1.4813 -1.6831
   74CHL1  H19B 7924   5.392   1.430   7.238  3.0421 -0.4842 -4.3709
   74CHL1  H19C 7925   5.320   1.592   7.287 -1.4564  1.0839 -1.2102
   74CHL1    C1 7926   5.531   1.753   7.154  0.4369  0.0395 -0.2529
   74CHL1   H1A 7927   5.469   1.799   7.233 -0.4264 -0.4228 -0.6544
   74CHL1   H1B 7928   5.633   1.798   7.153  0.4567  0.0185 -2.4319
   74CHL1    C2 7929   5.472   1.783   7.017  0.0960  0.2649 -0.0892
   74CHL1   H2A 7930   5.487   1.889   6.987  0.2615  0.5740  1.0536
   74CHL1   H2B 7931   5.364   1.756   7.027  0.1897  0.2158  0.8724
   74CHL1   C20 7932   5.646   1.434   7.889 -0.4260  0.9023  0.6564
   74CHL1   H20 7933   5.558   1.366   7.887 -0.5388  1.0785 -0.8085
   74CHL1   C21 7934   5.606   1.573   7.927 -0.3009 -0.3692  0.6004
   74CHL1  H21A 7935   5.695   1.639   7.930  0.6212 -1.5749  0.3068
   74CHL1  H21B 7936   5.561   1.586   8.028 -0.7891 -1.1014  0.4814
   74CHL1  H21C 7937   5.520   1.616   7.871 -0.3889 -0.1037  0.9360
   74CHL1   C22 7938   5.753   1.378   7.992 -0.1993 -0.4738 -0.1310
   74CHL1  H22A 7939   5.770   1.272   7.965 -1.0185 -1.0765  1.6480
   74CHL1  H22B 7940   5.854   1.424   7.983 -0.2942 -0.4251 -0.9579
   74CHL1   C23 7941   5.707   1.376   8.135 -0.3678 -0.3128 -0.7087
   74CHL1  H23A 7942   5.704   1.482   8.171  1.7670 -0.2684 -0.6089
   74CHL1  H23B 7943   5.608   1.327   8.140 -1.0361  1.1288  0.7177
   74CHL1   C24 7944   5.800   1.292   8.224 -0.0557 -0.1351  0.7341
   74CHL1  H24A 7945   5.808   1.186   8.192  3.0573 -0.1556  1.4112
   74CHL1  H24B 7946   5.899   1.340   8.210 -1.1336  1.2935 -2.2900
   74CHL1   C25 7947   5.773   1.323   8.376  0.7465  0.0661 -0.0518
   74CHL1   H25 7948   5.778   1.434   8.381  0.5107  0.1634 -1.6665
   74CHL1   C26 7949   5.640   1.262   8.438 -0.5591  0.1339  0.0100
   74CHL1  H26A 7950   5.654   1.152   8.446  1.3574  0.3874  0.4025
   74CHL1  H26B 7951   5.610   1.298   8.538 -1.6950 -0.5433 -0.0816
   74CHL1  H26C 7952   5.550   1.274   8.373 -1.2704  1.8388  1.2576
   74CHL1   C27 7953   5.885   1.283   8.468 -0.5251 -0.1308  0.1915
   74CHL1  H27A 7954   5.982   1.300   8.416 -0.2287  2.4729  1.4862
   74CHL1  H27B 7955   5.909   1.355   8.549 -1.4986 -0.7298  1.0195
   74CHL1  H27C 7956   5.880   1.179   8.506 -1.4088 -0.9946 -2.2179
   75CHL1    C3 7957   1.217   3.061   6.723  0.8828  0.4862  0.2528
   75CHL1    H3 7958   1.267   2.964   6.743 -1.2158 -0.6464  0.1810
   75CHL1    O3 7959   1.147   3.050   6.596  0.0442 -0.4357 -0.1979
   75CHL1   H3' 7960   1.199   2.983   6.552  0.3072  1.0865 -2.2425
   75CHL1    C4 7961   1.110   3.092   6.820  0.2485  0.0817 -0.3718
   75CHL1   H4A 7962   1.060   3.187   6.792 -1.3283 -0.9728 -1.2274
   75CHL1   H4B 7963   1.031   3.015   6.819 -0.0754  0.4169 -2.9749
   75CHL1    C5 7964   1.173   3.115   6.963  0.1614  0.8888  0.5151
   75CHL1    C6 7965   1.150   3.026   7.063 -0.5086  0.2823 -0.0191
   75CHL1    H6 7966   1.097   2.932   7.045 -0.8384  1.1906 -4.3266
   75CHL1    C7 7967   1.207   3.048   7.203 -0.3823 -0.1783 -1.2196
   75CHL1   H7A 7968   1.135   3.010   7.278 -0.9128 -1.5871 -2.4227
   75CHL1   H7B 7969   1.303   2.992   7.206  0.1973  0.7666 -1.8531
   75CHL1    C8 7970   1.245   3.199   7.232 -0.5535  0.3028 -0.2615
   75CHL1    H8 7971   1.150   3.254   7.246 -1.6027 -1.7836  1.1134
   75CHL1   C14 7972   1.329   3.218   7.361  0.2193  0.1307 -0.0664
   75CHL1   H14 7973   1.420   3.156   7.342 -1.1306 -1.4097 -1.7195
   75CHL1   C15 7974   1.266   3.160   7.496 -0.2344  0.2162 -0.3341
   75CHL1  H15A 7975   1.161   3.195   7.492 -0.7430 -1.2526 -0.1358
   75CHL1  H15B 7976   1.284   3.050   7.500  0.0907  0.2000 -1.8728
   75CHL1   C16 7977   1.353   3.231   7.605  0.3563  0.6918  0.0607
   75CHL1  H16A 7978   1.286   3.283   7.677 -1.0929 -2.7071  1.2804
   75CHL1  H16B 7979   1.420   3.158   7.656 -0.0337 -2.0815 -3.1623
   75CHL1   C17 7980   1.446   3.335   7.529 -0.0667 -0.5802  0.1755
   75CHL1   H17 7981   1.543   3.284   7.514  0.4770 -0.5174  3.1197
   75CHL1   C13 7982   1.378   3.351   7.388 -0.3930 -0.3427 -0.1504
   75CHL1   C18 7983   1.257   3.442   7.405  0.1840 -0.5382  0.9514
   75CHL1  H18A 7984   1.179   3.438   7.327  3.8112 -1.1190 -2.8251
   75CHL1  H18B 7985   1.218   3.417   7.506 -0.8632  1.1048  0.9550
   75CHL1  H18C 7986   1.298   3.544   7.419 -1.4884  0.7042 -2.7237
   75CHL1   C12 7987   1.476   3.391   7.270  0.8433  0.7685  0.1422
   75CHL1  H12A 7988   1.509   3.494   7.295  1.3570 -0.1009  3.1532
   75CHL1  H12B 7989   1.572   3.336   7.271 -0.3996 -1.4647  0.3705
   75CHL1   C11 7990   1.398   3.394   7.139 -0.1468  0.0367 -0.6154
   75CHL1  H11A 7991   1.327   3.479   7.149 -1.0275 -0.7980  0.3801
   75CHL1  H11B 7992   1.469   3.419   7.058  1.9459 -1.5613  0.6883
   75CHL1    C9 7993   1.326   3.253   7.110 -0.2070 -0.2586  0.8319
   75CHL1    H9 7994   1.414   3.186   7.118 -0.7466 -0.9304  1.1275
   75CHL1   C10 7995   1.263   3.238   6.972 -0.8075  0.1739 -0.3220
   75CHL1   C19 7996   1.193   3.367   6.949  0.2973 -0.5720 -0.4683
   75CHL1  H19A 7997   1.145   3.403   7.042  2.8041 -1.9602  1.4009
   75CHL1  H19B 7998   1.259   3.449   6.913 -0.1646 -0.2154 -0.5124
   75CHL1  H19C 7999   1.116   3.363   6.868 -1.0430 -1.0780  0.8065
   75CHL1    C1 8000   1.369   3.214   6.858 -0.3659 -0.0062 -0.4985
   75CHL1   H1A 8001   1.414   3.313   6.833 -2.0594  0.6430 -1.0758
   75CHL1   H1B 8002   1.461   3.168   6.899  1.8266  1.6605 -3.3082
   75CHL1    C2 8003   1.320   3.172   6.717 -0.0009 -0.3167 -0.1341
   75CHL1   H2A 8004   1.407   3.137   6.658  0.1335  0.1600 -0.2254
   75CHL1   H2B 8005   1.276   3.264   6.673 -1.7344 -1.4317 -0.7569
   75CHL1   C20 8006   1.473   3.464   7.613  0.5514 -0.2099  0.3510
   75CHL1   H20 8007   1.383   3.522   7.643  1.9128  0.9273  2.3212
   75CHL1   C21 8008   1.570   3.565   7.539 -0.0262  0.3487  0.4936
   75CHL1  H21A 8009   1.667   3.512   7.531 -0.8939 -1.1883 -0.0398
   75CHL1  H21B 8010   1.593   3.655   7.599 -0.7130 -0.2594  1.7041
   75CHL1  H21C 8011   1.550   3.603   7.437  1.1586  0.7448  0.4092
   75CHL1   C22 8012   1.534   3.412   7.747 -0.3352  0.0182  0.5413
   75CHL1  H22A 8013   1.464   3.351   7.808  2.0585 -2.8516  0.5430
   75CHL1  H22B 8014   1.619   3.347   7.718 -1.3234 -1.6194  1.2163
   75CHL1   C23 8015   1.590   3.516   7.836  0.1463 -0.0478  0.3911
   75CHL1  H23A 8016   1.667   3.456   7.890 -0.8475 -0.6335  1.1712
   75CHL1  H23B 8017   1.652   3.596   7.790 -0.5303 -1.2014 -2.6043
   75CHL1   C24 8018   1.498   3.551   7.945 -0.2683 -1.3721  0.6004
   75CHL1  H24A 8019   1.422   3.613   7.894  2.1129  1.2266  0.0657
   75CHL1  H24B 8020   1.447   3.464   7.992 -1.8963 -2.4914 -3.0548
   75CHL1   C25 8021   1.559   3.635   8.062 -0.3677  0.4716  0.2552
   75CHL1   H25 8022   1.591   3.732   8.019 -0.0319  1.5834  2.9129
   75CHL1   C26 8023   1.459   3.679   8.169  0.2649 -0.3466  0.3112
   75CHL1  H26A 8024   1.420   3.586   8.216 -0.5181 -1.6964 -2.8166
   75CHL1  H26B 8025   1.511   3.752   8.233  2.0482 -0.5651 -0.8614
   75CHL1  H26C 8026   1.376   3.734   8.119  0.1741 -0.5959  0.1842
   75CHL1   C27 8027   1.674   3.579   8.138 -0.3005  0.0989  0.0824
   75CHL1  H27A 8028   1.662   3.479   8.185  0.7777  0.1792  0.5537
   75CHL1  H27B 8029   1.768   3.576   8.078 -1.1468 -0.2625 -1.2413
   75CHL1  H27C 8030   1.696   3.653   8.218 -0.3964 -1.5644  1.6629
   76CHL1    C3 8031   5.078   5.565   7.282  0.2187  0.0467  0.1599
   76CHL1    H3 8032   5.018   5.658   7.281  0.9686  0.5325  0.4061
   76CHL1    O3 8033   5.065   5.507   7.155 -0.8800 -0.0272 -0.0302
   76CHL1   H3' 8034   5.121   5.429   7.154 -2.2049 -1.0147 -1.0729
   76CHL1    C4 8035   5.227   5.577   7.308  0.2256 -0.0155  0.1748
   76CHL1   H4A 8036   5.271   5.477   7.287 -3.1497 -1.4111 -0.4722
   76CHL1   H4B 8037   5.267   5.649   7.234 -0.6782  0.2468 -0.0634
   76CHL1    C5 8038   5.245   5.619   7.453 -0.3605 -0.4535  0.4878
   76CHL1    C6 8039   5.307   5.734   7.478 -0.4488 -0.6982 -0.0052
   76CHL1    H6 8040   5.343   5.791   7.391 -2.6525  0.0018 -0.4748
   76CHL1    C7 8041   5.332   5.791   7.615  1.2776  0.3735  0.2732
   76CHL1   H7A 8042   5.434   5.834   7.623  0.1297  2.6311  4.5736
   76CHL1   H7B 8043   5.255   5.871   7.620  0.7729  0.1532 -2.8092
   76CHL1    C8 8044   5.323   5.674   7.717  0.1709 -0.2656 -0.1187
   76CHL1    H8 8045   5.418   5.617   7.716 -0.4213 -1.2803 -2.9522
   76CHL1   C14 8046   5.304   5.731   7.863 -0.2138 -0.3238 -0.1116
   76CHL1   H14 8047   5.208   5.787   7.856  0.3322  0.4685 -1.3541
   76CHL1   C15 8048   5.397   5.849   7.913 -0.2009 -0.0560 -0.2337
   76CHL1  H15A 8049   5.505   5.829   7.898  0.5075  2.1549  1.7521
   76CHL1  H15B 8050   5.361   5.939   7.858  1.9067  1.4237  0.7424
   76CHL1   C16 8051   5.346   5.863   8.058 -0.8947  0.3046 -0.5179
   76CHL1  H16A 8052   5.422   5.883   8.136 -1.0557  0.7759 -0.4844
   76CHL1  H16B 8053   5.283   5.953   8.068  0.5720  1.0903  1.8755
   76CHL1   C17 8054   5.271   5.729   8.089 -0.1467 -1.0200 -0.3686
   76CHL1   H17 8055   5.163   5.753   8.082  0.5219  2.9375  1.2337
   76CHL1   C13 8056   5.297   5.631   7.976 -0.1605  0.1865 -0.4939
   76CHL1   C18 8057   5.438   5.572   7.993  0.3086  0.3150  0.3907
   76CHL1  H18A 8058   5.506   5.628   8.062  0.4374 -0.0063  0.5287
   76CHL1  H18B 8059   5.437   5.466   8.028 -0.2314  1.2458  3.3891
   76CHL1  H18C 8060   5.496   5.570   7.898  0.6953  0.9156  0.6083
   76CHL1   C12 8061   5.186   5.528   7.946  0.0325  0.3900 -0.2195
   76CHL1  H12A 8062   5.184   5.446   8.021 -2.1639 -0.3502 -1.0475
   76CHL1  H12B 8063   5.094   5.589   7.958 -0.2731 -0.0656 -0.2226
   76CHL1   C11 8064   5.193   5.466   7.802  0.1955 -0.2459 -0.6481
   76CHL1  H11A 8065   5.288   5.409   7.807 -0.1036 -0.6217  1.2431
   76CHL1  H11B 8066   5.106   5.400   7.778  1.5725 -2.4622  0.2738
   76CHL1    C9 8067   5.204   5.576   7.695  0.1383 -0.7971 -0.0437
   76CHL1    H9 8068   5.115   5.640   7.714 -0.5027 -1.7541  0.2736
   76CHL1   C10 8069   5.189   5.522   7.550  0.2465 -0.1037 -0.3232
   76CHL1   C19 8070   5.262   5.382   7.539 -0.1404 -0.6050  0.3154
   76CHL1  H19A 8071   5.372   5.392   7.552 -0.5408  1.5826  2.5301
   76CHL1  H19B 8072   5.227   5.308   7.614 -0.7213  0.6152  1.2686
   76CHL1  H19C 8073   5.244   5.347   7.435 -1.6851  1.4304 -0.1471
   76CHL1    C1 8074   5.041   5.508   7.524  0.1930  0.7931  0.2550
   76CHL1   H1A 8075   4.993   5.430   7.588  0.3590  1.2974  1.0074
   76CHL1   H1B 8076   5.006   5.613   7.537  2.7963  1.7605 -0.1867
   76CHL1    C2 8077   5.005   5.466   7.377 -0.0166 -0.7099 -0.1182
   76CHL1   H2A 8078   4.895   5.461   7.362 -0.0094 -0.2312 -0.3469
   76CHL1   H2B 8079   5.049   5.365   7.366 -1.4124 -1.1664 -1.6715
   76CHL1   C20 8080   5.289   5.688   8.235  1.0262 -0.0269  0.2862
   76CHL1   H20 8081   5.397   5.667   8.250  1.3839  2.8610  2.1091
   76CHL1   C21 8082   5.217   5.551   8.264 -0.0910  0.1409  0.1201
   76CHL1  H21A 8083   5.117   5.544   8.216 -0.4091  1.3491  0.6024
   76CHL1  H21B 8084   5.215   5.518   8.370  0.5144 -2.2285 -0.5738
   76CHL1  H21C 8085   5.272   5.468   8.216 -1.4433  0.7013 -2.5028
   76CHL1   C22 8086   5.250   5.795   8.336  0.3008 -0.8902 -0.1616
   76CHL1  H22A 8087   5.325   5.802   8.418  1.0975 -2.2434 -0.7493
   76CHL1  H22B 8088   5.245   5.893   8.283 -0.4356 -0.2086  1.1378
   76CHL1   C23 8089   5.110   5.788   8.393  0.0594  0.4867  0.6340
   76CHL1  H23A 8090   5.041   5.770   8.308 -2.7547  4.3158  1.9843
   76CHL1  H23B 8091   5.122   5.702   8.463 -0.3949  0.5008  0.7346
   76CHL1   C24 8092   5.067   5.914   8.470  0.3298  0.5976 -0.3977
   76CHL1  H24A 8093   5.134   5.921   8.559 -1.0562  2.1856  0.5394
   76CHL1  H24B 8094   5.066   6.002   8.402 -0.5735  0.4396 -0.5949
   76CHL1   C25 8095   4.915   5.910   8.508 -0.6158 -0.1105 -0.4737
   76CHL1   H25 8096   4.860   5.892   8.413 -0.3138 -1.2772 -0.4383
   76CHL1   C26 8097   4.889   5.796   8.608 -0.2943 -0.6566  0.3762
   76CHL1  H26A 8098   4.979   5.769   8.667  1.1437 -0.2182 -1.5728
   76CHL1  H26B 8099   4.808   5.826   8.678 -1.6354 -1.5424 -0.7784
   76CHL1  H26C 8100   4.859   5.701   8.559  1.3395 -0.9406 -0.1157
   76CHL1   C27 8101   4.875   6.042   8.571 -0.4326 -0.6768 -0.2816
   76CHL1  H27A 8102   4.930   6.123   8.517 -1.1860 -0.2710 -0.4513
   76CHL1  H27B 8103   4.766   6.055   8.555 -0.4623 -0.4192  0.1011
   76CHL1  H27C 8104   4.916   6.053   8.674  0.8787  1.9346 -1.0259
   77CHL1    C3 8105   5.934   3.642   6.706  0.0960  0.4100  0.5832
   77CHL1    H3 8106   5.851   3.713   6.686  0.7271  0.7046 -1.1351
   77CHL1    O3 8107   6.000   3.640   6.581 -0.4372 -0.0621  0.1758
   77CHL1   H3' 8108   6.052   3.560   6.580  0.3600  0.4614 -1.1658
   77CHL1    C4 8109   6.020   3.701   6.812 -0.4559  0.1181  0.2912
   77CHL1   H4A 8110   6.113   3.641   6.818 -1.1256 -0.9452  0.1383
   77CHL1   H4B 8111   6.061   3.800   6.782  1.4085 -0.2708  1.4844
   77CHL1    C5 8112   5.944   3.703   6.948 -0.5065 -0.2302  0.2775
   77CHL1    C6 8113   5.934   3.815   7.020  0.2702 -0.1790 -0.3432
   77CHL1    H6 8114   5.982   3.904   6.977  0.0526 -0.4435 -1.1458
   77CHL1    C7 8115   5.871   3.834   7.153 -0.3743 -0.4384 -0.1174
   77CHL1   H7A 8116   5.920   3.907   7.222  0.1800  1.3780 -2.3636
   77CHL1   H7B 8117   5.766   3.864   7.133 -0.6918 -1.6967 -0.3493
   77CHL1    C8 8118   5.867   3.696   7.223 -0.5583  1.0317  0.1190
   77CHL1    H8 8119   5.972   3.663   7.238 -1.2714 -0.9125  0.9466
   77CHL1   C14 8120   5.799   3.703   7.351  1.0923 -0.9073 -0.9334
   77CHL1   H14 8121   5.691   3.712   7.325  0.8620 -0.4720  0.1343
   77CHL1   C15 8122   5.830   3.811   7.454  0.2033  0.4293  0.2133
   77CHL1  H15A 8123   5.941   3.821   7.456  0.2654  0.4324 -2.0737
   77CHL1  H15B 8124   5.791   3.913   7.432  0.7742  0.9171  1.4270
   77CHL1   C16 8125   5.778   3.752   7.585  0.4394 -0.8142  0.3308
   77CHL1  H16A 8126   5.866   3.750   7.653  0.3151  0.3379  0.5371
   77CHL1  H16B 8127   5.702   3.819   7.631 -0.7408 -0.2212 -2.3661
   77CHL1   C17 8128   5.727   3.614   7.552  0.1905  0.3605 -0.2913
   77CHL1   H17 8129   5.619   3.635   7.534 -0.1230  0.6130  1.6858
   77CHL1   C13 8130   5.794   3.568   7.428 -0.7672  0.0452  0.1821
   77CHL1   C18 8131   5.941   3.532   7.459 -0.4581 -0.2430 -0.0255
   77CHL1  H18A 8132   5.995   3.478   7.379 -1.1683 -1.6373  0.4025
   77CHL1  H18B 8133   6.002   3.615   7.500 -2.3231  0.8695  0.5523
   77CHL1  H18C 8134   5.939   3.456   7.541 -1.7166  0.1740  0.3520
   77CHL1   C12 8135   5.725   3.460   7.344  0.6342 -0.4721 -0.2500
   77CHL1  H12A 8136   5.725   3.362   7.395  0.3018  0.5490  1.7441
   77CHL1  H12B 8137   5.619   3.493   7.339  1.2188  1.3295 -1.3875
   77CHL1   C11 8138   5.780   3.454   7.202 -0.3194  0.0823 -0.1245
   77CHL1  H11A 8139   5.869   3.388   7.209  2.0637  3.2397  0.5206
   77CHL1  H11B 8140   5.704   3.399   7.143 -1.6122  1.4747  0.2122
   77CHL1    C9 8141   5.808   3.590   7.132  0.2166  0.5549 -0.8367
   77CHL1    H9 8142   5.709   3.631   7.103 -2.1911 -2.5421  2.5234
   77CHL1   C10 8143   5.890   3.565   7.000  0.5487  0.3601 -0.3454
   77CHL1   C19 8144   6.019   3.467   7.021  0.3807  0.4115  0.1644
   77CHL1  H19A 8145   6.086   3.504   7.102  0.1310 -0.8822  0.9813
   77CHL1  H19B 8146   5.979   3.366   7.045  0.4913  0.8626  2.4384
   77CHL1  H19C 8147   6.078   3.438   6.932 -1.4807 -2.1196 -0.3066
   77CHL1    C1 8148   5.798   3.521   6.880 -0.2395  0.7114 -0.3528
   77CHL1   H1A 8149   5.761   3.418   6.900 -0.9718  1.3939  1.9900
   77CHL1   H1B 8150   5.710   3.589   6.874 -2.6562 -2.3212 -0.5297
   77CHL1    C2 8151   5.873   3.511   6.747  0.5874 -0.2999  0.0147
   77CHL1   H2A 8152   5.793   3.489   6.672  0.5539 -2.5133  0.6723
   77CHL1   H2B 8153   5.934   3.419   6.737  1.3899  0.2782 -0.4331
   77CHL1   C20 8154   5.715   3.520   7.671 -0.3331  0.7922  0.0389
   77CHL1   H20 8155   5.814   3.478   7.700 -0.0685  1.1114 -0.4050
   77CHL1   C21 8156   5.634   3.385   7.640  0.2542 -0.0883 -0.7714
   77CHL1  H21A 8157   5.701   3.314   7.587 -0.2869 -0.6240 -0.7321
   77CHL1  H21B 8158   5.545   3.404   7.578 -0.0027 -1.7789 -0.9240
   77CHL1  H21C 8159   5.608   3.343   7.740  0.0003  2.2217  0.1712
   77CHL1   C22 8160   5.662   3.590   7.799 -0.7854  0.4989 -0.3797
   77CHL1  H22A 8161   5.715   3.688   7.804  1.2533 -0.5366 -0.8753
   77CHL1  H22B 8162   5.556   3.617   7.782  0.3761  4.4662 -1.9565
   77CHL1   C23 8163   5.694   3.513   7.927  0.4645  0.1644 -0.7716
   77CHL1  H23A 8164   5.647   3.565   8.013  1.3845  0.8651 -0.6773
   77CHL1  H23B 8165   5.656   3.410   7.914 -0.0522  0.5630 -2.5175
   77CHL1   C24 8166   5.843   3.520   7.964 -0.1457  0.0530  0.2385
   77CHL1  H24A 8167   5.906   3.495   7.876  0.6560 -1.3199  1.1770
   77CHL1  H24B 8168   5.877   3.622   7.988 -0.4485  0.9252 -2.8051
   77CHL1   C25 8169   5.881   3.427   8.078  0.0646  0.7791 -0.6241
   77CHL1   H25 8170   5.837   3.457   8.176  2.2327  0.5780  0.4257
   77CHL1   C26 8171   5.860   3.277   8.052 -0.5225  0.5879 -0.0577
   77CHL1  H26A 8172   5.767   3.257   7.995 -1.1969 -0.0148  1.2349
   77CHL1  H26B 8173   5.945   3.254   7.985 -0.3610  0.5885  0.1500
   77CHL1  H26C 8174   5.870   3.206   8.137  0.9540 -0.7079 -1.2991
   77CHL1   C27 8175   6.028   3.459   8.118 -0.3755  0.2908 -0.2240
   77CHL1  H27A 8176   6.053   3.393   8.203 -2.2330 -0.1787 -0.0070
   77CHL1  H27B 8177   6.108   3.445   8.043  0.2983 -1.4814  0.7958
   77CHL1  H27C 8178   6.036   3.561   8.160 -2.3026 -0.5862  2.4440
   78CHL1    C3 8179   1.036   4.966   6.852  0.4514  0.9023  0.2773
   78CHL1    H3 8180   0.927   4.975   6.834  0.8049  3.9625 -0.8041
   78CHL1    O3 8181   1.120   4.984   6.734 -0.1208  0.5006 -0.6005
   78CHL1   H3' 8182   1.205   4.950   6.763 -0.3191 -0.3633 -1.0191
   78CHL1    C4 8183   1.062   5.079   6.948  0.7563 -0.4429 -0.1992
   78CHL1   H4A 8184   1.173   5.076   6.960  0.7092  1.2030  0.8066
   78CHL1   H4B 8185   1.039   5.173   6.894  2.2873 -1.4715 -2.7419
   78CHL1    C5 8186   0.995   5.059   7.082  0.3163 -0.3122  0.3769
   78CHL1    C6 8187   0.904   5.145   7.131  0.8173  0.7458  0.0144
   78CHL1    H6 8188   0.874   5.235   7.075  1.4594  0.0012 -1.5809
   78CHL1    C7 8189   0.832   5.126   7.264 -0.1920  1.1373 -0.1613
   78CHL1   H7A 8190   0.825   5.223   7.317 -0.5603  0.9907  0.0582
   78CHL1   H7B 8191   0.731   5.085   7.243  0.0539  0.1186  0.6128
   78CHL1    C8 8192   0.913   5.024   7.347 -0.2663  0.9352 -0.2237
   78CHL1    H8 8193   1.012   5.065   7.378 -0.3636  0.8084  0.2566
   78CHL1   C14 8194   0.838   4.993   7.472 -0.2833  0.0825  0.7131
   78CHL1   H14 8195   0.744   4.945   7.437  0.3042 -1.3243  1.0119
   78CHL1   C15 8196   0.792   5.110   7.563  0.4850 -0.4381 -0.0328
   78CHL1  H15A 8197   0.881   5.175   7.575 -0.3451  0.3787  2.1853
   78CHL1  H15B 8198   0.710   5.175   7.524 -0.1997 -0.2777  1.6018
   78CHL1   C16 8199   0.749   5.046   7.693 -0.2475  0.5794  0.4409
   78CHL1  H16A 8200   0.796   5.097   7.780  0.4229  0.9288 -0.1203
   78CHL1  H16B 8201   0.639   5.043   7.702 -0.4040 -3.1789 -1.5819
   78CHL1   C17 8202   0.795   4.896   7.688  0.4447 -0.2915 -0.1051
   78CHL1   H17 8203   0.705   4.844   7.648 -0.2160  0.0598  0.9145
   78CHL1   C13 8204   0.896   4.901   7.570 -0.2541 -0.2464 -0.0241
   78CHL1   C18 8205   1.034   4.949   7.624  0.6541  0.7001  0.2820
   78CHL1  H18A 8206   1.086   4.888   7.701  0.5782 -1.7691 -1.5843
   78CHL1  H18B 8207   1.111   4.958   7.546  2.1283  2.9516  1.9293
   78CHL1  H18C 8208   1.020   5.052   7.664  2.0426  0.0419  2.5771
   78CHL1   C12 8209   0.915   4.770   7.494  0.0913 -0.3823  0.6716
   78CHL1  H12A 8210   0.982   4.709   7.557  0.3856 -1.2974 -0.4944
   78CHL1  H12B 8211   0.817   4.729   7.461  0.0062  0.4025 -0.0894
   78CHL1   C11 8212   0.988   4.779   7.361  0.3128 -0.2667 -1.1838
   78CHL1  H11A 8213   1.094   4.792   7.394 -0.0547 -1.9715  0.7216
   78CHL1  H11B 8214   0.972   4.684   7.306  1.4174 -1.0820 -0.1222
   78CHL1    C9 8215   0.940   4.892   7.269 -0.4634 -0.1883  0.4033
   78CHL1    H9 8216   0.844   4.858   7.224 -0.9254 -1.6498  2.3886
   78CHL1   C10 8217   1.033   4.929   7.149  0.0148 -0.3073  0.0543
   78CHL1   C19 8218   1.180   4.925   7.192  0.0283 -0.8192  0.1546
   78CHL1  H19A 8219   1.245   4.946   7.104 -0.8089  1.6783  0.1038
   78CHL1  H19B 8220   1.205   5.006   7.262 -0.2003  0.1047 -0.8193
   78CHL1  H19C 8221   1.203   4.824   7.234  0.4180 -0.7004  0.2228
   78CHL1    C1 8222   1.000   4.814   7.044 -0.5983  0.0221  0.0750
   78CHL1   H1A 8223   1.027   4.714   7.083  0.1062  0.9912  2.2022
   78CHL1   H1B 8224   0.890   4.825   7.031 -0.6467 -2.6217 -2.0164
   78CHL1    C2 8225   1.071   4.824   6.912  0.0059  0.6591  0.2275
   78CHL1   H2A 8226   1.043   4.743   6.841 -1.5236 -0.1644  1.7248
   78CHL1   H2B 8227   1.180   4.818   6.931 -0.1474 -0.5364  0.8181
   78CHL1   C20 8228   0.842   4.856   7.821  0.2768  0.4955  0.1482
   78CHL1   H20 8229   0.926   4.919   7.858 -0.6648  0.2163  2.9228
   78CHL1   C21 8230   0.893   4.710   7.809 -0.1696 -0.7131  0.7936
   78CHL1  H21A 8231   0.994   4.698   7.764 -0.4061 -0.4393  0.1809
   78CHL1  H21B 8232   0.818   4.659   7.744 -0.0682  2.0992 -1.6325
   78CHL1  H21C 8233   0.918   4.672   7.910  0.9096 -0.9208  0.4562
   78CHL1   C22 8234   0.731   4.863   7.930 -1.2705 -0.1433 -0.5104
   78CHL1  H22A 8235   0.697   4.968   7.939 -0.9271 -0.0812  0.1255
   78CHL1  H22B 8236   0.638   4.805   7.914 -0.4812 -0.8051 -3.0180
   78CHL1   C23 8237   0.780   4.831   8.072 -0.5551  0.2737  0.0091
   78CHL1  H23A 8238   0.812   4.725   8.077  0.1054  0.2520 -3.3563
   78CHL1  H23B 8239   0.866   4.893   8.107 -0.9978  1.3192 -0.7326
   78CHL1   C24 8240   0.666   4.851   8.178 -0.8209  0.3258  0.0556
   78CHL1  H24A 8241   0.644   4.960   8.176  1.8479  0.8993 -0.3072
   78CHL1  H24B 8242   0.571   4.801   8.149 -1.1001  1.0302 -0.2623
   78CHL1   C25 8243   0.689   4.810   8.325 -0.5412 -0.1094  0.3716
   78CHL1   H25 8244   0.786   4.858   8.348 -1.7482  2.6409 -0.0123
   78CHL1   C26 8245   0.589   4.882   8.425  0.1438  0.0255  0.3749
   78CHL1  H26A 8246   0.571   4.989   8.402  0.6761  0.3167  1.2915
   78CHL1  H26B 8247   0.500   4.816   8.427  0.1901 -0.0473  0.1268
   78CHL1  H26C 8248   0.644   4.876   8.522  0.3418  0.3309  0.2836
   78CHL1   C27 8249   0.705   4.659   8.349 -0.3998 -0.4002 -0.6522
   78CHL1  H27A 8250   0.717   4.625   8.454 -0.7780 -1.2729 -0.8867
   78CHL1  H27B 8251   0.611   4.610   8.315 -2.8697  3.4937  0.2653
   78CHL1  H27C 8252   0.795   4.630   8.291  0.3757  1.9151 -0.6721
   79CHL1    C3 8253   6.067   4.911   7.266  1.0926 -0.2572 -0.5234
   79CHL1    H3 8254   6.128   5.001   7.290  1.1193 -0.5275  0.4290
   79CHL1    O3 8255   6.078   4.889   7.128 -0.4777  0.3860  0.3821
   79CHL1   H3' 8256   6.036   4.806   7.104  0.5474 -0.1468  0.3814
   79CHL1    C4 8257   6.139   4.804   7.343  0.1556  0.1374 -0.6077
   79CHL1   H4A 8258   6.096   4.707   7.308 -0.0658 -0.3199  0.8956
   79CHL1   H4B 8259   6.246   4.807   7.314  0.0500 -0.2950 -1.0666
   79CHL1    C5 8260   6.122   4.814   7.500  0.1825 -0.4357  0.1516
   79CHL1    C6 8261   6.226   4.812   7.585  0.1692  0.0570  1.8329
   79CHL1    H6 8262   6.321   4.779   7.541 -0.3144  0.2575  0.6221
   79CHL1    C7 8263   6.214   4.825   7.734  0.2517 -0.1369 -1.0762
   79CHL1   H7A 8264   6.288   4.762   7.788 -0.7542  0.0460  0.5401
   79CHL1   H7B 8265   6.242   4.930   7.758  0.2004  0.0998 -2.0233
   79CHL1    C8 8266   6.065   4.805   7.782  0.2837 -0.6515  0.3549
   79CHL1    H8 8267   6.038   4.698   7.773 -1.6021  0.0135 -2.5541
   79CHL1   C14 8268   6.047   4.851   7.925  0.1354 -0.0637 -0.2277
   79CHL1   H14 8269   6.071   4.959   7.932  0.4730 -0.1963  0.8533
   79CHL1   C15 8270   6.148   4.785   8.033  0.1838 -0.0880 -0.5851
   79CHL1  H15A 8271   6.160   4.680   8.001 -0.0064 -0.6531  1.1707
   79CHL1  H15B 8272   6.243   4.843   8.023  0.6673 -0.9946 -1.3175
   79CHL1   C16 8273   6.071   4.798   8.163  0.5132 -0.3494 -0.2870
   79CHL1  H16A 8274   6.053   4.700   8.213  1.0291  0.7523  2.1076
   79CHL1  H16B 8275   6.126   4.867   8.230  1.7368 -0.2766 -1.3378
   79CHL1   C17 8276   5.933   4.874   8.129  0.0640 -0.4044  0.0841
   79CHL1   H17 8277   5.966   4.978   8.147 -1.2827 -0.1353  1.0222
   79CHL1   C13 8278   5.909   4.846   7.984  0.3135 -0.1561 -0.2007
   79CHL1   C18 8279   5.850   4.702   7.961 -0.2617  0.0399 -0.3237
   79CHL1  H18A 8280   5.919   4.624   7.999 -0.9858  0.4170  1.8626
   79CHL1  H18B 8281   5.749   4.689   8.007  1.3920  1.4276  4.0021
   79CHL1  H18C 8282   5.843   4.690   7.851 -2.0309  2.6061 -0.5454
   79CHL1   C12 8283   5.829   4.954   7.904  0.0490 -0.7028 -0.4465
   79CHL1  H12A 8284   5.725   4.956   7.942 -0.2224 -0.8780 -1.1729
   79CHL1  H12B 8285   5.878   5.053   7.917 -2.5990  0.6790 -0.5717
   79CHL1   C11 8286   5.832   4.918   7.755  0.4376 -0.1613 -0.1023
   79CHL1  H11A 8287   5.757   4.845   7.716  0.4025  0.0902 -0.5055
   79CHL1  H11B 8288   5.800   5.017   7.717 -0.7932 -0.2489  0.6809
   79CHL1    C9 8289   5.973   4.891   7.699  0.3720  1.1314 -0.4853
   79CHL1    H9 8290   6.021   4.992   7.696 -0.9578  1.8570  1.9189
   79CHL1   C10 8291   5.978   4.846   7.548  0.5736  0.3495 -0.1728
   79CHL1   C19 8292   5.897   4.716   7.529 -0.2942 -0.6935  0.8651
   79CHL1  H19A 8293   5.916   4.666   7.432 -0.5780  0.4312  0.2295
   79CHL1  H19B 8294   5.915   4.647   7.614  1.6494  0.3492  1.3416
   79CHL1  H19C 8295   5.789   4.739   7.524 -0.7715 -2.8170  1.0340
   79CHL1    C1 8296   5.911   4.950   7.462 -0.1560 -0.0783  0.4469
   79CHL1   H1A 8297   5.806   4.962   7.495 -0.4685 -1.3092 -0.0813
   79CHL1   H1B 8298   5.959   5.050   7.469  3.0709 -1.6206  1.1754
   79CHL1    C2 8299   5.918   4.919   7.306 -0.1152 -0.7906 -0.8673
   79CHL1   H2A 8300   5.868   5.001   7.249  0.4155  0.3194  0.2374
   79CHL1   H2B 8301   5.868   4.820   7.296  0.5324 -0.8479 -4.0534
   79CHL1   C20 8302   5.825   4.836   8.226 -0.0303  0.7030  0.2073
   79CHL1   H20 8303   5.791   4.731   8.215  1.1903  0.0735  2.2081
   79CHL1   C21 8304   5.702   4.921   8.203  0.5509 -0.3007  0.4335
   79CHL1  H21A 8305   5.642   4.865   8.128  1.9286  0.1518 -1.0300
   79CHL1  H21B 8306   5.726   5.015   8.149 -0.9772 -0.8885 -1.3276
   79CHL1  H21C 8307   5.628   4.935   8.285 -0.3442 -1.3941 -0.1723
   79CHL1   C22 8308   5.877   4.849   8.374  0.5527  0.5377  0.3302
   79CHL1  H22A 8309   5.952   4.768   8.386 -1.6431 -1.4412  1.1136
   79CHL1  H22B 8310   5.936   4.943   8.371  1.3649 -0.0085 -1.5815
   79CHL1   C23 8311   5.773   4.849   8.482 -0.8918  0.2587 -0.3492
   79CHL1  H23A 8312   5.727   4.950   8.489  1.9491  1.4449  2.3992
   79CHL1  H23B 8313   5.709   4.760   8.467  0.3977 -0.4254 -1.9875
   79CHL1   C24 8314   5.836   4.849   8.623 -0.7551  0.1833 -0.1558
   79CHL1  H24A 8315   5.911   4.768   8.628 -3.5884 -2.4881  0.1350
   79CHL1  H24B 8316   5.891   4.944   8.641 -1.0421  0.6134 -1.5263
   79CHL1   C25 8317   5.743   4.827   8.747 -0.7821 -0.3061 -0.0246
   79CHL1   H25 8318   5.659   4.761   8.717 -3.1237  1.5497  2.2593
   79CHL1   C26 8319   5.830   4.763   8.861  0.7443 -0.2178 -0.0257
   79CHL1  H26A 8320   5.759   4.726   8.938  0.1408  0.6975 -0.1355
   79CHL1  H26B 8321   5.862   4.667   8.815 -0.8419 -0.6230 -0.3342
   79CHL1  H26C 8322   5.908   4.828   8.904  1.6002 -2.1889  1.4696
   79CHL1   C27 8323   5.683   4.957   8.797 -0.0231 -0.4880  0.0521
   79CHL1  H27A 8324   5.638   5.012   8.711 -1.0918 -0.7773  0.4258
   79CHL1  H27B 8325   5.610   4.940   8.879  0.0356  0.5105  0.3085
   79CHL1  H27C 8326   5.766   5.020   8.835 -3.0607  3.0230  1.1464
   80CHL1    C3 8327   4.632   2.300   7.233 -0.6988  0.4821 -0.7731
   80CHL1    H3 8328   4.544   2.266   7.291  0.2803  0.4171  0.6923
   80CHL1    O3 8329   4.600   2.330   7.096 -0.1845  0.4405 -0.7054
   80CHL1   H3' 8330   4.665   2.282   7.044  0.0909 -1.9359  1.7112
   80CHL1    C4 8331   4.682   2.424   7.300 -0.2349 -0.3041  0.0108
   80CHL1   H4A 8332   4.776   2.462   7.255  0.0924  0.0260  0.9581
   80CHL1   H4B 8333   4.602   2.498   7.280  0.5451  0.7672  0.8189
   80CHL1    C5 8334   4.714   2.406   7.445  0.0235  0.4673 -0.4881
   80CHL1    C6 8335   4.656   2.472   7.544  0.4248  0.8722 -0.6968
   80CHL1    H6 8336   4.586   2.556   7.528 -0.1632  0.4160 -0.5324
   80CHL1    C7 8337   4.687   2.452   7.689  0.0203 -0.1640 -0.2613
   80CHL1   H7A 8338   4.691   2.556   7.727  3.2245 -0.0279 -0.8884
   80CHL1   H7B 8339   4.601   2.392   7.729 -1.5292  2.4356  0.4167
   80CHL1    C8 8340   4.822   2.369   7.715  0.2067  0.1316  0.5108
   80CHL1    H8 8341   4.905   2.442   7.705  2.6242 -2.5722  0.0774
   80CHL1   C14 8342   4.818   2.306   7.855 -0.4962 -0.5788 -0.6947
   80CHL1   H14 8343   4.741   2.225   7.854 -1.6752  0.4593  2.0581
   80CHL1   C15 8344   4.782   2.398   7.972  0.1423 -0.1026  0.0790
   80CHL1  H15A 8345   4.847   2.488   7.965 -1.2243  0.9870  1.0927
   80CHL1  H15B 8346   4.673   2.415   7.958  0.1032 -0.2990  0.1337
   80CHL1   C16 8347   4.827   2.317   8.097 -0.3409  0.2685  0.6709
   80CHL1  H16A 8348   4.902   2.388   8.136 -0.4864 -0.2242  1.8878
   80CHL1  H16B 8349   4.757   2.287   8.178 -0.9935 -1.6145 -0.5583
   80CHL1   C17 8350   4.906   2.193   8.048  0.4270  0.1914  0.6032
   80CHL1   H17 8351   4.839   2.105   8.041  1.1938 -0.2594 -1.5070
   80CHL1   C13 8352   4.941   2.225   7.894  0.5082  0.2256 -0.1272
   80CHL1   C18 8353   5.063   2.308   7.889 -0.1977 -0.5377 -0.4803
   80CHL1  H18A 8354   5.158   2.263   7.925 -0.2824 -0.0270  0.4039
   80CHL1  H18B 8355   5.092   2.345   7.788  0.6605  0.5453  0.1468
   80CHL1  H18C 8356   5.047   2.394   7.957 -4.3652 -1.5104 -0.1331
   80CHL1   C12 8357   4.953   2.112   7.789  0.5153 -0.1834  1.1300
   80CHL1  H12A 8358   5.045   2.052   7.806  0.3031  0.1926  3.8250
   80CHL1  H12B 8359   4.870   2.043   7.814  0.1116 -0.2879 -0.4600
   80CHL1   C11 8360   4.952   2.160   7.647 -0.4065  0.2951  0.7290
   80CHL1  H11A 8361   5.053   2.206   7.642  1.0893 -2.3985  4.0499
   80CHL1  H11B 8362   4.959   2.073   7.578 -1.4360  1.3141 -0.6811
   80CHL1    C9 8363   4.831   2.248   7.623 -0.0470  0.4653 -0.1111
   80CHL1    H9 8364   4.749   2.177   7.646  0.1708 -0.8262 -3.1698
   80CHL1   C10 8365   4.802   2.285   7.473  0.4166  0.1479 -0.0853
   80CHL1   C19 8366   4.941   2.332   7.428 -0.1534  0.5809 -0.6173
   80CHL1  H19A 8367   4.996   2.402   7.494 -2.0596  1.1697  0.3930
   80CHL1  H19B 8368   4.998   2.237   7.424  0.2247  0.8260 -1.0842
   80CHL1  H19C 8369   4.956   2.365   7.323  0.1368  2.4047 -0.0246
   80CHL1    C1 8370   4.749   2.156   7.396  0.3179 -0.2349  0.6999
   80CHL1   H1A 8371   4.831   2.082   7.404  0.6880  0.2196  1.1875
   80CHL1   H1B 8372   4.647   2.119   7.422 -0.1683 -0.3053 -1.2189
   80CHL1    C2 8373   4.728   2.184   7.244 -0.4652  0.7812  0.4130
   80CHL1   H2A 8374   4.706   2.090   7.189  1.4667 -0.3176  1.4573
   80CHL1   H2B 8375   4.826   2.218   7.204 -1.4131  2.5550 -0.4976
   80CHL1   C20 8376   5.024   2.150   8.136  0.5635 -0.3398 -0.2379
   80CHL1   H20 8377   5.105   2.227   8.133 -2.0143  2.4358 -0.8657
   80CHL1   C21 8378   5.093   2.017   8.092 -0.0770 -0.1434  0.0899
   80CHL1  H21A 8379   5.161   2.048   8.010 -1.7768  1.4835 -0.7449
   80CHL1  H21B 8380   5.024   1.939   8.054 -3.2514  1.4210  2.4076
   80CHL1  H21C 8381   5.159   1.981   8.174 -1.2619  1.2703  1.6975
   80CHL1   C22 8382   4.979   2.137   8.284  0.5910 -0.6624  0.5643
   80CHL1  H22A 8383   5.064   2.109   8.350  0.6689  1.9578  1.6552
   80CHL1  H22B 8384   4.964   2.241   8.322 -1.1340 -1.1463  1.2015
   80CHL1   C23 8385   4.863   2.047   8.327 -1.1557 -0.4693  0.8975
   80CHL1  H23A 8386   4.843   2.074   8.433  1.1049  0.1887  1.1758
   80CHL1  H23B 8387   4.772   2.078   8.271 -0.8977 -1.0632  0.1448
   80CHL1   C24 8388   4.876   1.891   8.316 -0.5333  0.4417 -0.3405
   80CHL1  H24A 8389   4.921   1.865   8.218  1.8118 -0.1493  0.8323
   80CHL1  H24B 8390   4.948   1.851   8.391  0.0698 -1.6921 -2.0221
   80CHL1   C25 8391   4.748   1.810   8.330 -0.4335 -0.2675 -0.1555
   80CHL1   H25 8392   4.668   1.857   8.268  0.4363  0.2768 -0.8850
   80CHL1   C26 8393   4.779   1.672   8.280 -0.1818 -0.0654 -0.1511
   80CHL1  H26A 8394   4.803   1.673   8.172  1.3387 -0.4969  0.1696
   80CHL1  H26B 8395   4.874   1.645   8.332  0.6935  1.2239 -1.0498
   80CHL1  H26C 8396   4.696   1.601   8.303  0.6941 -0.6995  1.1610
   80CHL1   C27 8397   4.694   1.806   8.473 -0.0018  0.0739  0.0773
   80CHL1  H27A 8398   4.609   1.736   8.490  1.2851 -0.8088  3.1676
   80CHL1  H27B 8399   4.779   1.768   8.533 -1.7511 -1.0404  1.8896
   80CHL1  H27C 8400   4.649   1.902   8.507 -1.2123 -0.4149 -0.1138
   81CHL1    C3 8401   2.435   2.564   6.911  0.4461 -0.3552 -0.9046
   81CHL1    H3 8402   2.515   2.522   6.976 -0.3229 -2.3741 -1.2046
   81CHL1    O3 8403   2.478   2.560   6.784 -0.1181  0.5207 -0.1047
   81CHL1   H3' 8404   2.408   2.610   6.743 -2.5714 -2.3513  0.3879
   81CHL1    C4 8405   2.311   2.478   6.932  0.3954 -0.6877  0.3545
   81CHL1   H4A 8406   2.228   2.501   6.861  1.0452  0.5221 -0.0236
   81CHL1   H4B 8407   2.352   2.376   6.911  1.5629 -0.3867  1.1102
   81CHL1    C5 8408   2.251   2.492   7.069  0.0235 -0.2549 -0.3757
   81CHL1    C6 8409   2.241   2.384   7.148  0.3505 -0.2183 -0.0297
   81CHL1    H6 8410   2.271   2.286   7.110  0.6267 -0.0780 -0.1750
   81CHL1    C7 8411   2.179   2.373   7.286 -0.5380 -0.6235  0.1162
   81CHL1   H7A 8412   2.116   2.282   7.295  0.5016 -1.3084  0.6586
   81CHL1   H7B 8413   2.264   2.353   7.355 -0.2651  1.9938  0.5726
   81CHL1    C8 8414   2.111   2.509   7.321  0.7540 -0.2241  0.0144
   81CHL1    H8 8415   2.011   2.515   7.273  1.0291 -1.3817 -0.7319
   81CHL1   C14 8416   2.087   2.509   7.473  0.2960  0.0542 -0.1495
   81CHL1   H14 8417   2.188   2.516   7.519 -0.1322 -0.5473  0.9073
   81CHL1   C15 8418   2.021   2.392   7.545 -0.4722 -0.2543 -0.0811
   81CHL1  H15A 8419   1.934   2.355   7.487 -0.8976  0.3215  0.1820
   81CHL1  H15B 8420   2.102   2.318   7.562 -0.4091 -0.1271  0.1754
   81CHL1   C16 8421   1.977   2.457   7.682  0.7372  0.0711 -0.2462
   81CHL1  H16A 8422   1.869   2.438   7.701  1.4179 -2.8386  0.9862
   81CHL1  H16B 8423   2.024   2.399   7.764 -1.7084 -0.7316  0.6303
   81CHL1   C17 8424   2.019   2.598   7.671 -0.1972  0.4299  0.5093
   81CHL1   H17 8425   2.126   2.593   7.700  0.2380  0.7027 -0.9888
   81CHL1   C13 8426   2.020   2.636   7.523  0.1631  0.1116 -0.3099
   81CHL1   C18 8427   1.872   2.644   7.475  0.1335 -0.1738 -0.4319
   81CHL1  H18A 8428   1.817   2.553   7.508 -0.8888 -0.3247 -2.4632
   81CHL1  H18B 8429   1.824   2.738   7.509 -0.4426 -0.7116  0.2504
   81CHL1  H18C 8430   1.869   2.653   7.364  0.4616  1.0572 -0.3513
   81CHL1   C12 8431   2.101   2.763   7.481 -0.0513  0.0403 -0.8127
   81CHL1  H12A 8432   2.045   2.853   7.513  1.7846  0.5334  1.1322
   81CHL1  H12B 8433   2.198   2.748   7.533 -1.5901 -2.3136  1.5212
   81CHL1   C11 8434   2.119   2.767   7.328  1.1275 -0.1518 -0.5435
   81CHL1  H11A 8435   2.019   2.773   7.280  1.8466  2.0616 -1.8031
   81CHL1  H11B 8436   2.175   2.860   7.304  0.9389  0.1765  0.2821
   81CHL1    C9 8437   2.190   2.634   7.279  0.2943 -0.5445  0.1688
   81CHL1    H9 8438   2.290   2.634   7.328 -0.1663 -0.3810  1.1268
   81CHL1   C10 8439   2.214   2.633   7.122 -0.3620 -0.1196 -0.2646
   81CHL1   C19 8440   2.097   2.690   7.040 -0.4416 -0.5432 -0.7405
   81CHL1  H19A 8441   2.009   2.626   7.062  0.7554 -1.8900  0.1774
   81CHL1  H19B 8442   2.077   2.792   7.080 -1.6424 -1.3879  0.8747
   81CHL1  H19C 8443   2.107   2.687   6.929 -0.0628  1.1490 -0.7675
   81CHL1    C1 8444   2.343   2.719   7.096 -0.0597 -0.0894  0.6322
   81CHL1   H1A 8445   2.314   2.822   7.126 -0.6459 -0.0620 -0.0116
   81CHL1   H1B 8446   2.422   2.692   7.169 -0.2150  0.6474  1.0737
   81CHL1    C2 8447   2.410   2.709   6.950 -0.6024  0.8341 -0.5298
   81CHL1   H2A 8448   2.505   2.766   6.954  2.0848 -3.4789  0.3080
   81CHL1   H2B 8449   2.337   2.758   6.881 -2.4219  0.1818  0.9019
   81CHL1   C20 8450   1.937   2.689   7.761  0.7494 -1.1075 -0.4085
   81CHL1   H20 8451   1.845   2.731   7.717  0.9656 -0.5533 -0.3398
   81CHL1   C21 8452   2.036   2.811   7.797 -0.3620  0.5509  0.1520
   81CHL1  H21A 8453   1.970   2.883   7.851 -0.5954 -0.7915  1.7023
   81CHL1  H21B 8454   2.076   2.862   7.707  0.9285  0.4649  0.6800
   81CHL1  H21C 8455   2.114   2.778   7.868 -0.4444  2.4203  1.1627
   81CHL1   C22 8456   1.895   2.618   7.899  0.1628 -0.2988 -0.0225
   81CHL1  H22A 8457   1.840   2.526   7.873 -0.0895 -0.2813  0.4433
   81CHL1  H22B 8458   1.986   2.589   7.956  1.2420  1.5833 -0.7228
   81CHL1   C23 8459   1.799   2.706   7.989 -0.5999 -0.0333 -0.4731
   81CHL1  H23A 8460   1.814   2.814   8.010 -2.3336  1.0745 -4.3037
   81CHL1  H23B 8461   1.702   2.700   7.934 -0.0229  0.2044 -1.5456
   81CHL1   C24 8462   1.759   2.640   8.125 -0.1560  0.1152  0.1363
   81CHL1  H24A 8463   1.736   2.531   8.125 -0.4812  0.1869  1.1855
   81CHL1  H24B 8464   1.851   2.642   8.188  0.3855 -2.0372 -0.5180
   81CHL1   C25 8465   1.631   2.701   8.196  0.3679  0.5460  0.1678
   81CHL1   H25 8466   1.622   2.644   8.290  1.2359  1.1308  0.6173
   81CHL1   C26 8467   1.647   2.849   8.223  0.2373 -0.2425  0.6781
   81CHL1  H26A 8468   1.753   2.875   8.246  0.2995  1.5808 -1.3706
   81CHL1  H26B 8469   1.624   2.917   8.138  0.6493 -0.1252  0.6566
   81CHL1  H26C 8470   1.591   2.895   8.306 -2.1844 -0.5115 -0.7691
   81CHL1   C27 8471   1.492   2.695   8.127 -0.7302  0.0509 -0.7260
   81CHL1  H27A 8472   1.408   2.729   8.191  1.1538 -0.1490  1.9791
   81CHL1  H27B 8473   1.493   2.756   8.034  1.2070  0.5840 -0.3758
   81CHL1  H27C 8474   1.469   2.590   8.103 -1.3345  0.2122 -0.8469
   82CHL1    C3 8475   3.566   3.484   7.002  0.0228  0.3930 -0.5567
   82CHL1    H3 8476   3.670   3.507   7.033  0.9202 -1.6542 -1.9210
   82CHL1    O3 8477   3.552   3.510   6.858  0.0406 -0.3448 -0.9016
   82CHL1   H3' 8478   3.571   3.603   6.847  0.4189 -0.4918 -1.4947
   82CHL1    C4 8479   3.541   3.329   7.015 -0.2818  0.7700  0.6973
   82CHL1   H4A 8480   3.444   3.310   6.965  0.2928  0.5655 -0.3626
   82CHL1   H4B 8481   3.618   3.274   6.956 -1.1221  1.3976 -1.0461
   82CHL1    C5 8482   3.535   3.302   7.162 -0.5259  0.7017 -0.3570
   82CHL1    C6 8483   3.605   3.197   7.200 -0.6840  1.0118 -0.1601
   82CHL1    H6 8484   3.653   3.138   7.120 -3.4777 -0.8648 -0.5259
   82CHL1    C7 8485   3.597   3.149   7.344 -0.1453  0.0760  0.4426
   82CHL1   H7A 8486   3.568   3.042   7.336  2.7647 -0.6674 -0.7184
   82CHL1   H7B 8487   3.695   3.171   7.392  0.6328  0.0154 -1.1154
   82CHL1    C8 8488   3.486   3.206   7.427  0.9139  0.2051 -0.4977
   82CHL1    H8 8489   3.389   3.158   7.403 -0.5287  2.0498  1.4760
   82CHL1   C14 8490   3.510   3.197   7.577 -0.3948  0.1274 -0.1241
   82CHL1   H14 8491   3.597   3.263   7.599 -1.1236  1.5427 -1.3509
   82CHL1   C15 8492   3.549   3.062   7.624 -0.0974  0.1842 -0.1702
   82CHL1  H15A 8493   3.478   2.986   7.586  0.2889 -0.1381 -0.2565
   82CHL1  H15B 8494   3.654   3.033   7.600  0.4736  2.8334 -0.9956
   82CHL1   C16 8495   3.517   3.064   7.775 -0.1289  0.0013 -0.3128
   82CHL1  H16A 8496   3.452   2.976   7.794 -0.5272 -0.0393 -1.8261
   82CHL1  H16B 8497   3.612   3.066   7.832 -0.4152  2.3143  0.1673
   82CHL1   C17 8498   3.444   3.197   7.798 -0.4952 -0.4036  0.0521
   82CHL1   H17 8499   3.520   3.269   7.835 -0.2204  0.0816 -1.4008
   82CHL1   C13 8500   3.393   3.247   7.663 -0.9829 -0.2293 -0.1097
   82CHL1   C18 8501   3.267   3.174   7.630 -0.2922 -0.1180 -0.7908
   82CHL1  H18A 8502   3.292   3.066   7.633  2.4373  0.4710 -0.7555
   82CHL1  H18B 8503   3.176   3.188   7.691  1.1801 -0.0625  1.4560
   82CHL1  H18C 8504   3.240   3.193   7.524 -2.9578  0.0546 -0.1147
   82CHL1   C12 8505   3.374   3.400   7.644 -0.2802 -0.7217 -0.5272
   82CHL1  H12A 8506   3.286   3.448   7.690  0.0586  1.4991 -2.1178
   82CHL1  H12B 8507   3.460   3.456   7.687 -2.5496  0.2747  2.9010
   82CHL1   C11 8508   3.363   3.426   7.496 -0.3546  0.6008  0.4882
   82CHL1  H11A 8509   3.262   3.390   7.466  0.0228 -2.0993  2.3178
   82CHL1  H11B 8510   3.372   3.536   7.481  0.2688  0.1905 -2.4711
   82CHL1    C9 8511   3.469   3.355   7.404  0.1572 -0.4715 -0.4971
   82CHL1    H9 8512   3.567   3.398   7.430  0.4630  0.1948 -2.6072
   82CHL1   C10 8513   3.449   3.377   7.256 -0.0370 -0.9247 -0.3054
   82CHL1   C19 8514   3.303   3.346   7.224  0.2967  0.3743  0.3388
   82CHL1  H19A 8515   3.263   3.255   7.274  0.6674  1.1596  2.0901
   82CHL1  H19B 8516   3.243   3.433   7.259  1.5045  2.3805 -2.3184
   82CHL1  H19C 8517   3.280   3.346   7.115 -1.9347 -0.3965  0.7748
   82CHL1    C1 8518   3.482   3.530   7.227  0.1677  0.0232  0.0337
   82CHL1   H1A 8519   3.398   3.577   7.284  0.7210 -0.2915  1.1266
   82CHL1   H1B 8520   3.572   3.570   7.278 -0.6260  2.3497 -0.3197
   82CHL1    C2 8521   3.469   3.577   7.083  0.1216  0.5292 -0.5772
   82CHL1   H2A 8522   3.508   3.679   7.068  2.6540 -0.2774  0.2774
   82CHL1   H2B 8523   3.374   3.553   7.031  0.1778 -2.9031  0.7682
   82CHL1   C20 8524   3.341   3.188   7.912  0.1444 -0.2839  0.0100
   82CHL1   H20 8525   3.255   3.125   7.882  0.1446 -0.4597  0.3656
   82CHL1   C21 8526   3.275   3.328   7.949  0.3297  0.0755  0.5215
   82CHL1  H21A 8527   3.233   3.308   8.050  0.0428  0.5114  0.4904
   82CHL1  H21B 8528   3.202   3.361   7.872  2.3034 -0.6582 -1.7379
   82CHL1  H21C 8529   3.352   3.407   7.959 -1.2137  1.7914 -0.7620
   82CHL1   C22 8530   3.395   3.114   8.041 -0.0104 -0.4872 -0.2328
   82CHL1  H22A 8531   3.306   3.114   8.107 -0.7661 -0.7447 -1.2346
   82CHL1  H22B 8532   3.415   3.005   8.031 -1.0655 -0.6972 -0.0704
   82CHL1   C23 8533   3.509   3.176   8.129  0.4420  0.2712 -0.3229
   82CHL1  H23A 8534   3.598   3.172   8.062  1.3610  1.0522  0.8317
   82CHL1  H23B 8535   3.491   3.284   8.148  0.3119  0.1701  0.1380
   82CHL1   C24 8536   3.549   3.106   8.260  0.2349 -0.7176  0.2601
   82CHL1  H24A 8537   3.489   3.140   8.347  1.1198  0.4914  0.3954
   82CHL1  H24B 8538   3.527   2.997   8.248  0.6666 -0.8812  0.9409
   82CHL1   C25 8539   3.704   3.107   8.293  0.2228  0.2602 -0.4213
   82CHL1   H25 8540   3.758   3.075   8.201 -0.3705 -0.0276 -0.6719
   82CHL1   C26 8541   3.747   3.249   8.326  0.9054  0.1790 -0.1336
   82CHL1  H26A 8542   3.745   3.317   8.239 -2.7892 -1.9996 -1.8266
   82CHL1  H26B 8543   3.672   3.288   8.398  0.8913  1.6322 -0.9142
   82CHL1  H26C 8544   3.846   3.245   8.378  1.0670  0.0135 -0.4566
   82CHL1   C27 8545   3.740   2.998   8.397 -0.4756 -0.0023  0.5420
   82CHL1  H27A 8546   3.746   2.898   8.350  3.9522  0.1462  0.5920
   82CHL1  H27B 8547   3.843   3.016   8.435 -0.5330 -0.4762  0.9229
   82CHL1  H27C 8548   3.671   3.004   8.484  0.0113  2.4349  0.7944
   83CHL1    C3 8549   6.449   4.434   7.031 -1.0247  0.3959  0.0433
   83CHL1    H3 8550   6.554   4.467   7.042 -0.5681 -0.6434 -1.1702
   83CHL1    O3 8551   6.403   4.451   6.896 -0.1498 -0.2936 -0.0609
   83CHL1   H3' 8552   6.331   4.388   6.898 -0.5272  0.1218 -0.6160
   83CHL1    C4 8553   6.434   4.286   7.073  0.4048 -0.0286 -0.0937
   83CHL1   H4A 8554   6.333   4.252   7.044  0.6634  0.2020 -1.2913
   83CHL1   H4B 8555   6.499   4.214   7.018 -0.6850 -1.5360  0.5579
   83CHL1    C5 8556   6.456   4.274   7.225 -0.2481  0.0490  0.6366
   83CHL1    C6 8557   6.547   4.185   7.274  0.6707 -0.1623 -0.3620
   83CHL1    H6 8558   6.608   4.124   7.206  0.7221 -0.6198  0.0851
   83CHL1    C7 8559   6.567   4.164   7.427 -0.3772 -0.7396  0.1160
   83CHL1   H7A 8560   6.574   4.057   7.455  0.2364 -0.3949  1.3514
   83CHL1   H7B 8561   6.666   4.201   7.463 -1.5837  0.9922  1.8252
   83CHL1    C8 8562   6.446   4.213   7.510  0.3131 -0.2830  0.3401
   83CHL1    H8 8563   6.358   4.147   7.498  0.8997 -0.9010 -0.6960
   83CHL1   C14 8564   6.483   4.227   7.657 -0.0477 -0.2539  0.5341
   83CHL1   H14 8565   6.564   4.302   7.659 -1.4643  1.3105  0.0703
   83CHL1   C15 8566   6.550   4.103   7.718 -0.1304 -0.8260 -0.1806
   83CHL1  H15A 8567   6.494   4.010   7.693 -0.2694 -1.0365  0.9056
   83CHL1  H15B 8568   6.658   4.090   7.697  0.4606  1.3401  1.4081
   83CHL1   C16 8569   6.537   4.126   7.867 -0.0042 -0.5665 -0.0317
   83CHL1  H16A 8570   6.494   4.038   7.918 -0.5515 -0.5438 -0.4482
   83CHL1  H16B 8571   6.640   4.146   7.903 -0.1980  0.4113  0.0060
   83CHL1   C17 8572   6.442   4.250   7.886  0.4840 -0.2069 -0.5627
   83CHL1   H17 8573   6.518   4.328   7.906  2.0019 -1.8834  0.2339
   83CHL1   C13 8574   6.365   4.270   7.755 -0.2824  0.0588 -0.5779
   83CHL1   C18 8575   6.247   4.172   7.755  0.4694 -0.2090  0.5739
   83CHL1  H18A 8576   6.215   4.160   7.649 -0.4175  0.5843  0.7444
   83CHL1  H18B 8577   6.277   4.072   7.792  1.0896  0.6119  2.3489
   83CHL1  H18C 8578   6.155   4.221   7.794 -0.3916 -1.0501 -0.3793
   83CHL1   C12 8579   6.329   4.411   7.709 -0.2463  0.3464 -0.4089
   83CHL1  H12A 8580   6.238   4.439   7.767 -0.6141  2.7004 -2.0355
   83CHL1  H12B 8581   6.413   4.480   7.730  1.5228 -1.5929 -1.0185
   83CHL1   C11 8582   6.293   4.414   7.560 -0.6360 -0.5010 -0.4418
   83CHL1  H11A 8583   6.198   4.357   7.548 -0.4780 -0.6912 -0.7757
   83CHL1  H11B 8584   6.277   4.519   7.526 -1.3452 -0.6200 -0.4949
   83CHL1    C9 8585   6.400   4.354   7.465 -0.0410 -0.4159 -0.3026
   83CHL1    H9 8586   6.487   4.423   7.469  0.1823 -0.7096 -0.0385
   83CHL1   C10 8587   6.363   4.358   7.317  0.8027  0.0436  0.3880
   83CHL1   C19 8588   6.208   4.330   7.298 -0.6728  0.0092 -0.4525
   83CHL1  H19A 8589   6.192   4.226   7.332 -1.2152  0.2996  0.2076
   83CHL1  H19B 8590   6.135   4.399   7.346 -1.4183 -1.8793  1.2086
   83CHL1  H19C 8591   6.183   4.335   7.189  4.6130 -0.3903 -1.7852
   83CHL1    C1 8592   6.387   4.510   7.268  0.1296 -0.9064  0.1250
   83CHL1   H1A 8593   6.331   4.588   7.325  0.7774 -1.6164  1.7657
   83CHL1   H1B 8594   6.494   4.537   7.280  0.1239 -1.6742  2.0801
   83CHL1    C2 8595   6.356   4.531   7.113 -0.5148 -0.7197 -0.7901
   83CHL1   H2A 8596   6.388   4.634   7.083 -2.1524 -0.0663 -0.3334
   83CHL1   H2B 8597   6.247   4.521   7.095 -0.9897  0.4470  1.2705
   83CHL1   C20 8598   6.361   4.240   8.015 -0.2926 -0.1512 -0.6151
   83CHL1   H20 8599   6.277   4.167   8.009 -1.9096  1.5061  1.1934
   83CHL1   C21 8600   6.310   4.381   8.050 -0.2877  0.0642 -0.2360
   83CHL1  H21A 8601   6.380   4.467   8.040 -0.2806 -0.1101 -1.7918
   83CHL1  H21B 8602   6.266   4.382   8.152 -0.5872  1.2914 -0.3699
   83CHL1  H21C 8603   6.225   4.402   7.982 -0.1824  0.0327 -0.3783
   83CHL1   C22 8604   6.442   4.186   8.137  0.1838 -0.0446  0.3609
   83CHL1  H22A 8605   6.475   4.080   8.122 -0.4201 -0.2775  0.6631
   83CHL1  H22B 8606   6.539   4.239   8.147 -0.5988  1.3812  0.4422
   83CHL1   C23 8607   6.369   4.194   8.270  0.1282  0.4108  0.2217
   83CHL1  H23A 8608   6.368   4.301   8.298 -1.9114  1.2506 -2.7755
   83CHL1  H23B 8609   6.262   4.163   8.263  0.1869  0.0767  0.7974
   83CHL1   C24 8610   6.435   4.126   8.381 -0.0009 -0.4016  0.0876
   83CHL1  H24A 8611   6.413   4.017   8.385  1.2115 -0.6618 -0.1484
   83CHL1  H24B 8612   6.544   4.147   8.374  0.3357 -1.3334  2.0078
   83CHL1   C25 8613   6.397   4.166   8.523  0.9158  0.4695 -0.4928
   83CHL1   H25 8614   6.399   4.276   8.535  1.3555  0.3381  0.6846
   83CHL1   C26 8615   6.259   4.110   8.570 -0.2020 -0.6628  0.3145
   83CHL1  H26A 8616   6.252   3.999   8.580 -0.7227 -0.8321 -1.8123
   83CHL1  H26B 8617   6.237   4.162   8.666  0.6704 -0.2379  0.2826
   83CHL1  H26C 8618   6.182   4.156   8.505  0.1443  2.8148  2.2497
   83CHL1   C27 8619   6.493   4.112   8.631  0.0822  0.5992  0.5438
   83CHL1  H27A 8620   6.459   4.020   8.684 -1.6142  1.3713  0.8271
   83CHL1  H27B 8621   6.595   4.096   8.591 -0.9240 -2.3295 -0.9730
   83CHL1  H27C 8622   6.504   4.179   8.718 -1.9024  0.7187  0.7401
   84CHL1    C3 8623   1.747   0.351   7.030  0.2140 -0.0685 -0.3135
   84CHL1    H3 8624   1.664   0.424   7.029 -0.0077 -0.3416 -2.5882
   84CHL1    O3 8625   1.794   0.339   6.895  0.3042 -0.2099 -0.4054
   84CHL1   H3' 8626   1.718   0.306   6.847 -0.6055 -2.0038  2.2118
   84CHL1    C4 8627   1.858   0.414   7.114 -0.0419 -0.8549 -0.1463
   84CHL1   H4A 8628   1.952   0.355   7.111  1.4462  1.4021  0.6356
   84CHL1   H4B 8629   1.882   0.515   7.074  0.6502 -0.9599 -0.0119
   84CHL1    C5 8630   1.840   0.425   7.267 -0.1705 -0.2651  0.2989
   84CHL1    C6 8631   1.855   0.539   7.342  1.2557 -0.4193  0.3026
   84CHL1    H6 8632   1.871   0.639   7.298 -2.1713  1.0831  2.2028
   84CHL1    C7 8633   1.837   0.540   7.493 -0.0210  0.8353 -0.3712
   84CHL1   H7A 8634   1.922   0.596   7.537 -0.2119 -0.6325  1.9938
   84CHL1   H7B 8635   1.744   0.591   7.528  0.9992  1.3024  1.7767
   84CHL1    C8 8636   1.843   0.400   7.553 -0.4966 -0.0309  0.3118
   84CHL1    H8 8637   1.950   0.370   7.543 -0.3496  0.5550  0.0417
   84CHL1   C14 8638   1.797   0.402   7.699 -0.1278  0.1326 -0.0959
   84CHL1   H14 8639   1.694   0.443   7.694  0.2639  1.0950 -0.5839
   84CHL1   C15 8640   1.864   0.502   7.792 -0.8098  0.8375 -0.1963
   84CHL1  H15A 8641   1.970   0.513   7.760 -0.7390 -0.4430 -0.4179
   84CHL1  H15B 8642   1.821   0.605   7.790  0.9520  1.6463  1.5133
   84CHL1   C16 8643   1.845   0.436   7.926  0.2579  0.1988 -0.4484
   84CHL1  H16A 8644   1.948   0.430   7.968 -0.4473  0.5834  1.3986
   84CHL1  H16B 8645   1.787   0.506   7.991  0.0423  0.7442 -1.2187
   84CHL1   C17 8646   1.761   0.309   7.908 -0.4563  0.3102 -0.5884
   84CHL1   H17 8647   1.656   0.345   7.916 -1.6784 -2.3529 -3.5038
   84CHL1   C13 8648   1.794   0.267   7.769  0.1688  0.0394  0.0309
   84CHL1   C18 8649   1.930   0.206   7.765 -0.0804  0.4557 -0.1700
   84CHL1  H18A 8650   2.000   0.251   7.839  2.0029  2.5245 -3.2478
   84CHL1  H18B 8651   1.922   0.096   7.780  1.1646 -0.1158 -3.3015
   84CHL1  H18C 8652   1.987   0.233   7.673  1.0007 -0.0012  0.3583
   84CHL1   C12 8653   1.683   0.189   7.692 -0.0381 -0.0870 -0.5442
   84CHL1  H12A 8654   1.657   0.097   7.750  0.1316  0.2695  0.1062
   84CHL1  H12B 8655   1.591   0.250   7.684 -0.1604 -0.2421 -0.3393
   84CHL1   C11 8656   1.721   0.166   7.547  0.1613 -0.1441 -0.3438
   84CHL1  H11A 8657   1.804   0.093   7.551  0.5417  0.3682  2.6020
   84CHL1  H11B 8658   1.637   0.123   7.489  0.4875 -1.9368  0.4771
   84CHL1    C9 8659   1.753   0.303   7.475  0.7544 -0.3513  0.3825
   84CHL1    H9 8660   1.653   0.351   7.470  1.0803  0.2461 -0.6316
   84CHL1   C10 8661   1.799   0.290   7.327 -0.5097  0.0414 -0.0904
   84CHL1   C19 8662   1.922   0.188   7.325 -0.1970 -0.7621 -0.8551
   84CHL1  H19A 8663   2.011   0.236   7.372 -1.5784  0.2422  0.7853
   84CHL1  H19B 8664   1.897   0.088   7.366 -1.6268 -0.3273 -0.6323
   84CHL1  H19C 8665   1.945   0.171   7.218  0.6772  0.1075 -0.8198
   84CHL1    C1 8666   1.682   0.220   7.241 -0.3964  0.2214  0.4113
   84CHL1   H1A 8667   1.678   0.113   7.270 -0.6090 -0.0506 -0.6190
   84CHL1   H1B 8668   1.586   0.272   7.261  0.6631  1.7127  1.8173
   84CHL1    C2 8669   1.709   0.210   7.087  0.2254 -0.4119  0.1140
   84CHL1   H2A 8670   1.622   0.163   7.036 -1.3035  0.0096  2.2396
   84CHL1   H2B 8671   1.784   0.132   7.062  0.8813  0.3058 -0.1855
   84CHL1   C20 8672   1.782   0.207   8.022  0.5185  0.0261 -0.0262
   84CHL1   H20 8673   1.886   0.168   8.011  0.9280  0.7860  1.0731
   84CHL1   C21 8674   1.688   0.082   8.009  0.4459 -0.1147  0.0374
   84CHL1  H21A 8675   1.726   0.024   7.923 -2.4017 -0.3708 -1.1080
   84CHL1  H21B 8676   1.581   0.104   7.989 -0.3396 -2.7735  1.1216
   84CHL1  H21C 8677   1.687   0.021   8.102  0.0839  2.3679  1.7117
   84CHL1   C22 8678   1.776   0.275   8.164 -0.2828 -0.0285 -0.1410
   84CHL1  H22A 8679   1.780   0.192   8.237  3.7303 -0.3863 -0.6467
   84CHL1  H22B 8680   1.873   0.326   8.180 -0.8733  1.3552 -0.8288
   84CHL1   C23 8681   1.646   0.359   8.189 -0.2792  0.1460  0.0815
   84CHL1  H23A 8682   1.640   0.452   8.129  1.0732  0.3285  0.2236
   84CHL1  H23B 8683   1.556   0.298   8.162 -0.0160 -0.9211  1.5688
   84CHL1   C24 8684   1.628   0.411   8.337  0.4577  0.4590 -0.6129
   84CHL1  H24A 8685   1.538   0.476   8.342 -0.5741 -1.0363  1.0565
   84CHL1  H24B 8686   1.600   0.325   8.402  0.3921  0.2748 -0.8896
   84CHL1   C25 8687   1.737   0.505   8.386  0.1816  0.0796 -0.2049
   84CHL1   H25 8688   1.692   0.566   8.468 -0.8849  0.2661 -0.9140
   84CHL1   C26 8689   1.858   0.432   8.451  0.3378 -0.5349  0.1822
   84CHL1  H26A 8690   1.938   0.505   8.479  0.6849  0.3493 -2.9159
   84CHL1  H26B 8691   1.821   0.366   8.532 -0.3302  1.4391  1.5262
   84CHL1  H26C 8692   1.904   0.368   8.372  0.0612 -1.1972  0.5611
   84CHL1   C27 8693   1.777   0.606   8.278 -0.2522 -0.1078 -0.3408
   84CHL1  H27A 8694   1.688   0.663   8.244 -0.7940 -1.2449 -0.8586
   84CHL1  H27B 8695   1.834   0.688   8.326  0.3416 -1.6409  1.6242
   84CHL1  H27C 8696   1.830   0.557   8.193 -3.1271 -0.3203 -2.0742
   85CHL1    C3 8697   1.122   4.358   6.653  0.1741  0.4637 -0.0903
   85CHL1    H3 8698   1.051   4.443   6.656 -0.6632 -0.2084 -0.5781
   85CHL1    O3 8699   1.141   4.313   6.526  0.6269 -0.3162 -0.2139
   85CHL1   H3' 8700   1.175   4.226   6.544 -2.3179 -1.9553 -2.1508
   85CHL1    C4 8701   1.263   4.397   6.704  0.6869  0.3350  0.5174
   85CHL1   H4A 8702   1.337   4.317   6.682 -1.0541 -1.0433 -0.4386
   85CHL1   H4B 8703   1.301   4.483   6.645  0.3105 -1.0308 -1.7750
   85CHL1    C5 8704   1.279   4.426   6.848  0.0171 -0.8481 -0.6549
   85CHL1    C6 8705   1.338   4.537   6.890 -0.0327  0.2154  0.0184
   85CHL1    H6 8706   1.370   4.608   6.812 -1.6042  0.5610 -0.3308
   85CHL1    C7 8707   1.359   4.571   7.036  0.8376 -0.3690 -0.5306
   85CHL1   H7A 8708   1.463   4.607   7.051  0.5028  0.6733 -0.6693
   85CHL1   H7B 8709   1.289   4.653   7.064  0.0885 -0.2554 -2.6846
   85CHL1    C8 8710   1.321   4.456   7.137  0.4054 -0.1602 -0.5827
   85CHL1    H8 8711   1.404   4.383   7.145  1.9629  1.6582  0.2200
   85CHL1   C14 8712   1.296   4.514   7.270  0.0106  0.7620  0.1905
   85CHL1   H14 8713   1.215   4.587   7.248  0.7523  1.2010 -1.1323
   85CHL1   C15 8714   1.409   4.597   7.341 -0.7025  0.4756 -0.1144
   85CHL1  H15A 8715   1.510   4.551   7.339 -0.8331  0.1779  0.1723
   85CHL1  H15B 8716   1.413   4.702   7.304 -1.4017  0.7837  0.6877
   85CHL1   C16 8717   1.375   4.591   7.487  0.0735 -0.5328  0.2135
   85CHL1  H16A 8718   1.450   4.530   7.541  0.4602  0.6914  1.0756
   85CHL1  H16B 8719   1.359   4.692   7.530  0.7581 -0.6434  0.7414
   85CHL1   C17 8720   1.251   4.495   7.496 -0.1713  0.2718 -0.6102
   85CHL1   H17 8721   1.165   4.566   7.492  0.9654  1.5790 -2.5622
   85CHL1   C13 8722   1.248   4.410   7.373  0.0587  0.6208  0.2571
   85CHL1   C18 8723   1.352   4.301   7.398 -0.7371 -0.6874 -0.5732
   85CHL1  H18A 8724   1.351   4.225   7.317 -2.2969 -1.5003  0.1900
   85CHL1  H18B 8725   1.454   4.334   7.427 -0.5430 -0.5253 -1.4104
   85CHL1  H18C 8726   1.315   4.237   7.481 -0.4025  0.5719  0.5486
   85CHL1   C12 8727   1.118   4.344   7.330 -0.0270 -0.3754 -0.2390
   85CHL1  H12A 8728   1.095   4.253   7.391  0.0293 -0.1653  0.0960
   85CHL1  H12B 8729   1.028   4.407   7.342 -1.2018 -2.1978  0.8648
   85CHL1   C11 8730   1.131   4.284   7.186  0.0368  0.4780  0.9949
   85CHL1  H11A 8731   1.179   4.184   7.190 -1.4269 -0.4222 -2.5540
   85CHL1  H11B 8732   1.023   4.265   7.163  0.6473 -0.9044 -0.8607
   85CHL1    C9 8733   1.196   4.381   7.089 -0.1717 -0.9276 -0.6011
   85CHL1    H9 8734   1.118   4.458   7.072  1.3087  0.4319 -1.4186
   85CHL1   C10 8735   1.212   4.324   6.944 -0.3047  0.2431  0.4053
   85CHL1   C19 8736   1.301   4.192   6.956 -0.4926 -0.2372  0.6715
   85CHL1  H19A 8737   1.338   4.156   6.857  2.5936 -0.7689  1.9540
   85CHL1  H19B 8738   1.397   4.221   7.004  0.2302 -1.6798  0.1408
   85CHL1  H19C 8739   1.261   4.109   7.019 -1.3413 -1.9447 -2.0284
   85CHL1    C1 8740   1.077   4.283   6.884 -0.3093 -0.0232  0.1069
   85CHL1   H1A 8741   1.026   4.205   6.946 -0.1507  1.0568  1.6307
   85CHL1   H1B 8742   1.010   4.370   6.901  0.6021  0.5107  1.0283
   85CHL1    C2 8743   1.070   4.242   6.736  0.4026 -0.0815  0.1227
   85CHL1   H2A 8744   0.967   4.214   6.706  0.1572 -1.1511  1.8879
   85CHL1   H2B 8745   1.139   4.155   6.737  0.5727  0.0511  0.0435
   85CHL1   C20 8746   1.229   4.441   7.639 -0.1953 -0.0677 -0.4898
   85CHL1   H20 8747   1.304   4.361   7.659 -0.7246  0.2572  3.3390
   85CHL1   C21 8748   1.089   4.390   7.656  0.5239  0.0499 -0.3765
   85CHL1  H21A 8749   1.082   4.327   7.747  0.6888  0.8010  0.1687
   85CHL1  H21B 8750   1.058   4.328   7.570 -1.0282 -0.0253  0.2150
   85CHL1  H21C 8751   1.017   4.474   7.672  1.9489  1.3606 -0.6385
   85CHL1   C22 8752   1.264   4.547   7.748  0.1735 -0.2544 -0.1021
   85CHL1  H22A 8753   1.351   4.606   7.712 -0.7093  0.4525 -1.1341
   85CHL1  H22B 8754   1.176   4.615   7.749 -0.8307 -1.5445  1.5124
   85CHL1   C23 8755   1.269   4.488   7.887 -0.6975 -0.8409  0.6840
   85CHL1  H23A 8756   1.189   4.416   7.915  0.7331 -2.0741  1.6852
   85CHL1  H23B 8757   1.360   4.425   7.894 -0.9481 -1.5160 -1.7764
   85CHL1   C24 8758   1.263   4.606   7.991 -0.0875 -0.2643  0.0716
   85CHL1  H24A 8759   1.362   4.656   8.001  0.2447 -1.1611  1.2653
   85CHL1  H24B 8760   1.200   4.686   7.946 -0.1839 -1.0902 -1.2823
   85CHL1   C25 8761   1.212   4.558   8.126  0.1967  0.5231 -0.4964
   85CHL1   H25 8762   1.128   4.491   8.096  1.2126 -0.5739 -0.9386
   85CHL1   C26 8763   1.319   4.470   8.195  0.2623  0.0513  0.0743
   85CHL1  H26A 8764   1.274   4.424   8.285  1.0695  3.1814  2.1363
   85CHL1  H26B 8765   1.360   4.393   8.125 -0.3617  0.4550 -0.7521
   85CHL1  H26C 8766   1.400   4.531   8.239  0.0084 -1.4474  2.7554
   85CHL1   C27 8767   1.169   4.678   8.217 -0.7272  0.5198 -0.4604
   85CHL1  H27A 8768   1.072   4.729   8.197 -1.0062 -0.2852 -1.1664
   85CHL1  H27B 8769   1.156   4.636   8.319  0.3005 -3.6468 -1.9414
   85CHL1  H27C 8770   1.254   4.748   8.227  0.1903 -0.5967 -0.3908
   86CHL1    C3 8771   3.473   2.628   6.966  0.3395  0.6100 -0.5254
   86CHL1    H3 8772   3.402   2.713   6.970 -1.5971 -0.9447 -0.9278
   86CHL1    O3 8773   3.514   2.614   6.832 -0.5027 -0.3220  0.4689
   86CHL1   H3' 8774   3.576   2.541   6.829  0.7085  0.7041 -0.0636
   86CHL1    C4 8775   3.596   2.668   7.051  0.4604 -0.1409  1.0027
   86CHL1   H4A 8776   3.685   2.613   7.014 -0.2078 -1.0807  0.7501
   86CHL1   H4B 8777   3.610   2.774   7.021  0.8349 -1.1017 -2.4097
   86CHL1    C5 8778   3.570   2.639   7.197  0.0115 -0.3673 -0.6698
   86CHL1    C6 8779   3.589   2.736   7.286  0.0893 -0.6290  0.0529
   86CHL1    H6 8780   3.638   2.831   7.259 -0.4811  0.0340  1.2645
   86CHL1    C7 8781   3.573   2.709   7.434  0.5315 -0.1168 -0.2388
   86CHL1   H7A 8782   3.655   2.755   7.493  1.3459 -1.1861 -0.5233
   86CHL1   H7B 8783   3.480   2.757   7.471  0.3176 -0.2618 -0.5807
   86CHL1    C8 8784   3.576   2.556   7.483 -0.4429 -0.1119  0.5175
   86CHL1    H8 8785   3.675   2.507   7.474 -0.5627 -0.1991 -0.3329
   86CHL1   C14 8786   3.513   2.555   7.613  0.3936  0.2753  0.1610
   86CHL1   H14 8787   3.404   2.574   7.596  0.3840 -1.2697 -1.7796
   86CHL1   C15 8788   3.560   2.652   7.726 -0.0140  0.2786 -0.2791
   86CHL1  H15A 8789   3.668   2.645   7.749 -0.1283  1.2950  0.5873
   86CHL1  H15B 8790   3.525   2.754   7.697  0.3317  0.6843  0.6907
   86CHL1   C16 8791   3.486   2.595   7.852 -0.6070  0.1842  1.0008
   86CHL1  H16A 8792   3.548   2.583   7.943 -0.2004 -2.5845  0.3919
   86CHL1  H16B 8793   3.404   2.669   7.869  0.1987  1.3698 -0.1733
   86CHL1   C17 8794   3.428   2.453   7.805  0.5083 -0.5358  0.1508
   86CHL1   H17 8795   3.320   2.469   7.786  0.2895  1.6998  2.9502
   86CHL1   C13 8796   3.505   2.406   7.675 -0.1833  0.0868  0.4663
   86CHL1   C18 8797   3.640   2.355   7.718 -0.2106  0.6574  0.0648
   86CHL1  H18A 8798   3.684   2.400   7.810  0.0340 -0.7277  0.6509
   86CHL1  H18B 8799   3.628   2.246   7.740 -1.3705  0.9997  1.2130
   86CHL1  H18C 8800   3.728   2.366   7.651  0.7369 -2.0696  0.8054
   86CHL1   C12 8801   3.435   2.307   7.576 -1.1519  0.1089 -0.1274
   86CHL1  H12A 8802   3.464   2.204   7.606  1.4621  1.4067  2.0874
   86CHL1  H12B 8803   3.324   2.319   7.586 -1.0661  0.8188  0.0391
   86CHL1   C11 8804   3.466   2.331   7.425  0.2776  0.2120  0.3720
   86CHL1  H11A 8805   3.562   2.275   7.415 -0.0743 -0.1543 -1.0798
   86CHL1  H11B 8806   3.401   2.278   7.352 -1.1385  1.1547  0.9430
   86CHL1    C9 8807   3.486   2.478   7.386 -0.2875 -0.2538 -0.2162
   86CHL1    H9 8808   3.388   2.531   7.391 -0.9486 -1.0848 -3.2966
   86CHL1   C10 8809   3.525   2.490   7.236 -0.0621  0.6195 -0.1129
   86CHL1   C19 8810   3.638   2.388   7.195 -0.1490 -0.2236  0.1552
   86CHL1  H19A 8811   3.664   2.405   7.089  1.5229  1.4238  0.8046
   86CHL1  H19B 8812   3.727   2.416   7.255  0.2851  2.9843 -1.8752
   86CHL1  H19C 8813   3.619   2.279   7.208  0.2180 -0.2948  0.0907
   86CHL1    C1 8814   3.397   2.471   7.151 -0.5891  0.2223 -0.6872
   86CHL1   H1A 8815   3.370   2.364   7.165  2.2068 -0.5873 -1.2471
   86CHL1   H1B 8816   3.321   2.538   7.197  1.7158  0.9327  2.1656
   86CHL1    C2 8817   3.416   2.491   7.006 -0.1885 -0.0203 -0.6602
   86CHL1   H2A 8818   3.315   2.476   6.962 -0.8878 -0.4100  1.0281
   86CHL1   H2B 8819   3.475   2.405   6.967 -0.5192 -0.8290  0.6050
   86CHL1   C20 8820   3.437   2.346   7.920  0.3974  0.3670 -0.3615
   86CHL1   H20 8821   3.543   2.322   7.946 -0.0549 -1.4826 -0.1659
   86CHL1   C21 8822   3.376   2.211   7.880  0.3442 -0.6576 -0.2335
   86CHL1  H21A 8823   3.434   2.168   7.796  0.9243  0.7381 -0.5562
   86CHL1  H21B 8824   3.268   2.231   7.861  1.0642  1.6174 -2.2042
   86CHL1  H21C 8825   3.386   2.139   7.964 -2.2455 -1.3145 -0.4499
   86CHL1   C22 8826   3.366   2.396   8.044 -0.1756  0.4675  0.3249
   86CHL1  H22A 8827   3.414   2.490   8.078 -0.7346  1.7913 -2.4399
   86CHL1  H22B 8828   3.259   2.416   8.020 -0.1391  0.7628  0.4160
   86CHL1   C23 8829   3.377   2.309   8.171 -0.8063  0.5471 -0.0326
   86CHL1  H23A 8830   3.310   2.223   8.150  2.2517 -2.2407  1.2579
   86CHL1  H23B 8831   3.480   2.270   8.182 -1.5143 -1.4375 -0.1569
   86CHL1   C24 8832   3.327   2.374   8.299 -0.0744  0.5159 -0.0032
   86CHL1  H24A 8833   3.383   2.470   8.309 -0.8847  0.9220  0.6857
   86CHL1  H24B 8834   3.219   2.397   8.289  0.3620  2.3175 -0.7950
   86CHL1   C25 8835   3.359   2.291   8.434 -0.6244  0.1345 -0.0187
   86CHL1   H25 8836   3.468   2.269   8.442 -0.6216  0.3041  0.4075
   86CHL1   C26 8837   3.321   2.368   8.561 -0.5118  0.3647 -0.2675
   86CHL1  H26A 8838   3.212   2.378   8.580 -0.6899  1.1495 -1.6687
   86CHL1  H26B 8839   3.359   2.307   8.646 -1.1231  2.1259  1.3323
   86CHL1  H26C 8840   3.359   2.472   8.575 -0.5470 -0.0500  3.4036
   86CHL1   C27 8841   3.281   2.154   8.441 -0.4723  0.4893 -0.4638
   86CHL1  H27A 8842   3.325   2.094   8.524 -3.0716  0.7681  1.1744
   86CHL1  H27B 8843   3.174   2.177   8.461 -0.1496  2.5091 -0.9306
   86CHL1  H27C 8844   3.293   2.104   8.343 -0.6804  0.9987 -0.7511
   87CHL1    C3 8845   3.718   1.148   6.962 -0.7735  0.0389 -0.7294
   87CHL1    H3 8846   3.736   1.235   7.028 -3.5924 -1.5621  2.2994
   87CHL1    O3 8847   3.747   1.172   6.822  1.2207  0.5815  0.1632
   87CHL1   H3' 8848   3.825   1.228   6.824  1.0124  0.9942 -2.1925
   87CHL1    C4 8849   3.800   1.020   7.006 -0.3436 -0.0346  0.5569
   87CHL1   H4A 8850   3.788   0.939   6.932  0.0343  0.2752  0.1515
   87CHL1   H4B 8851   3.905   1.055   7.000 -0.1070 -1.0893 -1.8285
   87CHL1    C5 8852   3.754   0.975   7.150  0.2452 -0.8183 -1.0244
   87CHL1    C6 8853   3.836   0.960   7.255  0.1352 -0.1718 -0.5986
   87CHL1    H6 8854   3.945   0.968   7.240  0.0910 -1.5609 -1.7118
   87CHL1    C7 8855   3.793   0.930   7.397 -0.3296 -0.1956  1.0518
   87CHL1   H7A 8856   3.869   0.861   7.440  0.5544 -1.0603 -1.7869
   87CHL1   H7B 8857   3.786   1.021   7.462 -1.7201  0.8914 -0.5773
   87CHL1    C8 8858   3.649   0.856   7.398 -0.1019  0.8393  0.2446
   87CHL1    H8 8859   3.652   0.757   7.349 -2.6459 -0.6912  3.0605
   87CHL1   C14 8860   3.606   0.849   7.541 -0.1622 -0.5092  0.0929
   87CHL1   H14 8861   3.612   0.951   7.585  0.8770 -0.6474  0.2858
   87CHL1   C15 8862   3.692   0.769   7.641 -0.5833 -0.2207  0.5782
   87CHL1  H15A 8863   3.721   0.668   7.606 -2.1571 -0.2336 -0.7376
   87CHL1  H15B 8864   3.787   0.820   7.667 -1.3948  1.2832  0.6226
   87CHL1   C16 8865   3.607   0.760   7.766  0.2139  0.0135 -1.0457
   87CHL1  H16A 8866   3.609   0.659   7.811 -1.8503  0.2207 -0.3937
   87CHL1  H16B 8867   3.636   0.835   7.842 -2.1544  0.1120 -0.1962
   87CHL1   C17 8868   3.457   0.793   7.720 -0.2666 -0.0492 -0.6320
   87CHL1   H17 8869   3.448   0.898   7.754 -0.7115  0.7339 -3.0622
   87CHL1   C13 8870   3.465   0.794   7.566  0.4828  0.3906 -0.1050
   87CHL1   C18 8871   3.437   0.649   7.521  0.0049  0.8355 -0.7698
   87CHL1  H18A 8872   3.453   0.627   7.414 -2.2498 -2.0158 -0.6078
   87CHL1  H18B 8873   3.499   0.579   7.581 -1.2975 -0.1414 -0.5426
   87CHL1  H18C 8874   3.333   0.621   7.552  1.5408 -0.7803  3.2591
   87CHL1   C12 8875   3.363   0.881   7.490  0.0692 -0.6853 -0.5222
   87CHL1  H12A 8876   3.259   0.843   7.496 -0.1039  0.0581  1.7697
   87CHL1  H12B 8877   3.372   0.979   7.541 -0.1489 -0.7457 -0.3668
   87CHL1   C11 8878   3.401   0.903   7.341  0.0693 -1.2325  0.2573
   87CHL1  H11A 8879   3.380   0.808   7.287  0.5394 -1.1559 -0.0642
   87CHL1  H11B 8880   3.332   0.982   7.303  1.7450  0.8720  1.5020
   87CHL1    C9 8881   3.554   0.937   7.314 -0.1744  0.2702 -0.1834
   87CHL1    H9 8882   3.562   1.042   7.351  0.8934  0.7481 -1.7439
   87CHL1   C10 8883   3.599   0.951   7.167  0.6292  0.9191 -0.3247
   87CHL1   C19 8884   3.551   0.824   7.087  0.8491  0.6147  0.0295
   87CHL1  H19A 8885   3.580   0.730   7.138  2.2598 -0.1464 -2.1071
   87CHL1  H19B 8886   3.443   0.837   7.062  1.3661  1.1648 -1.9956
   87CHL1  H19C 8887   3.598   0.835   6.987  1.1315 -0.9926 -0.0292
   87CHL1    C1 8888   3.521   1.080   7.109 -0.1489  0.2176  0.1751
   87CHL1   H1A 8889   3.411   1.065   7.102  0.0411 -1.9844  1.4577
   87CHL1   H1B 8890   3.537   1.163   7.182  0.4038  0.4984 -0.2635
   87CHL1    C2 8891   3.572   1.128   6.972 -0.1696 -0.0939 -0.1769
   87CHL1   H2A 8892   3.515   1.218   6.943 -3.5335 -1.5655  1.6015
   87CHL1   H2B 8893   3.549   1.050   6.896  1.9163 -1.7097  0.7770
   87CHL1   C20 8894   3.353   0.721   7.809 -0.8988  0.5017  0.7939
   87CHL1   H20 8895   3.363   0.613   7.786 -1.1121  0.6879 -0.1844
   87CHL1   C21 8896   3.210   0.771   7.772  0.3396  0.3104  0.0086
   87CHL1  H21A 8897   3.177   0.730   7.675  1.5167  0.9911 -0.6979
   87CHL1  H21B 8898   3.200   0.881   7.785  1.0641  0.1904  1.7280
   87CHL1  H21C 8899   3.131   0.728   7.837 -0.5255  0.2237 -1.0955
   87CHL1   C22 8900   3.375   0.743   7.955 -0.0471 -0.6618 -0.5337
   87CHL1  H22A 8901   3.474   0.717   7.997  0.3966  2.0349  0.1579
   87CHL1  H22B 8902   3.357   0.852   7.961 -0.1480 -0.6269 -1.4130
   87CHL1   C23 8903   3.272   0.679   8.049  0.6694 -0.0710 -0.0007
   87CHL1  H23A 8904   3.178   0.736   8.036  0.0257 -0.7111  1.6854
   87CHL1  H23B 8905   3.252   0.570   8.044  0.4649 -0.0847  1.1760
   87CHL1   C24 8906   3.308   0.703   8.193 -0.2610 -1.0045 -0.1520
   87CHL1  H24A 8907   3.393   0.641   8.226  0.8651 -0.4950 -2.0265
   87CHL1  H24B 8908   3.337   0.810   8.200 -1.6918 -0.6713  1.1755
   87CHL1   C25 8909   3.196   0.671   8.292 -0.1988  0.1891  0.4342
   87CHL1   H25 8910   3.169   0.566   8.272  4.3107 -0.8631 -0.6768
   87CHL1   C26 8911   3.244   0.689   8.444 -0.7489 -0.5186  0.2868
   87CHL1  H26A 8912   3.252   0.798   8.464  1.0402 -0.8537  1.4609
   87CHL1  H26B 8913   3.156   0.656   8.503 -0.3335 -0.9935  0.6414
   87CHL1  H26C 8914   3.338   0.633   8.462  0.5504  1.5586  0.0405
   87CHL1   C27 8915   3.077   0.762   8.279  0.2362 -0.5697 -0.0241
   87CHL1  H27A 8916   2.998   0.741   8.356 -0.8221  0.6448 -0.7693
   87CHL1  H27B 8917   3.095   0.867   8.310  0.0298 -0.9971  1.6295
   87CHL1  H27C 8918   3.037   0.751   8.176  2.2934  0.9187 -0.9913
   88CHL1    C3 8919   0.955   5.662   6.980  0.1420 -0.1661 -0.1678
   88CHL1    H3 8920   1.065   5.651   6.980  0.1753 -0.5566  4.0394
   88CHL1    O3 8921   0.905   5.658   6.849  0.3571 -0.7140  0.4996
   88CHL1   H3' 8922   0.811   5.649   6.866  0.3065  1.2080  1.2713
   88CHL1    C4 8923   0.895   5.550   7.067  0.2839 -0.1528  0.3691
   88CHL1   H4A 8924   0.786   5.537   7.049 -0.1084  1.0549  1.7276
   88CHL1   H4B 8925   0.945   5.460   7.026 -1.0379 -0.8135  0.1864
   88CHL1    C5 8926   0.916   5.564   7.219  0.3564  0.3500  0.1843
   88CHL1    C6 8927   0.979   5.469   7.297  0.3626 -0.0948 -0.0425
   88CHL1    H6 8928   1.016   5.381   7.243  1.3100  0.6946 -0.6884
   88CHL1    C7 8929   1.009   5.484   7.446  0.5308 -0.0379  0.2302
   88CHL1   H7A 8930   0.986   5.400   7.514  0.8358 -0.1122  0.2453
   88CHL1   H7B 8931   1.116   5.507   7.466  0.4250  0.4582  0.2450
   88CHL1    C8 8932   0.920   5.600   7.499  0.4387  0.6452  0.9112
   88CHL1    H8 8933   0.813   5.573   7.486  0.6475  1.3854 -2.7016
   88CHL1   C14 8934   0.946   5.626   7.645  0.1352  0.2447  0.0889
   88CHL1   H14 8935   1.053   5.655   7.632 -0.4992  1.5732 -2.4906
   88CHL1   C15 8936   0.933   5.502   7.737  1.0936  0.0091 -0.6249
   88CHL1  H15A 8937   0.844   5.442   7.707  1.1794  0.4138 -1.7250
   88CHL1  H15B 8938   1.014   5.426   7.733 -1.9386 -3.3464 -0.8218
   88CHL1   C16 8939   0.925   5.556   7.882  0.4966  0.3737  0.0532
   88CHL1  H16A 8940   0.827   5.535   7.929 -1.3063  1.3567 -3.1318
   88CHL1  H16B 8941   1.007   5.516   7.947 -0.1622 -2.0528 -0.5703
   88CHL1   C17 8942   0.921   5.716   7.864 -0.0092  0.1534 -0.1837
   88CHL1   H17 8943   1.025   5.754   7.868 -0.5062  1.7295 -1.5636
   88CHL1   C13 8944   0.869   5.736   7.712 -0.1174  0.4166 -0.4077
   88CHL1   C18 8945   0.718   5.703   7.703 -0.6360 -0.8551 -0.3237
   88CHL1  H18A 8946   0.654   5.782   7.748  0.4157 -0.7206  0.9542
   88CHL1  H18B 8947   0.686   5.697   7.597 -0.0306  0.4910 -0.5925
   88CHL1  H18C 8948   0.693   5.612   7.762  0.6677 -0.7460  0.4115
   88CHL1   C12 8949   0.899   5.873   7.642  0.7839  0.8243  0.0430
   88CHL1  H12A 8950   0.857   5.970   7.675 -0.7962 -0.0382  0.5769
   88CHL1  H12B 8951   1.010   5.885   7.642  0.9144 -0.2917  0.6458
   88CHL1   C11 8952   0.868   5.853   7.491  0.0365  0.8837  0.7082
   88CHL1  H11A 8953   0.757   5.861   7.491 -0.0336  0.0590 -0.1624
   88CHL1  H11B 8954   0.915   5.943   7.447 -0.8057  2.8921  3.7756
   88CHL1    C9 8955   0.932   5.732   7.417  0.0903  0.4907 -0.4248
   88CHL1    H9 8956   1.042   5.748   7.414  0.2359  0.0695  1.9059
   88CHL1   C10 8957   0.885   5.709   7.275  0.1634  1.2120  0.2038
   88CHL1   C19 8958   0.731   5.716   7.258  0.6273  0.0004 -0.0920
   88CHL1  H19A 8959   0.680   5.710   7.159  2.3981 -2.1612 -0.9059
   88CHL1  H19B 8960   0.678   5.647   7.327  1.5612  0.0624  0.6938
   88CHL1  H19C 8961   0.709   5.821   7.287 -1.2410  0.2855 -2.3430
   88CHL1    C1 8962   0.960   5.819   7.188 -0.0806  0.5928  0.2199
   88CHL1   H1A 8963   0.937   5.923   7.222  1.5657 -0.2686  4.2343
   88CHL1   H1B 8964   1.068   5.797   7.198 -0.3783 -0.8745  0.3392
   88CHL1    C2 8965   0.918   5.804   7.036  0.1906 -0.3221  0.0054
   88CHL1   H2A 8966   0.967   5.891   6.988 -0.0499 -0.1004  0.1625
   88CHL1   H2B 8967   0.809   5.822   7.022 -0.0598  0.8523  3.0989
   88CHL1   C20 8968   0.833   5.781   7.972  0.2156 -0.1192 -0.1529
   88CHL1   H20 8969   0.730   5.747   7.947  0.4219 -0.0802 -1.1062
   88CHL1   C21 8970   0.846   5.935   7.967 -0.3445 -0.4682  0.1479
   88CHL1  H21A 8971   0.800   5.981   7.877  3.3366 -1.5908 -2.4319
   88CHL1  H21B 8972   0.952   5.967   7.967 -0.7290  0.8585 -1.1581
   88CHL1  H21C 8973   0.817   5.992   8.058  0.8618 -0.3990  0.5012
   88CHL1   C22 8974   0.882   5.745   8.120  0.5897  0.5957  0.6437
   88CHL1  H22A 8975   0.900   5.636   8.119 -0.7282  0.3045  3.2841
   88CHL1  H22B 8976   0.986   5.783   8.131  1.2046 -1.2016  1.1289
   88CHL1   C23 8977   0.789   5.773   8.235  0.1922 -0.1605  0.1812
   88CHL1  H23A 8978   0.783   5.884   8.236  0.8151 -0.1249  0.2429
   88CHL1  H23B 8979   0.686   5.743   8.206  0.1309 -0.4277  0.6732
   88CHL1   C24 8980   0.836   5.723   8.372  1.0972 -0.5126  0.3542
   88CHL1  H24A 8981   0.858   5.615   8.361  0.2758 -0.7435  0.9339
   88CHL1  H24B 8982   0.936   5.765   8.392  1.0726 -0.4859  0.4197
   88CHL1   C25 8983   0.732   5.754   8.483 -0.9352 -0.0362  1.6055
   88CHL1   H25 8984   0.633   5.726   8.441  0.3945 -3.1567  0.3577
   88CHL1   C26 8985   0.755   5.656   8.597 -0.6415  0.3344 -0.1849
   88CHL1  H26A 8986   0.676   5.679   8.671 -0.2869  0.1440  0.2555
   88CHL1  H26B 8987   0.740   5.550   8.568 -2.0988  0.2399  0.8663
   88CHL1  H26C 8988   0.856   5.682   8.635 -0.8180 -0.4536  0.8259
   88CHL1   C27 8989   0.737   5.900   8.526 -0.2209  0.3675 -0.2574
   88CHL1  H27A 8990   0.845   5.922   8.544  0.3968 -2.7031  0.1025
   88CHL1  H27B 8991   0.689   5.967   8.452  4.6332  1.6588 -2.4795
   88CHL1  H27C 8992   0.686   5.911   8.623 -1.4440  0.2964 -0.8882
   89CHL1    C3 8993   4.507   1.552   7.049  0.4652 -0.2874 -0.7303
   89CHL1    H3 8994   4.499   1.445   7.076  0.6339 -0.1126  0.0480
   89CHL1    O3 8995   4.436   1.574   6.918  0.4294 -0.2737  0.2128
   89CHL1   H3' 8996   4.452   1.665   6.893  0.7204 -0.8201 -1.7475
   89CHL1    C4 8997   4.451   1.625   7.167 -0.2800 -0.5027 -0.1300
   89CHL1   H4A 8998   4.454   1.735   7.155 -0.7078 -0.4386  0.3275
   89CHL1   H4B 8999   4.346   1.589   7.177  0.2880 -1.9778  0.8239
   89CHL1    C5 9000   4.537   1.593   7.291 -0.3663 -0.1341 -0.3220
   89CHL1    C6 9001   4.482   1.543   7.407 -0.2028  0.2962  0.2056
   89CHL1    H6 9002   4.376   1.515   7.406  0.4249 -2.3787  2.9658
   89CHL1    C7 9003   4.557   1.535   7.541 -0.2016  0.2257 -0.3420
   89CHL1   H7A 9004   4.507   1.588   7.625  0.2555  0.0757  0.0212
   89CHL1   H7B 9005   4.565   1.428   7.570 -1.3580  0.3813  0.6293
   89CHL1    C8 9006   4.698   1.604   7.536  0.4411 -0.1044 -0.5222
   89CHL1    H8 9007   4.675   1.712   7.532  1.3239  0.1157  0.2729
   89CHL1   C14 9008   4.778   1.564   7.650 -0.3766 -0.3227  0.6059
   89CHL1   H14 9009   4.807   1.457   7.640  0.1389 -0.3472  2.0910
   89CHL1   C15 9010   4.717   1.575   7.797 -0.1598  1.2956 -0.4392
   89CHL1  H15A 9011   4.636   1.651   7.803 -0.3302  1.0025  1.2155
   89CHL1  H15B 9012   4.668   1.477   7.814 -1.3473  2.1433  1.2793
   89CHL1   C16 9013   4.843   1.573   7.881  0.3556  0.4296 -1.5507
   89CHL1  H16A 9014   4.834   1.660   7.950  1.5434 -0.0658 -0.7556
   89CHL1  H16B 9015   4.834   1.480   7.940 -0.1433  0.0565 -2.2147
   89CHL1   C17 9016   4.965   1.579   7.791  0.1646 -0.2004 -0.3192
   89CHL1   H17 9017   4.995   1.473   7.776  0.4628 -0.1395 -0.1473
   89CHL1   C13 9018   4.916   1.631   7.655  0.1580 -0.0326 -0.1681
   89CHL1   C18 9019   4.905   1.780   7.665  0.2574  0.4592 -0.0755
   89CHL1  H18A 9020   4.866   1.828   7.573  1.1674  0.1233 -0.6505
   89CHL1  H18B 9021   4.836   1.791   7.751  0.8031 -0.2439  0.4595
   89CHL1  H18C 9022   5.000   1.837   7.677 -0.4377  1.4112  1.0313
   89CHL1   C12 9023   4.993   1.582   7.526 -0.4933  0.1047  0.5326
   89CHL1  H12A 9024   5.094   1.626   7.533 -0.1148 -0.2765 -1.9210
   89CHL1  H12B 9025   5.009   1.475   7.549  1.1857  0.3894  0.7071
   89CHL1   C11 9026   4.920   1.613   7.391 -0.0025  0.0907  0.1255
   89CHL1  H11A 9027   4.927   1.722   7.373 -1.9543  0.3429  0.8077
   89CHL1  H11B 9028   4.970   1.566   7.303 -0.0843  1.1167 -0.4735
   89CHL1    C9 9029   4.771   1.571   7.402  0.0994  0.2619 -0.1564
   89CHL1    H9 9030   4.781   1.461   7.415 -1.6249  0.3612  2.5500
   89CHL1   C10 9031   4.686   1.621   7.279 -0.7170  0.3784  0.1586
   89CHL1   C19 9032   4.701   1.775   7.266  0.0087 -0.0323  0.2896
   89CHL1  H19A 9033   4.807   1.805   7.250  0.0140 -0.3902 -0.3413
   89CHL1  H19B 9034   4.632   1.808   7.186 -0.2327 -0.0884  0.4745
   89CHL1  H19C 9035   4.674   1.829   7.360 -0.2850 -2.0203  1.3838
   89CHL1    C1 9036   4.745   1.558   7.153 -0.3802  0.5111 -0.6227
   89CHL1   H1A 9037   4.843   1.606   7.132  0.0377 -0.3402 -0.6396
   89CHL1   H1B 9038   4.755   1.447   7.159 -1.9291  0.3301 -1.1583
   89CHL1    C2 9039   4.655   1.585   7.027 -0.3757 -0.0194  0.1821
   89CHL1   H2A 9040   4.688   1.525   6.939 -0.0941 -0.7025  0.7490
   89CHL1   H2B 9041   4.659   1.695   7.010 -1.4404 -0.1138 -0.7646
   89CHL1   C20 9042   5.090   1.638   7.863 -0.1694  0.1754 -1.2987
   89CHL1   H20 9043   5.070   1.747   7.870  0.7925  0.2450  0.4501
   89CHL1   C21 9044   5.212   1.613   7.770  0.0459  0.5593  0.2395
   89CHL1  H21A 9045   5.203   1.677   7.679 -0.4931 -2.4083 -1.8668
   89CHL1  H21B 9046   5.214   1.506   7.740 -1.1065  1.5792 -3.7568
   89CHL1  H21C 9047   5.302   1.643   7.828 -1.0078  1.6281  1.3377
   89CHL1   C22 9048   5.123   1.576   8.001 -0.6611  0.6794  0.1546
   89CHL1  H22A 9049   5.025   1.566   8.052 -1.1974  0.9907 -0.8077
   89CHL1  H22B 9050   5.156   1.471   7.983 -0.9552  0.6814 -0.3986
   89CHL1   C23 9051   5.223   1.635   8.093  0.1553 -0.1163  0.0745
   89CHL1  H23A 9052   5.325   1.616   8.055  1.5366  1.3585  2.8366
   89CHL1  H23B 9053   5.204   1.745   8.094  2.1402  0.2436  0.8572
   89CHL1   C24 9054   5.220   1.572   8.228 -0.4695  0.0380  0.0674
   89CHL1  H24A 9055   5.114   1.573   8.261 -0.0434  0.1064  1.4619
   89CHL1  H24B 9056   5.261   1.468   8.228  1.7125  0.8675 -0.0583
   89CHL1   C25 9057   5.304   1.648   8.332  0.2232 -0.3205  0.0494
   89CHL1   H25 9058   5.301   1.757   8.314 -1.9754 -0.3066  0.3675
   89CHL1   C26 9059   5.257   1.611   8.466 -0.4100  0.4145  0.4803
   89CHL1  H26A 9060   5.297   1.666   8.554  3.0485  0.3188 -0.9450
   89CHL1  H26B 9061   5.149   1.629   8.485 -0.5053 -2.2754  2.7982
   89CHL1  H26C 9062   5.278   1.503   8.484 -1.0636  0.2342  0.1978
   89CHL1   C27 9063   5.449   1.615   8.309  0.4085 -0.6058 -0.2156
   89CHL1  H27A 9064   5.505   1.670   8.387  0.5010  0.2686 -0.8942
   89CHL1  H27B 9065   5.484   1.509   8.315  1.2053 -0.2491  2.0115
   89CHL1  H27C 9066   5.480   1.649   8.208 -0.9843 -0.4891 -0.6182
   90CHL1    C3 9067   4.313   3.610   6.797  0.1981  0.2260  0.3586
   90CHL1    H3 9068   4.331   3.501   6.782 -0.3539  0.1788  0.0117
   90CHL1    O3 9069   4.314   3.661   6.666 -0.2411 -0.2362 -0.1423
   90CHL1   H3' 9070   4.296   3.755   6.672 -1.5524 -0.5185  0.3976
   90CHL1    C4 9071   4.175   3.641   6.861  0.8280  0.2365  0.1304
   90CHL1   H4A 9072   4.167   3.751   6.871 -3.5846  0.0836 -0.7468
   90CHL1   H4B 9073   4.096   3.605   6.792 -1.2000 -0.9530  2.9499
   90CHL1    C5 9074   4.166   3.599   7.005 -0.2619 -0.4371 -0.6481
   90CHL1    C6 9075   4.062   3.528   7.044 -0.4194  0.7407  0.2330
   90CHL1    H6 9076   3.990   3.503   6.964  0.1796 -1.5511  0.3755
   90CHL1    C7 9077   4.048   3.461   7.183  0.0402  0.5707  0.1930
   90CHL1   H7A 9078   3.951   3.492   7.228 -1.5790  1.1642 -3.5558
   90CHL1   H7B 9079   4.062   3.351   7.177 -1.4431  0.5180 -3.5692
   90CHL1    C8 9080   4.159   3.516   7.289  0.3118  0.3264 -0.2338
   90CHL1    H8 9081   4.128   3.610   7.339 -0.6975  0.0890 -0.4106
   90CHL1   C14 9082   4.172   3.420   7.402  0.0646 -0.0158 -0.2941
   90CHL1   H14 9083   4.206   3.324   7.359  0.0527 -0.4734  0.7096
   90CHL1   C15 9084   4.046   3.380   7.479 -0.4717  0.9345 -0.0510
   90CHL1  H15A 9085   3.982   3.469   7.493 -0.9128  0.7140 -0.6371
   90CHL1  H15B 9086   3.986   3.302   7.427  0.4537 -0.1028  0.4199
   90CHL1   C16 9087   4.101   3.328   7.616 -0.5020 -0.7028 -0.1246
   90CHL1  H16A 9088   4.048   3.378   7.700  0.7224  2.6506 -1.2974
   90CHL1  H16B 9089   4.073   3.220   7.607  1.7031 -1.4256  1.3087
   90CHL1   C17 9090   4.256   3.349   7.614  0.7727  0.0069  0.2297
   90CHL1   H17 9091   4.292   3.257   7.564  2.2386  0.3235  0.6788
   90CHL1   C13 9092   4.281   3.460   7.509 -0.7537  0.8271  0.2469
   90CHL1   C18 9093   4.237   3.594   7.569 -0.5975  0.2358 -0.7366
   90CHL1  H18A 9094   4.254   3.666   7.486  2.8228  0.3699 -0.0062
   90CHL1  H18B 9095   4.131   3.598   7.603 -0.9744 -2.3659 -1.4887
   90CHL1  H18C 9096   4.298   3.622   7.657  1.0067  1.1115 -2.0876
   90CHL1   C12 9097   4.414   3.454   7.431 -0.4822 -0.5411 -0.6806
   90CHL1  H12A 9098   4.498   3.481   7.499  0.1966  0.5525 -1.9029
   90CHL1  H12B 9099   4.437   3.350   7.400  0.4844  0.1200 -2.2761
   90CHL1   C11 9100   4.416   3.554   7.316 -0.3838  0.3366 -0.9288
   90CHL1  H11A 9101   4.416   3.654   7.364  1.3813 -0.1220  0.0655
   90CHL1  H11B 9102   4.512   3.548   7.262  1.4430 -0.0274  2.2379
   90CHL1    C9 9103   4.297   3.536   7.220 -0.2825  0.7311 -0.6419
   90CHL1    H9 9104   4.324   3.436   7.179 -0.5820  0.2201  0.3972
   90CHL1   C10 9105   4.289   3.633   7.101 -0.0054  0.1800  0.2866
   90CHL1   C19 9106   4.274   3.778   7.144  0.3453 -0.0940  0.1592
   90CHL1  H19A 9107   4.357   3.803   7.213  1.1098  3.7044 -2.0130
   90CHL1  H19B 9108   4.268   3.856   7.065  0.8112  0.1610  0.3744
   90CHL1  H19C 9109   4.184   3.791   7.207  0.8123 -1.5172  1.1544
   90CHL1    C1 9110   4.423   3.623   7.022 -0.2317 -0.1122  0.8241
   90CHL1   H1A 9111   4.508   3.678   7.067 -0.2813  0.1174  0.6375
   90CHL1   H1B 9112   4.455   3.517   7.007  3.2687  1.1260 -0.8817
   90CHL1    C2 9113   4.418   3.679   6.881  0.9845 -0.2150  0.3981
   90CHL1   H2A 9114   4.520   3.677   6.838  1.4718 -1.7734  1.5524
   90CHL1   H2B 9115   4.387   3.786   6.885 -0.6849 -0.7180  1.9052
   90CHL1   C20 9116   4.313   3.353   7.758 -0.1429  0.0092 -0.1684
   90CHL1   H20 9117   4.252   3.434   7.805 -1.1038 -1.9019  1.9321
   90CHL1   C21 9118   4.456   3.372   7.745  0.1670  0.2980 -0.4612
   90CHL1  H21A 9119   4.502   3.296   7.679  0.6389 -2.5637  3.0062
   90CHL1  H21B 9120   4.494   3.355   7.848 -0.6501  1.1996 -0.0005
   90CHL1  H21C 9121   4.485   3.474   7.710 -1.3830  1.0210  0.2843
   90CHL1   C22 9122   4.273   3.229   7.841 -0.4130  0.2838 -0.2499
   90CHL1  H22A 9123   4.168   3.203   7.819 -0.3262 -0.6614  0.3720
   90CHL1  H22B 9124   4.318   3.135   7.801  0.1755 -0.2174  1.5327
   90CHL1   C23 9125   4.294   3.255   7.991 -0.0234  0.4770  0.5298
   90CHL1  H23A 9126   4.403   3.268   8.011  0.0123  1.8547 -0.5067
   90CHL1  H23B 9127   4.232   3.342   8.018 -2.6920 -0.4878 -2.2570
   90CHL1   C24 9128   4.238   3.138   8.077 -0.2812  0.0845  0.4863
   90CHL1  H24A 9129   4.130   3.115   8.064 -0.9389  1.7643  2.7390
   90CHL1  H24B 9130   4.301   3.046   8.070 -1.6042 -0.7720 -0.3572
   90CHL1   C25 9131   4.244   3.156   8.226 -0.4428 -0.6627  0.6143
   90CHL1   H25 9132   4.352   3.164   8.250 -0.3679  2.2515 -0.6079
   90CHL1   C26 9133   4.182   3.295   8.269  0.1963  0.2577 -0.6155
   90CHL1  H26A 9134   4.084   3.312   8.220 -0.9757 -1.6607  0.9750
   90CHL1  H26B 9135   4.181   3.295   8.380  2.5623  0.2860 -0.5785
   90CHL1  H26C 9136   4.252   3.372   8.231  0.4096 -0.5758 -1.9594
   90CHL1   C27 9137   4.169   3.042   8.302 -0.2651  0.3567 -0.3357
   90CHL1  H27A 9138   4.235   2.955   8.281  1.8273  2.0123 -0.7921
   90CHL1  H27B 9139   4.149   3.067   8.408  1.1903  0.4446 -0.0633
   90CHL1  H27C 9140   4.071   3.021   8.253  0.8139 -2.7785 -1.3240
   91CHL1    C3 9141   5.247   4.590   7.116 -0.0650  0.3880  0.1097
   91CHL1    H3 9142   5.325   4.667   7.103 -0.5269  1.7034  4.3350
   91CHL1    O3 9143   5.219   4.540   6.982  0.1096 -0.4605 -0.5994
   91CHL1   H3' 9144   5.300   4.498   6.952  0.1035 -0.1002 -1.1137
   91CHL1    C4 9145   5.311   4.478   7.193  0.1472 -0.1749 -0.0892
   91CHL1   H4A 9146   5.235   4.398   7.202 -0.0612 -0.0311 -0.5445
   91CHL1   H4B 9147   5.395   4.434   7.136 -0.0017  0.5045 -0.8388
   91CHL1    C5 9148   5.334   4.511   7.339 -0.5839 -1.3081 -0.3915
   91CHL1    C6 9149   5.459   4.499   7.396 -0.5020  0.6648  0.2504
   91CHL1    H6 9150   5.540   4.461   7.332 -0.5548  2.0901 -0.6689
   91CHL1    C7 9151   5.487   4.522   7.543  0.3324 -0.3658 -0.5261
   91CHL1   H7A 9152   5.548   4.438   7.582  2.3052 -0.3073 -3.2942
   91CHL1   H7B 9153   5.551   4.611   7.557  0.0247 -0.4787  1.8319
   91CHL1    C8 9154   5.357   4.532   7.631  0.1636  0.3545  0.3895
   91CHL1    H8 9155   5.322   4.427   7.641  0.2628  0.3558  0.7751
   91CHL1   C14 9156   5.401   4.594   7.758  0.2008  0.3944  0.1703
   91CHL1   H14 9157   5.434   4.696   7.730  0.0752 -0.0958 -1.8177
   91CHL1   C15 9158   5.521   4.532   7.834 -0.0805 -0.1038 -0.4946
   91CHL1  H15A 9159   5.513   4.422   7.820  0.1089 -0.2021  0.1743
   91CHL1  H15B 9160   5.615   4.584   7.805 -0.0347  0.2915  0.3399
   91CHL1   C16 9161   5.480   4.570   7.980  0.0012  0.3166  0.7126
   91CHL1  H16A 9162   5.451   4.476   8.032 -0.2758  0.5514  0.9865
   91CHL1  H16B 9163   5.563   4.615   8.038  0.7690  1.2168 -1.0805
   91CHL1   C17 9164   5.359   4.668   7.972 -0.0798 -0.0673  0.2871
   91CHL1   H17 9165   5.395   4.768   7.941  0.3088 -0.2741  0.0702
   91CHL1   C13 9166   5.288   4.612   7.854  0.3024  0.4137  0.3185
   91CHL1   C18 9167   5.220   4.476   7.884 -0.0200  0.2077 -0.0830
   91CHL1  H18A 9168   5.170   4.425   7.799  0.5610  0.0226 -0.3155
   91CHL1  H18B 9169   5.287   4.402   7.934 -0.0782 -0.6455 -1.2640
   91CHL1  H18C 9170   5.135   4.496   7.952 -0.5959 -0.8160 -0.4826
   91CHL1   C12 9171   5.202   4.715   7.788  0.2631  0.5257  0.2429
   91CHL1  H12A 9172   5.119   4.738   7.859  0.8438  1.3595  0.6671
   91CHL1  H12B 9173   5.262   4.806   7.767  0.4277  0.1037 -1.1058
   91CHL1   C11 9174   5.141   4.658   7.663  0.0505 -0.3121  0.6567
   91CHL1  H11A 9175   5.070   4.575   7.685 -1.5106  0.7323 -0.3290
   91CHL1  H11B 9176   5.075   4.742   7.630  1.3890 -0.1140 -1.6209
   91CHL1    C9 9177   5.256   4.626   7.564 -0.4657 -1.1691 -0.0704
   91CHL1    H9 9178   5.312   4.720   7.542 -4.2287  1.7206  2.1548
   91CHL1   C10 9179   5.212   4.570   7.420 -0.5675 -0.2567  0.1602
   91CHL1   C19 9180   5.101   4.460   7.451 -0.3675  0.1811  0.7188
   91CHL1  H19A 9181   5.088   4.393   7.363  2.1220 -0.2715  0.6379
   91CHL1  H19B 9182   5.141   4.382   7.519 -1.4240  0.8120  2.0909
   91CHL1  H19C 9183   5.001   4.500   7.475 -0.6627  0.2619 -0.6131
   91CHL1    C1 9184   5.155   4.681   7.328  0.0941 -0.5912  0.0659
   91CHL1   H1A 9185   5.058   4.717   7.368  1.5220  1.5261  1.7898
   91CHL1   H1B 9186   5.221   4.771   7.321 -0.1626 -0.6037 -3.3010
   91CHL1    C2 9187   5.120   4.640   7.178  0.1262 -0.0207  0.3327
   91CHL1   H2A 9188   5.081   4.729   7.123  0.9136 -1.3034 -2.3899
   91CHL1   H2B 9189   5.036   4.568   7.191  0.0397 -0.3734 -1.9007
   91CHL1   C20 9190   5.285   4.687   8.106  0.0346 -0.2588 -0.1450
   91CHL1   H20 9191   5.210   4.606   8.117 -2.2084  1.4574 -2.2872
   91CHL1   C21 9192   5.204   4.811   8.112  0.3854 -0.4085 -0.2848
   91CHL1  H21A 9193   5.125   4.811   8.034 -0.8359  0.5999  0.9278
   91CHL1  H21B 9194   5.269   4.900   8.093  2.9527 -1.8607  1.2719
   91CHL1  H21C 9195   5.165   4.825   8.215 -0.7007  0.1294 -0.7664
   91CHL1   C22 9196   5.380   4.680   8.233 -0.0970  0.8652  0.6699
   91CHL1  H22A 9197   5.441   4.587   8.236  2.8583  2.6502 -0.8625
   91CHL1  H22B 9198   5.455   4.761   8.218  0.6335  0.1955  0.7001
   91CHL1   C23 9199   5.314   4.693   8.376 -0.4435  0.3753  0.1066
   91CHL1  H23A 9200   5.270   4.794   8.389  1.5922  1.1289  1.5411
   91CHL1  H23B 9201   5.231   4.621   8.384  0.2824 -0.3445  1.2568
   91CHL1   C24 9202   5.415   4.672   8.498 -0.3319  0.3747 -1.2787
   91CHL1  H24A 9203   5.496   4.599   8.477 -1.3354 -1.8915  2.3207
   91CHL1  H24B 9204   5.471   4.768   8.509  0.1109 -0.0007 -0.2588
   91CHL1   C25 9205   5.353   4.635   8.629  0.5284 -0.0932 -0.2263
   91CHL1   H25 9206   5.307   4.535   8.616 -1.8238  0.5668  2.5384
   91CHL1   C26 9207   5.460   4.616   8.743 -0.6927  0.2031 -0.3599
   91CHL1  H26A 9208   5.554   4.598   8.688 -1.1567 -1.3273 -0.6908
   91CHL1  H26B 9209   5.469   4.703   8.812 -1.3354  1.3128 -1.6481
   91CHL1  H26C 9210   5.438   4.527   8.806 -0.5143 -0.5474 -1.3524
   91CHL1   C27 9211   5.245   4.738   8.677 -0.1092 -0.7404 -0.1942
   91CHL1  H27A 9212   5.283   4.839   8.703 -1.3946 -0.3010 -0.0096
   91CHL1  H27B 9213   5.166   4.754   8.600 -1.5104  1.2115  1.6215
   91CHL1  H27C 9214   5.186   4.696   8.761 -0.4286  1.4986  0.7199
   92CHL1    C3 9215   1.346   6.609   6.833  0.7675 -0.6683  0.1400
   92CHL1    H3 9216   1.241   6.589   6.864  0.3646  2.0733  0.6306
   92CHL1    O3 9217   1.360   6.619   6.693  0.3066 -0.2356  0.1673
   92CHL1   H3' 9218   1.387   6.709   6.672  0.8645  0.2830  2.8840
   92CHL1    C4 9219   1.390   6.738   6.903 -0.4886  0.4687  0.2566
   92CHL1   H4A 9220   1.486   6.783   6.868 -0.4577  0.1986 -0.0067
   92CHL1   H4B 9221   1.319   6.815   6.865 -1.2071  0.4854  1.5991
   92CHL1    C5 9222   1.390   6.731   7.054  0.7336  0.2040  0.0035
   92CHL1    C6 9223   1.318   6.817   7.131  1.1502  0.1072 -0.0761
   92CHL1    H6 9224   1.257   6.893   7.081  0.3850 -1.0192 -0.9004
   92CHL1    C7 9225   1.305   6.792   7.276  0.4597  0.1735 -0.0787
   92CHL1   H7A 9226   1.317   6.888   7.331  2.5626  1.6218 -2.9362
   92CHL1   H7B 9227   1.199   6.765   7.293  1.2227 -2.8622  0.3323
   92CHL1    C8 9228   1.416   6.701   7.339 -0.7540  0.0393 -0.2800
   92CHL1    H8 9229   1.515   6.753   7.337 -1.5229  1.5280  0.0324
   92CHL1   C14 9230   1.389   6.676   7.488  0.1815 -0.6041 -0.4316
   92CHL1   H14 9231   1.302   6.607   7.485  2.2414 -3.3224  0.1517
   92CHL1   C15 9232   1.364   6.792   7.582  0.0879 -0.4852 -0.5875
   92CHL1  H15A 9233   1.437   6.875   7.575 -0.5389  0.2531  1.2196
   92CHL1  H15B 9234   1.262   6.834   7.569 -0.8035 -2.6687 -0.9907
   92CHL1   C16 9235   1.393   6.735   7.724 -0.1104 -0.2637  0.3163
   92CHL1  H16A 9236   1.447   6.813   7.782  0.1435 -0.1037 -0.1259
   92CHL1  H16B 9237   1.292   6.725   7.768 -0.3428  0.1407 -0.1166
   92CHL1   C17 9238   1.445   6.590   7.699  0.6095 -0.1634 -0.0518
   92CHL1   H17 9239   1.347   6.537   7.699  0.7028 -0.3504 -0.9817
   92CHL1   C13 9240   1.500   6.591   7.558 -0.0731 -0.1488 -0.4878
   92CHL1   C18 9241   1.645   6.657   7.550 -0.4554  0.4815  0.0871
   92CHL1  H18A 9242   1.633   6.741   7.622 -0.7566  1.9566 -1.6416
   92CHL1  H18B 9243   1.725   6.600   7.601 -0.7531  0.4217  0.4893
   92CHL1  H18C 9244   1.680   6.696   7.453 -1.2157 -0.6444 -0.6497
   92CHL1   C12 9245   1.511   6.457   7.486 -0.4114  0.6343  0.3018
   92CHL1  H12A 9246   1.594   6.393   7.523  1.9297  1.3828 -3.4015
   92CHL1  H12B 9247   1.418   6.398   7.501  0.2572 -0.1907  1.2917
   92CHL1   C11 9248   1.540   6.483   7.334 -0.5727  0.6194 -0.0522
   92CHL1  H11A 9249   1.647   6.510   7.317 -0.3183 -0.7878 -0.7667
   92CHL1  H11B 9250   1.537   6.381   7.291 -0.7142  0.3907  0.4984
   92CHL1    C9 9251   1.432   6.571   7.261  0.1268  0.6516  0.2730
   92CHL1    H9 9252   1.338   6.513   7.262  0.0881  0.7072 -0.0686
   92CHL1   C10 9253   1.462   6.600   7.110  0.6315  0.3400 -0.3972
   92CHL1   C19 9254   1.614   6.635   7.079 -0.5002  0.1224 -0.5425
   92CHL1  H19A 9255   1.636   6.625   6.970  1.9525 -2.4653  0.1374
   92CHL1  H19B 9256   1.649   6.736   7.108  0.1706 -1.0026  2.7990
   92CHL1  H19C 9257   1.690   6.571   7.127  0.3512  1.5632  0.0633
   92CHL1    C1 9258   1.419   6.478   7.031  0.1015 -0.1645 -0.4938
   92CHL1   H1A 9259   1.482   6.389   7.056 -0.2291 -0.9020 -2.2532
   92CHL1   H1B 9260   1.315   6.452   7.060  0.4245 -0.4460  0.4447
   92CHL1    C2 9261   1.426   6.490   6.874  0.0697  0.1923  1.1885
   92CHL1   H2A 9262   1.385   6.402   6.821  1.8650  0.1798 -0.2240
   92CHL1   H2B 9263   1.533   6.508   6.851 -0.7764  3.7952 -0.3723
   92CHL1   C20 9264   1.523   6.541   7.819  1.0272  0.3151 -0.1124
   92CHL1   H20 9265   1.628   6.577   7.820  0.7745  1.0465  0.8450
   92CHL1   C21 9266   1.529   6.386   7.817 -0.4795  0.3886 -0.6790
   92CHL1  H21A 9267   1.568   6.339   7.725 -1.7882 -0.4983 -0.7863
   92CHL1  H21B 9268   1.429   6.353   7.853 -0.1796 -2.0786 -2.0019
   92CHL1  H21C 9269   1.594   6.348   7.899 -0.1077  1.4201 -0.4867
   92CHL1   C22 9270   1.461   6.573   7.957  0.1107 -0.2543 -0.3968
   92CHL1  H22A 9271   1.440   6.682   7.960 -0.0637 -0.2770 -0.7774
   92CHL1  H22B 9272   1.364   6.532   7.991 -0.0454  0.0986 -0.4068
   92CHL1   C23 9273   1.559   6.560   8.077  0.2162  0.1582  0.1090
   92CHL1  H23A 9274   1.569   6.452   8.103  0.0940 -0.1875 -1.2280
   92CHL1  H23B 9275   1.655   6.611   8.050  1.0068 -1.3719 -0.0336
   92CHL1   C24 9276   1.508   6.627   8.198 -0.7397  0.3377  0.3907
   92CHL1  H24A 9277   1.494   6.734   8.173 -1.2202  0.5119  1.3492
   92CHL1  H24B 9278   1.404   6.597   8.225 -0.1106 -1.7071  0.6171
   92CHL1   C25 9279   1.606   6.627   8.328 -0.0093 -0.4556  0.1976
   92CHL1   H25 9280   1.650   6.526   8.345  0.1252 -0.4781 -0.2703
   92CHL1   C26 9281   1.719   6.726   8.330  0.4990  0.0796 -0.2545
   92CHL1  H26A 9282   1.792   6.697   8.251  1.7009  2.9343 -0.2749
   92CHL1  H26B 9283   1.690   6.833   8.316 -1.1497 -0.6350 -2.5541
   92CHL1  H26C 9284   1.779   6.726   8.424  0.3537 -0.7813 -0.1636
   92CHL1   C27 9285   1.521   6.649   8.453 -0.2088  0.8162  0.1706
   92CHL1  H27A 9286   1.576   6.621   8.546 -0.9892 -1.3230  0.0008
   92CHL1  H27B 9287   1.491   6.756   8.467  2.3047  1.6135 -0.3908
   92CHL1  H27C 9288   1.434   6.580   8.454 -0.8808  1.6216 -0.7501
   93CHL1    C3 9289   0.022   4.298   6.918  0.5646 -1.0249 -0.0494
   93CHL1    H3 9290  -0.079   4.255   6.934 -0.6007  1.0958 -1.4670
   93CHL1    O3 9291   0.037   4.312   6.781 -0.3743  0.3485  0.1737
   93CHL1   H3' 9292   0.106   4.375   6.760 -0.7961  1.6245  2.4726
   93CHL1    C4 9293   0.033   4.441   6.981 -0.3949  0.0704 -0.4545
   93CHL1   H4A 9294   0.124   4.494   6.946  0.6482 -3.2568 -2.9852
   93CHL1   H4B 9295  -0.059   4.496   6.952 -1.1425 -0.9448 -0.0277
   93CHL1    C5 9296   0.041   4.433   7.138 -0.1851 -0.5786 -0.1293
   93CHL1    C6 9297  -0.038   4.510   7.217 -0.0857 -0.2590 -0.4382
   93CHL1    H6 9298  -0.103   4.587   7.173 -0.1785  0.5079  1.0242
   93CHL1    C7 9299  -0.033   4.508   7.371 -0.2568  0.3568 -0.3679
   93CHL1   H7A 9300  -0.027   4.606   7.423 -1.3635 -1.1974  2.8390
   93CHL1   H7B 9301  -0.131   4.477   7.413 -0.1923 -0.3208 -0.7076
   93CHL1    C8 9302   0.088   4.422   7.423 -0.4403  0.0521  0.3681
   93CHL1    H8 9303   0.181   4.481   7.409 -0.8747  0.5277 -0.5611
   93CHL1   C14 9304   0.066   4.384   7.569 -0.1086 -0.6021 -0.7772
   93CHL1   H14 9305  -0.021   4.316   7.557 -1.3065  0.3352  2.2292
   93CHL1   C15 9306   0.020   4.494   7.679 -0.7794 -0.3855  0.2974
   93CHL1  H15A 9307   0.090   4.580   7.672 -1.0533 -0.2747 -1.2265
   93CHL1  H15B 9308  -0.087   4.522   7.665 -1.1067 -2.2359 -1.1845
   93CHL1   C16 9309   0.043   4.420   7.812  0.0854 -1.0676  0.2840
   93CHL1  H16A 9310   0.123   4.467   7.873 -0.7115  0.3962  0.2236
   93CHL1  H16B 9311  -0.048   4.415   7.876 -0.1062 -0.9212  0.0224
   93CHL1   C17 9312   0.116   4.284   7.784  0.1000  0.3393 -1.1908
   93CHL1   H17 9313   0.040   4.204   7.779 -1.7512  1.9598  0.1291
   93CHL1   C13 9314   0.172   4.299   7.639  0.0516  1.1412 -0.7507
   93CHL1   C18 9315   0.300   4.385   7.640 -0.5725  0.4031 -0.3765
   93CHL1  H18A 9316   0.277   4.459   7.720  1.4536 -0.5291  1.1324
   93CHL1  H18B 9317   0.388   4.327   7.676 -0.2367 -0.0562 -1.9029
   93CHL1  H18C 9318   0.321   4.433   7.542 -2.0094  0.7180 -0.5351
   93CHL1   C12 9319   0.200   4.172   7.558 -0.0037 -0.3318 -0.1121
   93CHL1  H12A 9320   0.273   4.106   7.610 -0.5948  1.0287  2.5362
   93CHL1  H12B 9321   0.104   4.115   7.559 -0.5697  0.5970 -1.1051
   93CHL1   C11 9322   0.236   4.211   7.412  0.0780 -0.2173  0.1095
   93CHL1  H11A 9323   0.336   4.259   7.418 -1.2744  2.5417  1.3640
   93CHL1  H11B 9324   0.243   4.113   7.361 -0.5913 -0.7953  1.1118
   93CHL1    C9 9325   0.122   4.290   7.343 -0.0180  1.3668 -0.0382
   93CHL1    H9 9326   0.032   4.225   7.350 -0.2090  1.7417  1.0502
   93CHL1   C10 9327   0.143   4.327   7.193 -0.2882  0.1982 -0.0567
   93CHL1   C19 9328   0.282   4.396   7.174  0.0898 -0.4065  0.0231
   93CHL1  H19A 9329   0.301   4.398   7.065  1.1994 -2.3729  0.1602
   93CHL1  H19B 9330   0.283   4.499   7.217  0.8474 -0.6186  0.5210
   93CHL1  H19C 9331   0.363   4.348   7.232  0.9768 -0.7320 -1.4582
   93CHL1    C1 9332   0.140   4.190   7.105  0.5737 -0.6032 -1.0213
   93CHL1   H1A 9333   0.232   4.137   7.138  0.1772 -0.9492 -0.4738
   93CHL1   H1B 9334   0.050   4.138   7.143  0.3286  0.6311  0.1333
   93CHL1    C2 9335   0.140   4.201   6.957  0.2356 -0.5695  1.1506
   93CHL1   H2A 9336   0.119   4.103   6.909 -0.8652 -0.8258  2.1405
   93CHL1   H2B 9337   0.234   4.241   6.913 -0.3635  0.1755  0.5255
   93CHL1   C20 9338   0.217   4.238   7.896 -0.2673  0.2188 -0.2277
   93CHL1   H20 9339   0.301   4.311   7.904  0.8111 -1.0997  0.5929
   93CHL1   C21 9340   0.280   4.101   7.855 -0.0314 -0.3347  0.1167
   93CHL1  H21A 9341   0.200   4.036   7.814  0.4979  0.1493 -1.7182
   93CHL1  H21B 9342   0.333   4.056   7.941  0.5198  0.2711  0.1015
   93CHL1  H21C 9343   0.360   4.112   7.779 -1.8575 -0.5316 -1.9068
   93CHL1   C22 9344   0.145   4.227   8.038 -0.4146  0.1734 -0.1822
   93CHL1  H22A 9345   0.039   4.199   8.021 -0.6644  2.3011 -2.4735
   93CHL1  H22B 9346   0.199   4.147   8.094  0.2068  0.5689 -0.2075
   93CHL1   C23 9347   0.143   4.347   8.132  0.1573 -0.0274 -0.3005
   93CHL1  H23A 9348   0.229   4.415   8.111 -0.3274  0.2298 -1.5329
   93CHL1  H23B 9349   0.060   4.412   8.095 -0.7467 -0.6598  0.6215
   93CHL1   C24 9350   0.142   4.310   8.276 -0.2970 -0.1941  0.4266
   93CHL1  H24A 9351   0.069   4.230   8.302 -0.2856 -0.2716  0.2151
   93CHL1  H24B 9352   0.245   4.272   8.294 -0.1339 -1.2194 -2.4737
   93CHL1   C25 9353   0.115   4.424   8.383  0.8130 -0.4731  0.7955
   93CHL1   H25 9354   0.012   4.460   8.364  0.9220 -0.3118  0.5057
   93CHL1   C26 9355   0.114   4.354   8.525 -0.0291 -0.3827  0.2611
   93CHL1  H26A 9356   0.222   4.333   8.535 -0.1021  0.1919  2.5782
   93CHL1  H26B 9357   0.078   4.419   8.607 -0.8888  0.8683 -1.0738
   93CHL1  H26C 9358   0.052   4.262   8.530 -0.1524 -0.3618 -0.7523
   93CHL1   C27 9359   0.224   4.532   8.384  0.2067  0.6254  0.3517
   93CHL1  H27A 9360   0.217   4.609   8.464  0.6420  0.5826  0.4311
   93CHL1  H27B 9361   0.321   4.491   8.418  0.5312  1.6825  0.7199
   93CHL1  H27C 9362   0.233   4.592   8.291 -1.9689  1.1001  0.4026
   94CHL1    C3 9363   2.534   0.341   6.769 -0.1117  0.1334  0.4282
   94CHL1    H3 9364   2.529   0.243   6.822 -1.4745  0.2987  0.6160
   94CHL1    O3 9365   2.541   0.314   6.630  0.0992 -0.0296  0.3628
   94CHL1   H3' 9366   2.592   0.387   6.593  1.7230  0.1790  2.9015
   94CHL1    C4 9367   2.403   0.422   6.803  0.2836  0.3134  0.6023
   94CHL1   H4A 9368   2.411   0.516   6.743  2.2975 -0.9321 -1.1722
   94CHL1   H4B 9369   2.329   0.358   6.750  1.1119  2.9713 -4.1234
   94CHL1    C5 9370   2.393   0.446   6.954 -0.1494  0.2380  0.1957
   94CHL1    C6 9371   2.289   0.398   7.022 -0.0844 -0.3555  0.3668
   94CHL1    H6 9372   2.210   0.352   6.962  0.5723 -1.4373  0.3112
   94CHL1    C7 9373   2.267   0.410   7.173  0.0969 -0.6961  0.2970
   94CHL1   H7A 9374   2.161   0.439   7.187  0.1731 -0.9195  1.3317
   94CHL1   H7B 9375   2.276   0.311   7.223 -0.0238 -1.6483 -1.4996
   94CHL1    C8 9376   2.351   0.519   7.232 -0.2054 -0.3451  0.2774
   94CHL1    H8 9377   2.309   0.619   7.205 -0.5318 -0.2806  1.0211
   94CHL1   C14 9378   2.349   0.487   7.383 -0.5621  0.0013  0.3638
   94CHL1   H14 9379   2.395   0.387   7.397 -0.5403 -0.0062  0.2401
   94CHL1   C15 9380   2.221   0.489   7.462  0.1723 -0.5669 -0.5587
   94CHL1  H15A 9381   2.166   0.575   7.417 -1.7061 -0.6839  1.4211
   94CHL1  H15B 9382   2.166   0.393   7.452  0.2037 -0.6165 -0.2631
   94CHL1   C16 9383   2.257   0.515   7.610  0.0024  0.0085  0.0220
   94CHL1  H16A 9384   2.203   0.609   7.636  1.5306  0.5517  1.2817
   94CHL1  H16B 9385   2.228   0.427   7.672 -3.4189 -0.3408 -1.9016
   94CHL1   C17 9386   2.407   0.544   7.620 -0.0733 -0.5246  0.7192
   94CHL1   H17 9387   2.450   0.442   7.634 -0.4247 -0.8209 -0.3598
   94CHL1   C13 9388   2.445   0.578   7.469 -0.1469 -0.4132  0.0757
   94CHL1   C18 9389   2.418   0.728   7.446 -0.6656  0.3544 -0.2291
   94CHL1  H18A 9390   2.420   0.763   7.341 -1.3555  0.2593 -0.2728
   94CHL1  H18B 9391   2.324   0.745   7.502 -0.4827 -1.5402  0.7196
   94CHL1  H18C 9392   2.495   0.788   7.499  0.1437 -1.3854  0.6360
   94CHL1   C12 9393   2.588   0.539   7.417  0.8597 -0.2325 -0.1676
   94CHL1  H12A 9394   2.662   0.604   7.468  0.4268  0.6474 -0.6508
   94CHL1  H12B 9395   2.616   0.433   7.437  1.6535  0.0679  0.3633
   94CHL1   C11 9396   2.608   0.574   7.268  0.0329  0.8508 -0.5805
   94CHL1  H11A 9397   2.596   0.684   7.254  0.4962  1.0966  0.8295
   94CHL1  H11B 9398   2.712   0.542   7.247 -0.7564 -2.1231 -0.2361
   94CHL1    C9 9399   2.496   0.509   7.179  0.0716  0.2832 -0.1513
   94CHL1    H9 9400   2.514   0.404   7.211 -2.6894  0.2791  1.5423
   94CHL1   C10 9401   2.512   0.516   7.027  0.5721 -0.7751  0.5359
   94CHL1   C19 9402   2.509   0.669   6.984 -0.6020  1.0988  0.0311
   94CHL1  H19A 9403   2.411   0.718   7.001  0.0432  2.6652 -0.6887
   94CHL1  H19B 9404   2.588   0.735   7.025 -0.7823  0.2533  1.7825
   94CHL1  H19C 9405   2.505   0.681   6.874 -2.4745  2.3439  0.2217
   94CHL1    C1 9406   2.640   0.457   6.975 -0.2331  0.6468  0.4203
   94CHL1   H1A 9407   2.723   0.530   6.988 -0.9570  1.4629  0.4915
   94CHL1   H1B 9408   2.675   0.370   7.033  1.1102  1.7120  1.2370
   94CHL1    C2 9409   2.653   0.420   6.823  0.5801  0.2289  0.3431
   94CHL1   H2A 9410   2.744   0.357   6.812  0.1695 -0.2848 -0.1298
   94CHL1   H2B 9411   2.670   0.511   6.761  1.3688  0.3975  0.7936
   94CHL1   C20 9412   2.464   0.631   7.732  0.1658 -0.2874 -0.2805
   94CHL1   H20 9413   2.424   0.733   7.717 -1.5930 -0.6327  1.7726
   94CHL1   C21 9414   2.619   0.634   7.738  0.1530  0.0306  0.4297
   94CHL1  H21A 9415   2.639   0.709   7.818 -0.2993 -0.3931  0.9435
   94CHL1  H21B 9416   2.673   0.679   7.652 -0.3201 -0.1541  0.0360
   94CHL1  H21C 9417   2.664   0.540   7.776  0.4131 -0.8796 -2.0883
   94CHL1   C22 9418   2.393   0.610   7.868  0.1144  0.0822  0.1365
   94CHL1  H22A 9419   2.399   0.691   7.944 -0.1141  1.6028 -1.4258
   94CHL1  H22B 9420   2.285   0.601   7.843  0.4690  1.4541 -2.1060
   94CHL1   C23 9421   2.433   0.478   7.934 -0.6375  0.1036 -0.1773
   94CHL1  H23A 9422   2.455   0.398   7.860  0.6646 -0.3464  0.6872
   94CHL1  H23B 9423   2.529   0.493   7.988 -1.1186  0.1306  0.6710
   94CHL1   C24 9424   2.323   0.428   8.024 -0.0647 -0.7764 -0.7301
   94CHL1  H24A 9425   2.300   0.500   8.105  2.2128 -2.2200  1.2553
   94CHL1  H24B 9426   2.236   0.412   7.957  0.4138  0.0339 -1.5591
   94CHL1   C25 9427   2.339   0.290   8.086 -0.2746  0.2011 -0.4752
   94CHL1   H25 9428   2.400   0.220   8.025 -1.5170 -1.5683  0.2676
   94CHL1   C26 9429   2.416   0.297   8.226 -0.1561  0.8193  0.0732
   94CHL1  H26A 9430   2.363   0.372   8.288  2.2591  2.5572  0.1304
   94CHL1  H26B 9431   2.410   0.198   8.275  2.0231  0.8343  0.4418
   94CHL1  H26C 9432   2.523   0.321   8.205 -0.2670  0.1520 -1.3431
   94CHL1   C27 9433   2.200   0.231   8.117 -0.3321  0.3372  0.0061
   94CHL1  H27A 9434   2.134   0.306   8.165  1.3879  0.7587  1.7831
   94CHL1  H27B 9435   2.153   0.211   8.018  0.1255  1.5747 -0.4722
   94CHL1  H27C 9436   2.197   0.141   8.183 -0.2682 -0.2841 -0.8213
   95CHL1    C3 9437   2.235   6.307   6.662 -0.1615  0.1833  0.1708
   95CHL1    H3 9438   2.182   6.399   6.696  1.5359  1.1666  0.2382
   95CHL1    O3 9439   2.251   6.308   6.517 -0.0807  0.7271  0.4452
   95CHL1   H3' 9440   2.300   6.227   6.499 -1.2973 -0.0003  0.3544
   95CHL1    C4 9441   2.368   6.305   6.737 -0.0590  0.7062 -0.0163
   95CHL1   H4A 9442   2.425   6.218   6.698 -0.7021  0.7043 -0.9631
   95CHL1   H4B 9443   2.433   6.391   6.711  1.5438 -0.6898 -0.7824
   95CHL1    C5 9444   2.359   6.294   6.890 -0.6421 -0.3439  0.0563
   95CHL1    C6 9445   2.419   6.385   6.970 -0.3817 -0.2346 -0.1589
   95CHL1    H6 9446   2.471   6.468   6.920  0.0107 -1.0054 -1.0486
   95CHL1    C7 9447   2.411   6.377   7.121 -0.5596 -0.3180  0.3993
   95CHL1   H7A 9448   2.510   6.396   7.167 -0.2375 -1.8837  0.3835
   95CHL1   H7B 9449   2.341   6.457   7.152 -0.3903  0.4736 -1.2052
   95CHL1    C8 9450   2.367   6.242   7.176 -0.2854  0.7045  0.7420
   95CHL1    H8 9451   2.453   6.171   7.180 -0.4010  0.6452  2.8815
   95CHL1   C14 9452   2.330   6.256   7.321 -0.0263 -0.0584 -0.4882
   95CHL1   H14 9453   2.238   6.318   7.321 -0.1486 -0.2030  1.6828
   95CHL1   C15 9454   2.436   6.318   7.414 -0.1620  0.0043  0.2752
   95CHL1  H15A 9455   2.537   6.288   7.379 -0.8575 -0.3303 -1.5355
   95CHL1  H15B 9456   2.430   6.428   7.405  1.6780  0.0145 -1.1685
   95CHL1   C16 9457   2.406   6.263   7.555  0.4970 -0.3719 -0.1848
   95CHL1  H16A 9458   2.491   6.210   7.602  1.1517  2.2193  1.6906
   95CHL1  H16B 9459   2.374   6.347   7.621 -1.3640 -2.3925  1.5807
   95CHL1   C17 9460   2.274   6.174   7.537  0.7800  0.6587 -0.3183
   95CHL1   H17 9461   2.194   6.250   7.549  0.1845 -0.1661  1.0448
   95CHL1   C13 9462   2.285   6.126   7.389  0.4929 -0.3029  0.4327
   95CHL1   C18 9463   2.389   6.008   7.374  0.0765 -0.5304 -0.1139
   95CHL1  H18A 9464   2.355   5.915   7.425  2.3896 -1.8538 -0.9385
   95CHL1  H18B 9465   2.426   5.989   7.271  0.2620 -0.0923 -0.1294
   95CHL1  H18C 9466   2.484   6.032   7.426  0.8937  1.6555 -2.5127
   95CHL1   C12 9467   2.155   6.087   7.316 -0.0220  0.0595 -0.5985
   95CHL1  H12A 9468   2.100   6.004   7.365  0.4792  2.0865  3.6489
   95CHL1  H12B 9469   2.073   6.162   7.315 -2.9889 -3.0509  1.1858
   95CHL1   C11 9470   2.176   6.057   7.168  0.2215  0.0047 -0.6060
   95CHL1  H11A 9471   2.248   5.973   7.158 -0.1885 -0.5723  1.1453
   95CHL1  H11B 9472   2.085   6.024   7.115 -0.5326  3.1963 -1.3888
   95CHL1    C9 9473   2.247   6.184   7.094 -0.5330 -0.3415  0.0153
   95CHL1    H9 9474   2.166   6.260   7.101  0.3631  0.5603  0.7870
   95CHL1   C10 9475   2.274   6.172   6.941  0.5344  0.7708  0.6781
   95CHL1   C19 9476   2.347   6.035   6.924 -0.2928 -0.3946  0.7779
   95CHL1  H19A 9477   2.424   6.030   7.004 -1.6362 -1.9454  2.0027
   95CHL1  H19B 9478   2.274   5.955   6.951  0.7327 -0.6470  2.8920
   95CHL1  H19C 9479   2.387   6.014   6.823 -0.9122 -0.8519  0.6254
   95CHL1    C1 9480   2.134   6.178   6.858  0.7807 -0.1626  0.2878
   95CHL1   H1A 9481   2.084   6.082   6.884  0.1300  0.5662  1.7361
   95CHL1   H1B 9482   2.082   6.267   6.898 -0.8133 -0.7565 -0.4069
   95CHL1    C2 9483   2.152   6.186   6.707  0.2630 -0.1432 -0.0666
   95CHL1   H2A 9484   2.058   6.193   6.648 -0.3076 -2.3970  0.5320
   95CHL1   H2B 9485   2.193   6.086   6.679 -2.5607 -1.4236  0.2675
   95CHL1   C20 9486   2.264   6.072   7.653  0.6984  0.2197  0.2014
   95CHL1   H20 9487   2.360   6.016   7.666  1.0128  0.3722 -1.3939
   95CHL1   C21 9488   2.151   5.969   7.626  0.1774  0.2229 -0.2674
   95CHL1  H21A 9489   2.056   6.025   7.628  0.5239  0.8021  0.3098
   95CHL1  H21B 9490   2.147   5.899   7.713 -0.5529 -0.7429 -1.0621
   95CHL1  H21C 9491   2.171   5.907   7.536  0.9727  0.4253 -0.2386
   95CHL1   C22 9492   2.238   6.138   7.793 -0.1001 -0.3941 -0.0824
   95CHL1  H22A 9493   2.303   6.220   7.828 -0.4604  1.0767 -2.7516
   95CHL1  H22B 9494   2.135   6.181   7.799  0.7366  1.4539  1.6454
   95CHL1   C23 9495   2.246   6.040   7.906 -0.1525 -0.7933 -0.1334
   95CHL1  H23A 9496   2.251   6.099   8.000  0.0236 -0.0189 -0.6318
   95CHL1  H23B 9497   2.149   5.985   7.914  0.2545 -1.4196  0.6525
   95CHL1   C24 9498   2.361   5.941   7.905  0.5854 -0.0310 -0.2024
   95CHL1  H24A 9499   2.359   5.882   7.811  0.2698  0.0250 -0.2301
   95CHL1  H24B 9500   2.450   6.006   7.903  0.4768  0.1600  0.7613
   95CHL1   C25 9501   2.361   5.834   8.009 -0.3475  0.2449 -0.4829
   95CHL1   H25 9502   2.370   5.885   8.108  0.5678  1.3792 -1.1431
   95CHL1   C26 9503   2.233   5.761   8.030 -0.3650 -0.3295  0.2964
   95CHL1  H26A 9504   2.150   5.832   8.047  0.2742  0.5017 -0.0195
   95CHL1  H26B 9505   2.217   5.704   7.936  1.8724 -2.7646  1.3227
   95CHL1  H26C 9506   2.220   5.688   8.113  0.4196  1.3088  1.9066
   95CHL1   C27 9507   2.482   5.744   7.988  0.7780 -0.0253  0.4707
   95CHL1  H27A 9508   2.566   5.806   7.949 -1.5608  1.6427 -2.0997
   95CHL1  H27B 9509   2.516   5.698   8.083 -0.3679  0.0022  0.9089
   95CHL1  H27C 9510   2.464   5.668   7.909  1.8530  0.6292 -0.4133
   96CHL1    C3 9511   2.045   5.653   6.649 -0.9438  0.3986  0.2272
   96CHL1    H3 9512   2.114   5.566   6.657  1.2222  1.6543 -3.6522
   96CHL1    O3 9513   2.043   5.696   6.518 -0.5778 -0.8110  0.8107
   96CHL1   H3' 9514   2.103   5.640   6.469 -1.1051 -1.7108  1.1777
   96CHL1    C4 9515   1.906   5.620   6.696  0.0965  0.0680  0.0430
   96CHL1   H4A 9516   1.834   5.702   6.676  0.7533  0.9403  1.2223
   96CHL1   H4B 9517   1.882   5.530   6.635 -0.4655  0.0077  0.3485
   96CHL1    C5 9518   1.894   5.585   6.842  0.2961  0.4047 -0.0891
   96CHL1    C6 9519   1.830   5.473   6.880 -0.2145  0.4181  0.1812
   96CHL1    H6 9520   1.777   5.414   6.804  2.2689 -0.6975 -0.7181
   96CHL1    C7 9521   1.811   5.432   7.027  0.0355 -0.3004 -0.2856
   96CHL1   H7A 9522   1.702   5.413   7.035 -0.0666 -0.1393 -1.3080
   96CHL1   H7B 9523   1.860   5.334   7.043 -0.6121 -0.3687  1.4118
   96CHL1    C8 9524   1.849   5.544   7.128  0.4485  0.5775 -0.2565
   96CHL1    H8 9525   1.769   5.621   7.115  1.5239  1.5994 -0.9329
   96CHL1   C14 9526   1.855   5.495   7.274  0.7425  0.7421  0.4113
   96CHL1   H14 9527   1.937   5.420   7.270 -0.3387 -0.3852 -1.4489
   96CHL1   C15 9528   1.741   5.403   7.333 -0.0611 -0.2926 -0.1012
   96CHL1  H15A 9529   1.643   5.446   7.300 -0.4712  0.1461  1.6509
   96CHL1  H15B 9530   1.744   5.297   7.301 -0.5045  0.4767 -2.8212
   96CHL1   C16 9531   1.764   5.416   7.484  0.2005 -0.8249 -0.3145
   96CHL1  H16A 9532   1.676   5.464   7.532 -0.7439 -1.2144 -1.6342
   96CHL1  H16B 9533   1.758   5.319   7.539 -0.6446 -1.3161 -1.2541
   96CHL1   C17 9534   1.891   5.503   7.503 -0.8581  0.3764  0.6894
   96CHL1   H17 9535   1.989   5.451   7.500 -1.6355 -1.2481  2.9265
   96CHL1   C13 9536   1.902   5.594   7.381 -0.6663  0.0323 -0.3343
   96CHL1   C18 9537   1.803   5.712   7.386 -0.1843 -1.2896 -0.1386
   96CHL1  H18A 9538   1.771   5.742   7.283  1.1198  1.2035  0.1275
   96CHL1  H18B 9539   1.715   5.680   7.446  0.5072 -0.7183  1.1863
   96CHL1  H18C 9540   1.849   5.796   7.442 -2.0374 -0.0336 -0.4255
   96CHL1   C12 9541   2.040   5.650   7.341 -0.1276  0.2429  0.4404
   96CHL1  H12A 9542   2.075   5.726   7.413  0.8035 -1.9224  2.3093
   96CHL1  H12B 9543   2.110   5.563   7.336 -1.9020 -1.2178  0.4184
   96CHL1   C11 9544   2.041   5.711   7.197 -0.1813 -0.1967  0.1241
   96CHL1  H11A 9545   1.990   5.807   7.215 -0.5505 -1.0136  3.6457
   96CHL1  H11B 9546   2.146   5.731   7.166 -0.2215 -0.8734 -0.4833
   96CHL1    C9 9547   1.983   5.615   7.086  1.0925  0.1414 -0.1191
   96CHL1    H9 9548   2.052   5.528   7.087 -0.7246 -1.3275  0.1232
   96CHL1   C10 9549   1.968   5.681   6.942  0.3189 -0.4968  0.1823
   96CHL1   C19 9550   1.872   5.810   6.957  0.4392  0.7270 -0.1079
   96CHL1  H19A 9551   1.938   5.898   6.976  1.6166 -0.0531 -0.5470
   96CHL1  H19B 9552   1.821   5.828   6.860  0.6655  2.2689  0.0431
   96CHL1  H19C 9553   1.809   5.804   7.047 -2.0397  0.2160 -1.8260
   96CHL1    C1 9554   2.103   5.719   6.893  0.1084 -1.0613 -0.0890
   96CHL1   H1A 9555   2.146   5.803   6.953  0.9154 -2.8358  1.8665
   96CHL1   H1B 9556   2.176   5.637   6.910  1.8074  0.5463  0.6384
   96CHL1    C2 9557   2.113   5.763   6.746  0.2220  0.4571 -0.7713
   96CHL1   H2A 9558   2.218   5.780   6.713  0.2062  0.3255 -0.8964
   96CHL1   H2B 9559   2.061   5.860   6.732  1.5786  1.6745  2.3580
   96CHL1   C20 9560   1.895   5.569   7.640  0.4369 -0.5029 -0.2410
   96CHL1   H20 9561   1.821   5.651   7.635  0.9717 -0.0107 -0.1238
   96CHL1   C21 9562   2.036   5.627   7.667 -0.1056 -0.1056  0.0549
   96CHL1  H21A 9563   2.113   5.559   7.625 -0.3224 -0.0872 -0.3844
   96CHL1  H21B 9564   2.045   5.633   7.777 -0.0633 -0.9146  0.1034
   96CHL1  H21C 9565   2.042   5.731   7.629  0.5083 -0.8710 -2.0548
   96CHL1   C22 9566   1.867   5.464   7.758  0.1913 -0.1849  0.8592
   96CHL1  H22A 9567   1.774   5.408   7.737 -0.5775  0.7114  1.8574
   96CHL1  H22B 9568   1.957   5.398   7.755  0.3094  0.0300 -1.0577
   96CHL1   C23 9569   1.841   5.513   7.903  0.3253 -0.7491  0.2849
   96CHL1  H23A 9570   1.924   5.551   7.966  2.3385 -1.9646 -1.5575
   96CHL1  H23B 9571   1.759   5.587   7.900  1.8829  0.9950  0.1582
   96CHL1   C24 9572   1.774   5.396   7.982  0.7393  0.3735 -0.4829
   96CHL1  H24A 9573   1.667   5.385   7.953  0.6073 -2.8462  1.0227
   96CHL1  H24B 9574   1.808   5.295   7.949  0.4942 -0.9048  3.0084
   96CHL1   C25 9575   1.798   5.396   8.140  0.5022  0.4254  0.0854
   96CHL1   H25 9576   1.787   5.500   8.177 -0.7179  1.0476 -1.9368
   96CHL1   C26 9577   1.697   5.313   8.206 -0.6358  0.5210 -0.4156
   96CHL1  H26A 9578   1.714   5.205   8.185  0.6566  0.7682 -0.7076
   96CHL1  H26B 9579   1.701   5.328   8.316  0.6369 -2.4759  0.0142
   96CHL1  H26C 9580   1.594   5.336   8.172 -0.9269  0.7966  0.6539
   96CHL1   C27 9581   1.934   5.333   8.178  0.6390  0.4606 -0.0946
   96CHL1  H27A 9582   1.941   5.355   8.286  0.7695 -0.2923  0.0512
   96CHL1  H27B 9583   1.954   5.225   8.160 -1.1423  0.0101  0.6033
   96CHL1  H27C 9584   2.013   5.386   8.120  0.1905 -0.1984 -1.3209
   97OSM      N 9585   1.140   6.753  11.237  0.0653 -0.2716 -0.7068
   97OSM    C15 9586   1.238   6.808  11.333 -0.3802  0.2795 -0.2846
   97OSM   H15A 9587   1.318   6.849  11.273  0.4020  0.7834  1.0731
   97OSM   H15B 9588   1.274   6.732  11.400 -0.1018  0.5986 -0.0676
   97OSM   H15C 9589   1.190   6.889  11.386 -0.0074 -0.2314  0.8469
   97OSM    C14 9590   1.024   6.710  11.315 -0.3358  0.5811 -0.2179
   97OSM   H14A 9591   0.975   6.797  11.359 -0.4786  1.2465 -1.6656
   97OSM   H14B 9592   1.047   6.639  11.393 -3.2115  0.1360  0.2697
   97OSM   H14C 9593   0.952   6.672  11.244 -1.3943  1.3840  0.4085
   97OSM    C13 9594   1.097   6.848  11.125 -0.0242  0.6037 -0.3274
   97OSM   H13A 9595   1.090   6.947  11.167  0.8503 -0.2291  1.9050
   97OSM   H13B 9596   1.002   6.829  11.079 -0.3232 -1.2175  0.9678
   97OSM   H13C 9597   1.170   6.845  11.045 -1.8617 -0.0953 -2.0073
   97OSM    C12 9598   1.203   6.629  11.171  0.2867 -0.1674  0.1058
   97OSM   H12A 9599   1.215   6.558  11.252  0.1622 -1.0357 -0.6365
   97OSM   H12B 9600   1.297   6.663  11.130 -0.1533 -1.8793 -2.3951
   97OSM    C11 9601   1.121   6.561  11.055  0.2257 -0.4319 -0.1265
   97OSM   H11A 9602   1.183   6.486  11.002 -1.4400 -1.1182 -1.1201
   97OSM   H11B 9603   1.094   6.628  10.971 -2.8693  1.8429  2.5567
   97OSM      P 9604   0.997   6.361  11.178 -0.1465 -0.1272  0.1833
   97OSM    O13 9605   1.129   6.325  11.233  0.4282 -0.0000  0.0617
   97OSM    O14 9606   0.871   6.350  11.255  0.1626  0.3060  0.3149
   97OSM    O11 9607   0.976   6.277  11.048  0.4770  0.0183  0.1694
   97OSM    O12 9608   1.001   6.507  11.109  0.4781 -0.1716  0.5633
   97OSM    C1S 9609   0.855   6.269  10.978  0.1315 -0.2835 -0.5041
   97OSM    H1S 9610   0.783   6.344  11.018 -1.4797 -1.6567 -0.7620
   97OSM    H1T 9611   0.800   6.178  11.011  1.4168 -1.5275 -1.7430
   97OSM     NF 9612   0.733   6.302  10.761 -0.3666 -0.0865  0.0597
   97OSM    HNF 9613   0.696   6.230  10.703 -1.2122  0.3802  0.0091
   97OSM    C2S 9614   0.865   6.286  10.823 -0.6524 -0.1019  0.2568
   97OSM    H2S 9615   0.915   6.382  10.800  2.1007 -0.7535  3.1662
   97OSM    C3S 9616   0.955   6.176  10.764 -0.4676 -0.2040 -0.2589
   97OSM    H3S 9617   0.908   6.077  10.781 -0.7997  0.1118  0.6494
   97OSM     O3 9618   1.082   6.163  10.833  0.2033  0.4059 -0.0143
   97OSM    HO3 9619   1.060   6.193  10.921 -0.9369 -0.5670  0.0486
   97OSM    C4S 9620   0.990   6.204  10.622  1.1562 -0.1928 -0.5302
   97OSM    H4S 9621   1.047   6.294  10.598 -0.7842  1.5629  1.2303
   97OSM    C5S 9622   0.967   6.123  10.519  0.1916 -0.6555  0.2127
   97OSM    H5S 9623   0.919   6.028  10.547 -0.8481 -0.0897  0.3776
   97OSM    C6S 9624   1.007   6.135  10.374  0.2659 -0.7580 -0.1315
   97OSM    H6S 9625   0.922   6.121  10.304 -1.7423  1.2692  1.8232
   97OSM    H6T 9626   1.062   6.043  10.345  0.6368  0.1217 -2.3406
   97OSM    C7S 9627   1.090   6.266  10.336  0.3331 -0.6362 -0.0541
   97OSM    H7S 9628   1.181   6.266  10.400  1.6650 -1.2206 -1.8882
   97OSM    H7T 9629   1.019   6.344  10.371 -0.9441 -0.8451 -2.0563
   97OSM    C8S 9630   1.130   6.270  10.191  0.2045 -0.1643 -0.0490
   97OSM    H8S 9631   1.183   6.367  10.175 -3.0617  1.8559  0.8038
   97OSM    H8T 9632   1.038   6.281  10.130  0.1466 -1.6759 -0.2522
   97OSM    C9S 9633   1.199   6.146  10.136 -0.5321  0.2473 -0.0480
   97OSM    H9S 9634   1.133   6.056  10.140 -0.4588  0.3123  3.2527
   97OSM    H9T 9635   1.289   6.139  10.200 -0.4827  0.2619 -0.1156
   97OSM   C10S 9636   1.261   6.174   9.993  0.9617 -0.2765 -0.1823
   97OSM   H10S 9637   1.317   6.270   9.995 -0.1140  0.3525  0.9071
   97OSM   H10T 9638   1.186   6.188   9.912 -0.0817 -1.4872  0.5634
   97OSM   C11S 9639   1.355   6.064   9.943  0.3040  0.6171  0.4934
   97OSM   H11S 9640   1.305   5.965   9.945  0.2763  0.6124 -0.1096
   97OSM   H11T 9641   1.441   6.054  10.012 -1.9476 -1.8939  3.0569
   97OSM   C12S 9642   1.409   6.099   9.799  0.4533  0.4315 -0.4079
   97OSM   H12S 9643   1.494   6.029   9.778  1.5628  1.9180 -0.9437
   97OSM   H12T 9644   1.451   6.201   9.790 -0.3044  0.6941 -1.0372
   97OSM   C13S 9645   1.294   6.081   9.687 -0.0667 -0.5688 -0.0326
   97OSM   H13S 9646   1.216   6.159   9.698 -0.8203 -1.1554 -1.0593
   97OSM   H13T 9647   1.245   5.983   9.705 -0.2004 -0.9873 -2.4493
   97OSM   C14S 9648   1.357   6.066   9.555 -0.4915  0.1695 -0.3955
   97OSM   H14S 9649   1.460   6.029   9.572  0.0422  0.3252 -3.0403
   97OSM   H14T 9650   1.379   6.169   9.518 -0.6154  0.1712 -0.4639
   97OSM   C15S 9651   1.277   5.988   9.455  0.4630 -0.0891  0.6697
   97OSM   H15S 9652   1.185   6.050   9.444 -0.2073 -1.4294 -1.6106
   97OSM   H15T 9653   1.261   5.889   9.502 -1.5275  1.5462  3.5800
   97OSM   C16S 9654   1.348   5.976   9.313 -0.0034 -0.3762  0.3728
   97OSM   H16S 9655   1.437   5.910   9.322 -2.2434 -3.2094  2.8376
   97OSM   H16T 9656   1.393   6.072   9.282 -0.6648 -0.1286  0.1590
   97OSM   C17S 9657   1.261   5.926   9.199 -0.2726 -0.1162 -0.3843
   97OSM   H17S 9658   1.166   5.983   9.183  1.1325  2.3323 -0.2576
   97OSM   H17T 9659   1.241   5.818   9.215  1.8998 -0.6655 -1.2221
   97OSM   C18S 9660   1.326   5.929   9.062  0.1289 -0.0513 -0.1313
   97OSM   H18S 9661   1.339   6.037   9.044  0.4546  0.0976  0.9937
   97OSM   H18T 9662   1.256   5.892   8.984  0.4778  2.3764 -1.6447
   97OSM   H18U 9663   1.426   5.882   9.059 -0.0443 -0.4372  0.0203
   97OSM    C1F 9664   0.651   6.405  10.786 -0.0278 -0.6149  0.6454
   97OSM     OF 9665   0.691   6.498  10.853 -0.5919 -0.0977 -0.3323
   97OSM    C2F 9666   0.514   6.400  10.723  0.3274 -0.1588 -0.3873
   97OSM    H2F 9667   0.441   6.387  10.806 -0.2846  0.7287 -0.7734
   97OSM    H2G 9668   0.503   6.314  10.655 -2.8991  1.6503 -2.2783
   97OSM    C3F 9669   0.490   6.531  10.643 -0.1376  0.5119  0.4232
   97OSM    H3F 9670   0.504   6.619  10.710  3.0811  0.3529  0.0337
   97OSM    H3G 9671   0.382   6.518  10.624 -0.6492  0.7360  3.0505
   97OSM    C4F 9672   0.565   6.549  10.512 -0.0652  0.5313  0.0617
   97OSM    H4F 9673   0.671   6.571  10.536  0.4503  0.0705 -1.7445
   97OSM    H4G 9674   0.512   6.635  10.465 -2.7013 -1.2441 -0.3539
   97OSM    C5F 9675   0.563   6.423  10.429 -0.0037  0.7464  0.8420
   97OSM    H5F 9676   0.456   6.392  10.427 -0.8452  3.5937 -0.1573
   97OSM    H5G 9677   0.620   6.338  10.472  1.9681  1.8171  0.3686
   97OSM    C6F 9678   0.623   6.437  10.295  0.1474  0.5122 -0.2607
   97OSM    H6F 9679   0.734   6.446  10.300  0.3955 -1.9500 -0.5830
   97OSM    H6G 9680   0.594   6.524  10.233  1.0455  1.0577  0.0683
   97OSM    C7F 9681   0.596   6.311  10.207  0.1215 -0.0944 -0.1735
   97OSM    H7F 9682   0.489   6.313  10.180 -0.9018 -0.7520  3.4738
   97OSM    H7G 9683   0.621   6.219  10.264  1.9945  1.1894  1.1415
   97OSM    C8F 9684   0.687   6.319  10.081 -0.2151 -0.5110  0.6040
   97OSM    H8F 9685   0.795   6.336  10.101  0.0821  0.4229 -1.6015
   97OSM    H8G 9686   0.651   6.406  10.023 -1.4421 -2.1607 -1.1233
   97OSM    C9F 9687   0.665   6.194  10.001 -0.3780  0.2460  0.0119
   97OSM    H9F 9688   0.705   6.099  10.038  1.0991  2.1148  3.5012
   97OSM   C10F 9689   0.606   6.187   9.879  0.6191  1.2452  0.7652
   97OSM   H10F 9690   0.598   6.088   9.831 -1.3675  0.9064  1.7413
   97OSM   C11F 9691   0.545   6.293   9.801 -0.2469  0.6070  0.1693
   97OSM   H11F 9692   0.622   6.363   9.764 -0.8294  0.6581 -0.9613
   97OSM   H11G 9693   0.468   6.349   9.859 -0.2420  0.1830  0.5871
   97OSM   C12F 9694   0.467   6.263   9.668 -0.2531  0.6925  0.1427
   97OSM   H12F 9695   0.399   6.351   9.663  0.0565  0.9857  1.0663
   97OSM   H12G 9696   0.408   6.170   9.682 -0.2146  1.3662  5.7890
   97OSM   C13F 9697   0.555   6.253   9.537 -0.7098 -0.1606 -0.9644
   97OSM   H13F 9698   0.632   6.173   9.543 -1.3871 -1.0848 -3.8397
   97OSM   H13G 9699   0.617   6.344   9.521 -1.9825  0.8055 -0.4792
   97OSM   C14F 9700   0.469   6.223   9.419  0.2492  0.2421 -0.3619
   97OSM   H14F 9701   0.383   6.289   9.445  0.4160  0.4113 -0.2425
   97OSM   H14G 9702   0.429   6.120   9.407  1.6207 -0.5277  1.3960
   97OSM   C15F 9703   0.526   6.262   9.287 -0.3902  0.3712 -0.4677
   97OSM   H15F 9704   0.623   6.208   9.274  1.3751  3.1975  0.3721
   97OSM   H15G 9705   0.557   6.369   9.285  3.4103 -0.5751  1.3939
   97OSM   C16F 9706   0.434   6.228   9.168  0.8197  0.2120 -0.7031
   97OSM   H16F 9707   0.359   6.310   9.166  1.0200  0.5145  2.1796
   97OSM   H16G 9708   0.376   6.137   9.194  1.6636  0.1812  1.0974
   97OSM   C17F 9709   0.508   6.198   9.034  0.4601  0.2247  0.0340
   97OSM   H17F 9710   0.581   6.114   9.026  0.3569  0.1253  0.1253
   97OSM   H17G 9711   0.561   6.290   9.002  0.3064  0.6186  0.9278
   97OSM   C18F 9712   0.399   6.167   8.926  0.3597 -0.2476 -0.0221
   97OSM   H18F 9713   0.360   6.067   8.953  2.4283 -1.1608 -0.2961
   97OSM   H18G 9714   0.457   6.174   8.831  1.0640 -0.5110  0.3883
   97OSM   H18H 9715   0.326   6.250   8.925  0.6867  0.0729  1.8958
   98OSM      N 9716   6.725   6.309  11.330 -0.0953 -1.0859 -0.0129
   98OSM    C15 9717   6.700   6.392  11.449 -0.1746  0.5031  0.1164
   98OSM   H15A 9718   6.770   6.367  11.527 -1.8392  1.7482  2.0639
   98OSM   H15B 9719   6.598   6.377  11.480  0.6869 -4.2712  0.9699
   98OSM   H15C 9720   6.711   6.497  11.423  1.0375 -0.0017 -1.4920
   98OSM    C14 9721   6.869   6.338  11.289  0.0541 -0.1761  0.2102
   98OSM   H14A 9722   6.920   6.320  11.382  1.0719  2.5237  0.2095
   98OSM   H14B 9723   6.896   6.434  11.248  1.0430 -0.2424  0.6982
   98OSM   H14C 9724   6.910   6.265  11.219 -2.0814  0.4506 -1.7531
   98OSM    C13 9725   6.718   6.172  11.381 -0.0041  0.1825 -0.0822
   98OSM   H13A 9726   6.769   6.153  11.475  2.0965  1.7103 -0.8675
   98OSM   H13B 9727   6.767   6.112  11.306 -0.0378  0.5333 -0.3849
   98OSM   H13C 9728   6.616   6.139  11.388 -0.3464  1.2607  0.1224
   98OSM    C12 9729   6.628   6.342  11.215  0.1778  0.4517 -0.6366
   98OSM   H12A 9730   6.658   6.432  11.163 -1.0208 -0.1530 -2.4387
   98OSM   H12B 9731   6.538   6.361  11.272  2.0061 -0.3039  2.6504
   98OSM    C11 9732   6.599   6.244  11.099 -0.0522 -0.3253  0.3452
   98OSM   H11A 9733   6.525   6.296  11.034 -0.4737  1.5063  2.2747
   98OSM   H11B 9734   6.551   6.151  11.135 -0.2421 -0.8931 -1.2919
   98OSM      P 9735   6.813   6.103  11.030  0.5796  0.2795  0.4805
   98OSM    O13 9736   6.955   6.151  11.022  0.2486  0.1857 -0.6137
   98OSM    O14 9737   6.777   6.009  11.139  0.5476 -0.7367 -0.8766
   98OSM    O11 9738   6.777   6.022  10.900 -0.1797 -0.4719  0.2195
   98OSM    O12 9739   6.712   6.224  11.018 -0.3808 -0.2729 -0.1191
   98OSM    C1S 9740   6.709   6.086  10.788 -0.6059  0.1113 -0.4429
   98OSM    H1S 9741   6.761   6.181  10.764 -2.4534  1.9901  2.6645
   98OSM    H1T 9742   6.606   6.112  10.820  0.0095 -0.1357  1.8353
   98OSM     NF 9743   6.732   6.070  10.551 -0.6200  0.0589 -0.3881
   98OSM    HNF 9744   6.651   6.074  10.493 -0.6813  3.6193 -0.1712
   98OSM    C2S 9745   6.718   5.993  10.669  0.2154 -0.2873  0.6353
   98OSM    H2S 9746   6.802   5.921  10.683  0.6107  0.7406  3.9587
   98OSM    C3S 9747   6.596   5.891  10.694  0.2187  0.0883  0.0437
   98OSM    H3S 9748   6.504   5.953  10.699  1.2551  1.6565  0.0398
   98OSM     O3 9749   6.603   5.828  10.818 -0.2703 -0.0814  0.1128
   98OSM    HO3 9750   6.655   5.894  10.864 -1.7933  2.3445 -1.5340
   98OSM    C4S 9751   6.593   5.794  10.579  0.7191 -0.0436  0.3970
   98OSM    H4S 9752   6.672   5.718  10.591  0.8802 -0.1297 -1.1074
   98OSM    C5S 9753   6.503   5.783  10.484  0.3429 -0.0666  0.3959
   98OSM    H5S 9754   6.423   5.859  10.483 -0.6914 -1.1401  1.3520
   98OSM    C6S 9755   6.487   5.675  10.373 -0.2880 -0.5707 -0.6591
   98OSM    H6S 9756   6.434   5.730  10.293 -2.6565 -0.8759  0.6594
   98OSM    H6T 9757   6.421   5.590  10.400 -0.2071 -1.8058 -4.1276
   98OSM    C7S 9758   6.610   5.602  10.323  0.1287 -0.2496  0.3540
   98OSM    H7S 9759   6.663   5.556  10.409  1.8476 -1.4789 -1.3465
   98OSM    H7T 9760   6.675   5.681  10.278  0.3598 -0.6006  0.0778
   98OSM    C8S 9761   6.587   5.499  10.215 -0.2663  0.2509  0.0125
   98OSM    H8S 9762   6.490   5.445  10.212 -0.3397  0.4187 -0.6768
   98OSM    H8T 9763   6.663   5.421  10.233  0.4174  0.7010 -0.8834
   98OSM    C9S 9764   6.609   5.558  10.072  0.5341 -0.3642  0.3365
   98OSM    H9S 9765   6.675   5.645  10.092  0.9142 -0.5246 -0.2160
   98OSM    H9T 9766   6.510   5.597  10.040  2.2947  2.1543 -2.2416
   98OSM   C10S 9767   6.683   5.459   9.973  0.6939  0.3265 -0.5144
   98OSM   H10S 9768   6.623   5.366   9.964  2.1975 -0.4485 -3.0537
   98OSM   H10T 9769   6.779   5.426  10.020 -0.1969  1.7644  2.4248
   98OSM   C11S 9770   6.701   5.512   9.834  0.4033 -0.6207  0.2093
   98OSM   H11S 9771   6.768   5.601   9.841  1.0495 -1.1401  0.6677
   98OSM   H11T 9772   6.608   5.540   9.780  0.3730 -0.1392  0.5072
   98OSM   C12S 9773   6.776   5.410   9.738  0.1337  0.0945 -0.2104
   98OSM   H12S 9774   6.709   5.322   9.747 -0.7058  0.6407 -1.0227
   98OSM   H12T 9775   6.883   5.398   9.765  0.5494 -0.1153 -1.8978
   98OSM   C13S 9776   6.779   5.460   9.594 -0.2681  0.4494 -0.9420
   98OSM   H13S 9777   6.817   5.564   9.603  1.2707 -0.1198 -0.7612
   98OSM   H13T 9778   6.673   5.478   9.565 -0.3991  1.7800  0.2644
   98OSM   C14S 9779   6.855   5.371   9.488  0.2396 -0.1097 -0.5347
   98OSM   H14S 9780   6.838   5.261   9.489 -0.8942  0.0619 -0.3749
   98OSM   H14T 9781   6.960   5.392   9.517  0.9838  2.2773 -4.6687
   98OSM   C15S 9782   6.830   5.418   9.345 -0.5607 -0.9453 -0.0474
   98OSM   H15S 9783   6.871   5.520   9.325 -3.3001  0.1255 -0.4508
   98OSM   H15T 9784   6.721   5.437   9.342 -0.7478 -2.1207 -0.7405
   98OSM   C16S 9785   6.870   5.321   9.236  0.8640  0.0861 -0.2683
   98OSM   H16S 9786   6.820   5.224   9.253  1.8246 -0.6851 -1.7315
   98OSM   H16T 9787   6.980   5.305   9.239  0.6793 -1.0294  0.4477
   98OSM   C17S 9788   6.828   5.376   9.095 -0.0139  0.0676 -0.7476
   98OSM   H17S 9789   6.874   5.474   9.069  1.8254  0.7099  4.4344
   98OSM   H17T 9790   6.718   5.389   9.088 -0.4010 -2.2257  0.4697
   98OSM   C18S 9791   6.877   5.281   8.987 -0.0425 -0.2513  0.3366
   98OSM   H18S 9792   6.825   5.183   8.999  0.6370 -0.4395  1.8955
   98OSM   H18T 9793   6.983   5.251   9.001  0.6554  2.6114  1.3347
   98OSM   H18U 9794   6.861   5.316   8.883 -0.1484 -3.2801 -0.7133
   98OSM    C1F 9795   6.843   6.128  10.515  0.2607 -0.4739 -0.3553
   98OSM     OF 9796   6.929   6.141  10.602  0.0844  0.2399 -0.0452
   98OSM    C2F 9797   6.837   6.203  10.378 -0.0671 -0.4211 -0.3375
   98OSM    H2F 9798   6.732   6.237  10.360  0.4127  1.0592 -0.3938
   98OSM    H2G 9799   6.862   6.123  10.305 -0.1899 -3.0307  2.3592
   98OSM    C3F 9800   6.953   6.304  10.365 -0.2841  0.5100 -0.0625
   98OSM    H3F 9801   7.051   6.251  10.375  0.3450  1.9092  1.2909
   98OSM    H3G 9802   6.958   6.383  10.443 -0.0094  0.5324 -0.1034
   98OSM    C4F 9803   6.954   6.376  10.228  0.1043 -0.9409  0.9769
   98OSM    H4F 9804   7.032   6.455  10.235  0.7985 -1.3826 -1.3494
   98OSM    H4G 9805   6.854   6.423  10.215  1.3518  1.2438 -1.1866
   98OSM    C5F 9806   6.994   6.285  10.113 -0.0954  0.2902  0.0277
   98OSM    H5F 9807   6.929   6.199  10.085 -0.3498  0.9800 -1.5361
   98OSM    H5G 9808   7.090   6.235  10.138  0.2565 -0.6499 -3.0552
   98OSM    C6F 9809   7.007   6.361   9.980 -0.3465  0.6431 -0.2860
   98OSM    H6F 9810   7.078   6.298   9.923 -0.5324  0.5967 -0.4698
   98OSM    H6G 9811   7.037   6.466  10.001  1.5035  0.4034 -1.6542
   98OSM    C7F 9812   6.884   6.352   9.888  0.2075  0.0797  0.1803
   98OSM    H7F 9813   6.802   6.407   9.940 -0.1304  1.6330 -1.9207
   98OSM    H7G 9814   6.849   6.247   9.876 -0.9264  0.6730 -2.0647
   98OSM    C8F 9815   6.913   6.410   9.740  0.6325 -0.3210  0.4190
   98OSM    H8F 9816   6.821   6.387   9.683 -0.1156  2.3311  0.5097
   98OSM    H8G 9817   6.998   6.359   9.688 -0.5935 -0.8114 -1.1286
   98OSM    C9F 9818   6.937   6.563   9.753 -0.1032  0.3124  0.3203
   98OSM    H9F 9819   7.007   6.586   9.835 -0.4097 -2.0167  1.2683
   98OSM   C10F 9820   6.886   6.663   9.678  0.3839  0.0612 -0.3347
   98OSM   H10F 9821   6.908   6.765   9.714  1.6964  1.1722 -4.0247
   98OSM   C11F 9822   6.803   6.646   9.555  0.1447  0.0482  0.1560
   98OSM   H11F 9823   6.752   6.738   9.519  0.9989  0.4043 -0.1415
   98OSM   H11G 9824   6.731   6.568   9.588  1.5414 -0.7299  1.4116
   98OSM   C12F 9825   6.883   6.582   9.446 -1.0970  0.6061  0.7499
   98OSM   H12F 9826   6.813   6.558   9.363 -1.6641 -1.1991  1.7080
   98OSM   H12G 9827   6.922   6.482   9.474 -1.7069  0.5608  1.4587
   98OSM   C13F 9828   6.989   6.684   9.398 -0.4457  0.0574 -0.2397
   98OSM   H13F 9829   7.073   6.676   9.471 -0.1366 -1.1155 -0.7113
   98OSM   H13G 9830   6.944   6.783   9.379 -0.8215  0.3423  1.9501
   98OSM   C14F 9831   7.055   6.626   9.271 -0.0595 -0.2249 -0.1626
   98OSM   H14F 9832   6.981   6.572   9.209 -1.8373 -0.5849  2.1983
   98OSM   H14G 9833   7.118   6.538   9.293  1.2792  0.3223 -1.7203
   98OSM   C15F 9834   7.144   6.740   9.201 -0.1791  0.2592  0.0081
   98OSM   H15F 9835   7.197   6.786   9.286  0.2635  1.5274 -0.9503
   98OSM   H15G 9836   7.080   6.818   9.154  1.5311  1.4098 -0.4491
   98OSM   C16F 9837   7.248   6.696   9.098  0.1277  0.3418 -0.4503
   98OSM   H16F 9838   7.315   6.633   9.161  0.4739 -1.0505 -2.1636
   98OSM   H16G 9839   7.309   6.783   9.067 -2.0879  1.9965 -0.3515
   98OSM   C17F 9840   7.196   6.623   8.975  0.3656 -0.4707 -0.4026
   98OSM   H17F 9841   7.133   6.684   8.906 -0.5448  0.1397  0.9490
   98OSM   H17G 9842   7.143   6.527   8.994  1.9165 -1.3829 -0.6451
   98OSM   C18F 9843   7.313   6.578   8.886 -0.0398  0.0027 -0.0447
   98OSM   H18F 9844   7.382   6.512   8.944 -1.8691 -0.8429  1.1986
   98OSM   H18G 9845   7.371   6.667   8.852 -1.4918  0.5221 -1.2253
   98OSM   H18H 9846   7.271   6.522   8.800  2.6108 -1.8540 -0.1930
   99OSM      N 9847   1.762   6.053  11.171 -0.4330 -0.3034 -0.6054
   99OSM    C15 9848   1.654   6.156  11.175 -0.0181 -0.0017 -1.1295
   99OSM   H15A 9849   1.640   6.207  11.269  0.5879 -2.6363  0.4404
   99OSM   H15B 9850   1.557   6.109  11.164  0.0332 -0.1444 -0.9842
   99OSM   H15C 9851   1.675   6.231  11.101 -1.9132 -0.2217 -1.9252
   99OSM    C14 9852   1.891   6.117  11.195 -0.8648 -0.5847  0.3291
   99OSM   H14A 9853   1.903   6.198  11.125 -1.8896 -0.2090  0.5854
   99OSM   H14B 9854   1.970   6.048  11.167 -0.6160  0.7749 -2.4745
   99OSM   H14C 9855   1.903   6.158  11.294  0.0910  1.3142 -0.5448
   99OSM    C13 9856   1.748   5.955  11.279  0.2971 -0.6326  0.6132
   99OSM   H13A 9857   1.835   5.891  11.279  0.7017 -0.0874  0.3396
   99OSM   H13B 9858   1.658   5.895  11.275  1.2990 -2.4886  4.0245
   99OSM   H13C 9859   1.753   6.009  11.373 -1.6542  0.8718 -0.1056
   99OSM    C12 9860   1.771   5.977  11.042  0.0156 -0.1634 -0.3651
   99OSM   H12A 9861   1.676   5.926  11.034 -0.0945  0.2717 -1.9591
   99OSM   H12B 9862   1.855   5.909  11.052  0.8770  0.8591 -0.6013
   99OSM    C11 9863   1.780   6.050  10.904 -0.2023  0.5310 -0.2278
   99OSM   H11A 9864   1.784   5.965  10.832 -0.5321 -0.2524  0.6744
   99OSM   H11B 9865   1.870   6.115  10.893 -1.3288  2.5038  1.7094
   99OSM      P 9866   1.673   6.270  10.815 -0.1383  0.3093  0.0257
   99OSM    O13 9867   1.532   6.307  10.773 -0.2513 -0.1282 -0.5448
   99OSM    O14 9868   1.744   6.360  10.903 -0.2425  0.6806 -0.8960
   99OSM    O11 9869   1.759   6.241  10.684 -0.5584 -0.2437  0.7356
   99OSM    O12 9870   1.666   6.121  10.872 -0.0370  0.3431 -0.6264
   99OSM    C1S 9871   1.784   6.352  10.601  0.3646  0.1007  0.0387
   99OSM    H1S 9872   1.871   6.402  10.647  1.1904 -1.1796 -0.0954
   99OSM    H1T 9873   1.694   6.418  10.604 -1.0168 -1.7749  1.0792
   99OSM     NF 9874   1.820   6.433  10.367  0.4135  0.1984 -0.0076
   99OSM    HNF 9875   1.738   6.457  10.316 -0.8086 -0.2100  1.7314
   99OSM    C2S 9876   1.816   6.314  10.453 -0.2354 -0.1843 -0.3884
   99OSM    H2S 9877   1.921   6.277  10.454 -0.3708 -0.5724  0.9363
   99OSM    C3S 9878   1.731   6.204  10.393  0.4058  0.5421 -0.1024
   99OSM    H3S 9879   1.626   6.241  10.392  0.1232 -0.1465  1.6551
   99OSM     O3 9880   1.714   6.087  10.467 -0.2183 -0.3631 -0.1814
   99OSM    HO3 9881   1.727   6.122  10.556  0.5119  0.4510 -0.6013
   99OSM    C4S 9882   1.786   6.177  10.257  0.9689 -0.3396 -0.5313
   99OSM    H4S 9883   1.889   6.141  10.247  0.9313 -0.4874 -0.3760
   99OSM    C5S 9884   1.708   6.197  10.145  0.0403  0.5609  0.6021
   99OSM    H5S 9885   1.603   6.227  10.155 -0.1708  0.1303 -0.2745
   99OSM    C6S 9886   1.765   6.178  10.003  0.3934 -0.4145  0.0168
   99OSM    H6S 9887   1.701   6.101   9.955 -0.1109 -0.1125  0.2092
   99OSM    H6T 9888   1.872   6.148   9.994  0.8587  0.8405  1.2555
   99OSM    C7S 9889   1.748   6.299   9.918 -0.7206 -0.2853  0.4483
   99OSM    H7S 9890   1.796   6.388   9.963 -0.9841  0.5809 -0.9680
   99OSM    H7T 9891   1.638   6.313   9.903 -1.1250 -2.7968  0.8022
   99OSM    C8S 9892   1.813   6.279   9.778  0.3128  0.6308  0.6336
   99OSM    H8S 9893   1.741   6.212   9.726  0.6362 -0.1561  1.1867
   99OSM    H8T 9894   1.909   6.228   9.803  1.2889  1.0254 -2.1204
   99OSM    C9S 9895   1.826   6.410   9.693  0.4338  0.5311 -0.1998
   99OSM    H9S 9896   1.887   6.485   9.748 -0.3313  1.5428 -0.7004
   99OSM    H9T 9897   1.729   6.462   9.677 -1.2105 -2.4211 -0.0558
   99OSM   C10S 9898   1.891   6.391   9.550 -0.0316  0.3155 -0.4238
   99OSM   H10S 9899   1.991   6.345   9.564 -0.2059  0.2829  0.8011
   99OSM   H10T 9900   1.898   6.495   9.511 -0.0385 -0.0612 -1.4321
   99OSM   C11S 9901   1.809   6.303   9.457  0.2304 -0.0909  0.5165
   99OSM   H11S 9902   1.713   6.357   9.440  0.6166  0.8059  1.1278
   99OSM   H11T 9903   1.799   6.204   9.505  0.1182  0.1997  1.1020
   99OSM   C12S 9904   1.874   6.288   9.320 -0.1674 -0.3195 -1.1095
   99OSM   H12S 9905   1.878   6.388   9.271 -0.1129 -1.2569 -3.0592
   99OSM   H12T 9906   1.978   6.253   9.333  0.1036  1.3150  1.5021
   99OSM   C13S 9907   1.797   6.202   9.224 -0.5029  0.0928 -0.4341
   99OSM   H13S 9908   1.689   6.226   9.229 -0.6862 -0.4012 -1.7565
   99OSM   H13T 9909   1.795   6.093   9.241  0.0584 -0.0908 -1.5032
   99OSM   C14S 9910   1.862   6.214   9.084 -0.4180 -0.5720 -0.2968
   99OSM   H14S 9911   1.964   6.171   9.086  0.1107  0.7259  1.5495
   99OSM   H14T 9912   1.883   6.321   9.062 -1.7860 -0.4662 -1.1746
   99OSM   C15S 9913   1.776   6.160   8.970  0.0129  0.9088  0.0771
   99OSM   H15S 9914   1.823   6.193   8.875 -1.0216 -0.1840 -0.8409
   99OSM   H15T 9915   1.680   6.214   8.979  1.0621  2.7620  0.4377
   99OSM   C16S 9916   1.732   6.013   8.973 -0.4595  0.0943 -0.4300
   99OSM   H16S 9917   1.657   5.988   8.895  0.5752  4.0905 -2.8560
   99OSM   H16T 9918   1.672   6.010   9.066 -0.0725  0.7105 -0.1641
   99OSM   C17S 9919   1.850   5.914   8.982  0.3205 -0.2601 -0.1559
   99OSM   H17S 9920   1.806   5.813   8.969  0.9754 -0.4238 -1.1593
   99OSM   H17T 9921   1.899   5.926   9.081 -1.2096  0.5562  0.5102
   99OSM   C18S 9922   1.955   5.932   8.872 -0.2170  0.0008  0.5129
   99OSM   H18S 9923   1.919   5.905   8.770 -0.2796 -0.4804  0.6600
   99OSM   H18T 9924   2.036   5.859   8.893 -0.4624 -1.2422 -2.6120
   99OSM   H18U 9925   1.996   6.035   8.873  2.3014 -0.9513 -0.8469
   99OSM    C1F 9926   1.924   6.519  10.378 -0.6426  0.4982  0.3159
   99OSM     OF 9927   2.018   6.492  10.446 -0.1513 -0.0198 -0.0367
   99OSM    C2F 9928   1.911   6.655  10.318  0.0902  0.1119  1.0854
   99OSM    H2F 9929   1.967   6.731  10.376 -0.1901  0.7462  0.5323
   99OSM    H2G 9930   1.806   6.687  10.298  0.3780  0.8395  0.7516
   99OSM    C3F 9931   1.959   6.647  10.172  0.1024  0.5569 -0.3522
   99OSM    H3F 9932   2.066   6.618  10.167  0.0082 -0.0801  0.9015
   99OSM    H3G 9933   1.915   6.564  10.113  1.7127 -0.6302  0.0784
   99OSM    C4F 9934   1.933   6.777  10.094 -0.3987 -0.1789 -0.2237
   99OSM    H4F 9935   2.004   6.856  10.126  0.1063 -1.1061  1.0010
   99OSM    H4G 9936   1.831   6.817  10.110  0.1752  0.4588  1.9700
   99OSM    C5F 9937   1.948   6.760   9.946 -0.5775 -0.8599 -0.6329
   99OSM    H5F 9938   1.902   6.849   9.898  3.9169  1.8030 -0.3309
   99OSM    H5G 9939   1.897   6.665   9.919  1.4801 -2.1303 -0.1543
   99OSM    C6F 9940   2.095   6.759   9.900 -0.1687 -0.0364  0.7896
   99OSM    H6F 9941   2.145   6.665   9.934  0.2468 -0.7892 -1.7865
   99OSM    H6G 9942   2.148   6.842   9.950  2.1005 -1.2103  0.4042
   99OSM    C7F 9943   2.100   6.773   9.744  0.3311  0.0263 -0.6027
   99OSM    H7F 9944   2.041   6.865   9.724 -2.2101 -0.5379  3.6614
   99OSM    H7G 9945   2.034   6.690   9.713 -1.3017 -0.3827  3.5582
   99OSM    C8F 9946   2.243   6.782   9.687  0.5444  0.0762  0.6873
   99OSM    H8F 9947   2.291   6.867   9.739  0.5263  0.9005 -0.6186
   99OSM    H8G 9948   2.225   6.796   9.578  1.3017  1.8880  0.7822
   99OSM    C9F 9949   2.304   6.651   9.714 -0.8978  0.3957 -0.1002
   99OSM    H9F 9950   2.352   6.659   9.813  0.1303  0.7962 -0.6310
   99OSM   C10F 9951   2.320   6.536   9.647 -0.3336 -0.5466  1.1700
   99OSM   H10F 9952   2.381   6.459   9.695  0.0813 -0.3490  0.9598
   99OSM   C11F 9953   2.272   6.522   9.502  0.4006  0.4623 -0.2095
   99OSM   H11F 9954   2.281   6.613   9.439  1.5177  1.0983  0.8604
   99OSM   H11G 9955   2.164   6.496   9.501  0.8383 -1.4447 -1.0790
   99OSM   C12F 9956   2.333   6.411   9.423  0.5324  0.0302 -0.1238
   99OSM   H12F 9957   2.329   6.314   9.476 -0.3165  0.3564  0.4325
   99OSM   H12G 9958   2.438   6.439   9.404  0.3272 -0.5113 -2.0763
   99OSM   C13F 9959   2.269   6.393   9.284 -0.0151 -0.2184  0.0288
   99OSM   H13F 9960   2.265   6.491   9.232 -0.5774 -0.3678 -0.2100
   99OSM   H13G 9961   2.166   6.351   9.283 -0.0394 -0.1463 -0.7202
   99OSM   C14F 9962   2.365   6.300   9.202 -0.2923 -0.7689 -0.6230
   99OSM   H14F 9963   2.396   6.226   9.279 -0.2804  1.0607  1.1634
   99OSM   H14G 9964   2.450   6.366   9.176  1.0049 -1.4685  1.7078
   99OSM   C15F 9965   2.307   6.227   9.080 -0.2524 -0.0594  0.1016
   99OSM   H15F 9966   2.225   6.159   9.109 -1.1744  0.8158 -0.4251
   99OSM   H15G 9967   2.383   6.159   9.036  1.5824  1.2885  1.0988
   99OSM   C16F 9968   2.246   6.328   8.973 -0.2848  0.7235  0.4790
   99OSM   H16F 9969   2.154   6.374   9.015 -0.3083  1.7620 -0.6770
   99OSM   H16G 9970   2.214   6.279   8.878  0.1412  0.4958  0.4525
   99OSM   C17F 9971   2.339   6.437   8.931  0.2122 -0.2743 -0.9927
   99OSM   H17F 9972   2.434   6.389   8.898  2.0246  1.6145  1.2888
   99OSM   H17G 9973   2.373   6.508   9.010 -0.3171 -0.0877 -0.9344
   99OSM   C18F 9974   2.278   6.521   8.821  1.0888 -0.0247  0.2706
   99OSM   H18F 9975   2.327   6.621   8.825 -0.3545  0.7482 -1.0926
   99OSM   H18G 9976   2.169   6.535   8.833  1.2243  2.1471 -0.8233
   99OSM   H18H 9977   2.290   6.487   8.716  2.0723  2.2540 -0.3917
  100OSM      N 9978   3.922   0.019  11.091  0.0100 -0.3544 -0.4017
  100OSM    C15 9979   3.810   0.034  11.190 -0.3110  0.7738  0.1603
  100OSM   H15A 9980   3.761  -0.061  11.200 -2.9317  2.0554  0.0808
  100OSM   H15B 9981   3.741   0.112  11.160 -1.0510 -0.5448 -1.6350
  100OSM   H15C 9982   3.849   0.046  11.290 -0.7232 -0.9334  0.5407
  100OSM    C14 9983   4.003  -0.093  11.135 -0.6372  0.0686 -0.1227
  100OSM   H14A 9984   4.094  -0.102  11.077  0.5303 -0.4185  1.7427
  100OSM   H14B 9985   3.949  -0.186  11.139 -0.0586 -0.3414 -1.3874
  100OSM   H14C 9986   4.037  -0.084  11.237 -1.6646 -0.7718  0.3028
  100OSM    C13 9987   3.853  -0.027  10.966 -0.1566  0.5244  0.3853
  100OSM   H13A 9988   3.825  -0.130  10.979  2.1100 -0.6353 -3.4191
  100OSM   H13B 9989   3.921  -0.013  10.884 -2.3781  1.3681 -1.3594
  100OSM   H13C 9990   3.755   0.020  10.960  1.1608  3.1751 -1.1478
  100OSM    C12 9991   4.008   0.145  11.083 -0.2139 -0.0100  0.3161
  100OSM   H12A 9992   4.086   0.128  11.010  1.8136 -0.2429  2.4750
  100OSM   H12B 9993   4.050   0.171  11.179  0.7525  0.5871 -0.2644
  100OSM    C11 9994   3.929   0.272  11.041  0.1348 -0.4457 -0.1418
  100OSM   H11A 9995   3.992   0.364  11.045  1.1193 -1.1046 -0.3587
  100OSM   H11B 9996   3.852   0.297  11.117  0.9402 -0.4267  0.6812
  100OSM      P 9997   3.764   0.374  10.871 -0.0613 -0.1673 -0.1419
  100OSM    O13 9998   3.638   0.314  10.917  0.1471  0.2502 -0.2493
  100OSM    O14 9999   3.801   0.508  10.919  0.3821 -0.3574  0.3569
  100OSM    O1110000   3.755   0.394  10.714  0.2251 -0.5543  0.3657
  100OSM    O1210001   3.881   0.271  10.905  0.4109  0.6944 -0.2971
  100OSM    C1S10002   3.859   0.364  10.623  0.8720  1.2573 -0.1225
  100OSM    H1S10003   3.858   0.255  10.600  0.9719  0.9661  1.1801
  100OSM    H1T10004   3.962   0.384  10.661  1.4369  0.2107 -1.0572
  100OSM     NF10005   3.927   0.377  10.381  0.1386  0.2867 -0.0174
  100OSM    HNF10006   4.017   0.418  10.366 -0.7489  1.6825 -1.6900
  100OSM    C2S10007   3.844   0.437  10.485  0.0833 -0.1876  0.8253
  100OSM    H2S10008   3.739   0.420  10.451 -0.4428  0.0620  2.2754
  100OSM    C3S10009   3.859   0.589  10.498 -0.2609 -0.3760 -0.2131
  100OSM    H3S10010   3.961   0.600  10.541  0.7757 -2.1077 -2.0803
  100OSM     O310011   3.774   0.648  10.596 -0.0181  0.3602  0.3388
  100OSM    HO310012   3.755   0.576  10.657  0.2787 -0.2267 -0.2558
  100OSM    C4S10013   3.856   0.659  10.358  0.4211  0.5812 -0.1235
  100OSM    H4S10014   3.955   0.667  10.310  0.1782 -1.0977 -0.9387
  100OSM    C5S10015   3.749   0.698  10.288 -0.3208  0.5072 -0.6026
  100OSM    H5S10016   3.648   0.680  10.329 -0.8900 -0.4469 -2.3658
  100OSM    C6S10017   3.772   0.751  10.147  0.1462  0.4312 -0.1550
  100OSM    H6S10018   3.877   0.758  10.111  0.0447  2.8878 -0.0211
  100OSM    H6T10019   3.746   0.859  10.144  2.0338  0.8911 -0.3844
  100OSM    C7S10020   3.667   0.684  10.052  1.0785  0.0212 -0.2475
  100OSM    H7S10021   3.569   0.695  10.102 -0.9665 -1.2730 -3.8113
  100OSM    H7T10022   3.692   0.576  10.042 -0.6534 -0.5802  1.5856
  100OSM    C8S10023   3.669   0.749   9.919 -0.2919 -0.6657 -0.1341
  100OSM    H8S10024   3.771   0.760   9.875 -0.5482  2.3697 -0.0953
  100OSM    H8T10025   3.628   0.852   9.914 -0.7051 -0.8781 -1.1317
  100OSM    C9S10026   3.586   0.672   9.828 -0.0498  0.4235  0.4880
  100OSM    H9S10027   3.484   0.666   9.872 -0.8992 -2.6758 -1.6889
  100OSM    H9T10028   3.626   0.568   9.825 -0.7186  0.0807  2.7550
  100OSM   C10S10029   3.579   0.735   9.686 -0.3693 -0.2181  1.0893
  100OSM   H10S10030   3.681   0.748   9.643 -1.6285  1.4310 -1.4703
  100OSM   H10T10031   3.541   0.839   9.696  1.1469  0.4195  0.4503
  100OSM   C11S10032   3.482   0.656   9.587 -0.4952 -0.0353  0.5240
  100OSM   H11S10033   3.379   0.673   9.624 -0.9086  1.3305 -1.1587
  100OSM   H11T10034   3.508   0.548   9.587 -0.2192  0.0004  2.9463
  100OSM   C12S10035   3.496   0.695   9.439  0.5839 -0.8230 -0.1675
  100OSM   H12S10036   3.602   0.711   9.410  0.1434 -0.5299 -1.6131
  100OSM   H12T10037   3.443   0.787   9.407 -0.1429 -0.3500  2.2839
  100OSM   C13S10038   3.429   0.585   9.351  0.1798  0.1363 -0.1796
  100OSM   H13S10039   3.320   0.606   9.340  0.1598 -0.3645 -0.9902
  100OSM   H13T10040   3.435   0.492   9.413  0.1173 -0.6183 -1.2975
  100OSM   C14S10041   3.517   0.568   9.225  0.3462  0.2370 -0.3813
  100OSM   H14S10042   3.619   0.526   9.243 -0.4752 -1.0870  1.3911
  100OSM   H14T10043   3.513   0.667   9.175  1.6145  0.7950  0.5766
  100OSM   C15S10044   3.449   0.467   9.134  0.2150  0.8256 -0.5424
  100OSM   H15S10045   3.357   0.511   9.089 -0.6238 -0.0894  0.2464
  100OSM   H15T10046   3.419   0.375   9.190  2.0932  0.5146 -0.0244
  100OSM   C16S10047   3.536   0.429   9.019 -0.4961  0.0607  0.3316
  100OSM   H16S10048   3.633   0.387   9.054 -0.0634 -0.3918 -1.3520
  100OSM   H16T10049   3.557   0.520   8.960  1.5402  0.6196  1.8368
  100OSM   C17S10050   3.475   0.317   8.934 -0.2618 -0.0266 -0.3831
  100OSM   H17S10051   3.395   0.377   8.885 -0.4091  0.6768  0.7165
  100OSM   H17T10052   3.434   0.227   8.985  0.0182 -1.5971 -2.8210
  100OSM   C18S10053   3.555   0.274   8.815 -0.7414 -0.1078 -0.0331
  100OSM   H18S10054   3.582   0.364   8.755  1.2630 -0.8285 -0.2687
  100OSM   H18T10055   3.502   0.205   8.746  0.7809 -1.6999  0.3412
  100OSM   H18U10056   3.649   0.225   8.849 -1.5552 -2.1295 -0.6506
  100OSM    C1F10057   3.894   0.262  10.324 -0.0915 -0.1510 -0.0390
  100OSM     OF10058   3.804   0.189  10.370  0.1108  0.0280 -0.3779
  100OSM    C2F10059   3.962   0.214  10.196  0.0116 -0.1057  0.2572
  100OSM    H2F10060   4.021   0.122  10.219 -1.3989 -1.3166 -0.8593
  100OSM    H2G10061   4.036   0.295  10.179 -2.1189  1.8820  0.2468
  100OSM    C3F10062   3.858   0.192  10.081 -0.2350 -0.5642  0.3354
  100OSM    H3F10063   3.793   0.109  10.114 -1.0082  0.7647  2.2546
  100OSM    H3G10064   3.921   0.175   9.991 -0.6005 -0.4592  0.0602
  100OSM    C4F10065   3.758   0.309  10.050  0.5361  0.0318 -0.1650
  100OSM    H4F10066   3.817   0.394  10.010 -0.0564  0.4362 -0.1879
  100OSM    H4G10067   3.704   0.348  10.139  0.5342  0.6042 -0.4113
  100OSM    C5F10068   3.654   0.282   9.942 -0.3448 -0.0710  0.0665
  100OSM    H5F10069   3.590   0.373   9.947 -0.3810  0.0948 -2.6284
  100OSM    H5G10070   3.586   0.199   9.972 -0.0478  0.3689  2.0070
  100OSM    C6F10071   3.711   0.248   9.804 -0.3274 -0.5090 -0.3809
  100OSM    H6F10072   3.773   0.158   9.824 -0.5822 -1.0644 -1.9800
  100OSM    H6G10073   3.776   0.330   9.769 -1.6549  0.5085 -0.5248
  100OSM    C7F10074   3.605   0.216   9.701 -0.9206  0.1557  0.0597
  100OSM    H7F10075   3.559   0.313   9.674  0.8429  0.6622 -1.1888
  100OSM    H7G10076   3.517   0.162   9.744 -2.3418  2.8002  0.5639
  100OSM    C8F10077   3.668   0.143   9.579 -0.4018 -0.0980  0.3260
  100OSM    H8F10078   3.708   0.045   9.613  1.0285  0.3232 -0.1125
  100OSM    H8G10079   3.756   0.204   9.553  0.3324 -1.2686  0.0003
  100OSM    C9F10080   3.565   0.142   9.467 -0.2889  0.1864  0.0632
  100OSM    H9F10081   3.469   0.188   9.493 -0.1241 -1.0657  3.0789
  100OSM   C10F10082   3.584   0.089   9.343 -0.6686 -0.1618 -0.2564
  100OSM   H10F10083   3.500   0.078   9.272 -0.3256 -0.0135 -0.6853
  100OSM   C11F10084   3.724   0.039   9.298  0.0101 -0.4665 -0.8046
  100OSM   H11F10085   3.739  -0.070   9.283 -2.4171 -0.6585 -1.9312
  100OSM   H11G10086   3.811   0.074   9.358 -0.7932  1.6542 -0.8486
  100OSM   C12F10087   3.751   0.104   9.157 -0.7891  0.0032  0.5917
  100OSM   H12F10088   3.745   0.214   9.169 -2.6159 -0.1818  1.6525
  100OSM   H12G10089   3.671   0.077   9.085  0.1107  0.7085 -0.6756
  100OSM   C13F10090   3.882   0.059   9.115 -0.9291 -0.0677  1.3959
  100OSM   H13F10091   3.897  -0.047   9.144  1.6323  0.6068  2.6410
  100OSM   H13G10092   3.961   0.111   9.172 -0.5398 -0.0197  0.8186
  100OSM   C14F10093   3.916   0.094   8.969 -0.0217  0.3487  0.0155
  100OSM   H14F10094   4.027   0.100   8.959  0.0949 -0.8301  0.4241
  100OSM   H14G10095   3.872   0.192   8.945  0.3389  0.1404 -1.5687
  100OSM   C15F10096   3.861  -0.014   8.871  0.2428  0.1899 -0.3595
  100OSM   H15F10097   3.753  -0.016   8.894 -0.4204  0.6554 -3.1977
  100OSM   H15G10098   3.896  -0.112   8.911 -1.9821 -0.0605  1.0444
  100OSM   C16F10099   3.881   0.006   8.722  0.3503 -0.0307 -1.0200
  100OSM   H16F10100   3.972   0.065   8.700  0.4978 -0.4514 -1.5700
  100OSM   H16G10101   3.794   0.060   8.678 -1.3372  0.2802  2.4851
  100OSM   C17F10102   3.903  -0.133   8.662 -0.4126  0.2414  0.5317
  100OSM   H17F10103   3.817  -0.204   8.673 -0.4444  0.3563  1.0203
  100OSM   H17G10104   3.987  -0.187   8.710 -0.3658  0.7878  1.0749
  100OSM   C18F10105   3.921  -0.120   8.517  0.5349 -0.5226  0.0428
  100OSM   H18F10106   3.942  -0.215   8.464  1.3640 -0.5401  0.4029
  100OSM   H18G10107   4.007  -0.056   8.491  1.4011 -0.9328  1.8307
  100OSM   H18H10108   3.822  -0.085   8.481 -0.2618 -0.1500  2.5005
  101OSM      N10109   0.244   0.799  11.121  0.0537 -0.3236 -0.8367
  101OSM    C1510110   0.169   0.933  11.129 -0.1514  0.4455 -0.0086
  101OSM   H15A10111   0.225   1.021  11.153 -0.4173  0.4585  0.6025
  101OSM   H15B10112   0.088   0.916  11.199 -1.5573 -0.6140 -1.8331
  101OSM   H15C10113   0.139   0.958  11.029  1.2546  0.4212 -0.4325
  101OSM    C1410114   0.338   0.798  10.999 -0.4268  0.1968  0.1908
  101OSM   H14A10115   0.413   0.874  10.980  0.7272 -1.9342 -4.4966
  101OSM   H14B10116   0.272   0.804  10.914  1.6241  1.8829 -1.3654
  101OSM   H14C10117   0.386   0.702  10.987  1.1433  1.1661 -1.6662
  101OSM    C1310118   0.330   0.788  11.240 -0.2837 -0.5519  0.1168
  101OSM   H13A10119   0.400   0.871  11.244  0.6634 -1.3646  0.8566
  101OSM   H13B10120   0.386   0.695  11.243 -0.5792 -0.7354 -0.0918
  101OSM   H13C10121   0.269   0.799  11.329 -0.0936  2.2286 -0.0632
  101OSM    C1210122   0.149   0.678  11.112  0.8307 -0.2058  0.0034
  101OSM   H12A10123   0.094   0.669  11.204 -2.6995  1.4160 -1.8128
  101OSM   H12B10124   0.204   0.585  11.101 -0.8222 -1.1417 -0.5810
  101OSM    C1110125   0.033   0.664  11.004  0.0606  0.5525 -0.3578
  101OSM   H11A10126  -0.015   0.764  11.011  3.0195  2.0873 -1.1237
  101OSM   H11B10127  -0.033   0.584  11.044  2.6366 -0.0740  2.9137
  101OSM      P10128   0.123   0.490  10.834 -0.3054 -0.2323  0.5451
  101OSM    O1310129   0.250   0.461  10.909  0.2133 -0.1493 -0.0044
  101OSM    O1410130   0.011   0.396  10.841 -0.0919  0.4889  0.7031
  101OSM    O1110131   0.155   0.505  10.680  0.0449  0.1328  0.1692
  101OSM    O1210132   0.079   0.637  10.875 -0.8447 -0.2653  0.7456
  101OSM    C1S10133   0.226   0.610  10.622  0.1259 -0.6785 -0.2298
  101OSM    H1S10134   0.299   0.650  10.697  0.7564  2.4858 -2.4641
  101OSM    H1T10135   0.153   0.692  10.605  0.6959  0.2852  1.7201
  101OSM     NF10136   0.403   0.663  10.445  0.0851 -0.4258 -0.4487
  101OSM    HNF10137   0.369   0.738  10.388 -0.5786 -0.9606 -0.7601
  101OSM    C2S10138   0.297   0.569  10.484 -0.8978 -0.7142 -0.0994
  101OSM    H2S10139   0.348   0.470  10.493  2.1812  0.6832 -1.4836
  101OSM    C3S10140   0.174   0.541  10.379  0.1816  0.3254 -0.1409
  101OSM    H3S10141   0.117   0.636  10.370 -0.3321  0.3797  3.3733
  101OSM     O310142   0.073   0.454  10.429 -0.2290  0.5869 -0.3415
  101OSM    HO310143   0.086   0.456  10.524 -1.6691 -1.7742 -0.0551
  101OSM    C4S10144   0.225   0.492  10.252 -0.0938 -0.2347  0.4293
  101OSM    H4S10145   0.238   0.568  10.174  0.3991 -0.9928 -0.2403
  101OSM    C5S10146   0.264   0.366  10.213  0.0310  0.3163  0.2832
  101OSM    H5S10147   0.247   0.284  10.284  0.8580  1.5685  1.9550
  101OSM    C6S10148   0.319   0.330  10.068 -0.0054  0.1282  0.7930
  101OSM    H6S10149   0.254   0.260  10.010 -0.6186  1.4963 -0.1847
  101OSM    H6T10150   0.416   0.277  10.083 -0.3683 -1.7216 -2.7428
  101OSM    C7S10151   0.342   0.435   9.953  0.7463  0.1199  0.2236
  101OSM    H7S10152   0.415   0.512   9.987 -0.0112  0.2147  1.6800
  101OSM    H7T10153   0.249   0.494   9.938  1.0130  0.2899 -0.8013
  101OSM    C8S10154   0.378   0.370   9.816 -0.2373  0.0747 -0.8702
  101OSM    H8S10155   0.322   0.274   9.813 -2.2723  1.2339 -1.0209
  101OSM    H8T10156   0.485   0.338   9.813  0.0642  0.5564  2.5947
  101OSM    C9S10157   0.360   0.471   9.704  0.3799 -0.1581 -1.2226
  101OSM    H9S10158   0.427   0.558   9.721  2.0089 -1.1695 -2.3064
  101OSM    H9T10159   0.256   0.509   9.711 -0.3514 -1.9865 -2.0397
  101OSM   C10S10160   0.392   0.418   9.560 -0.0639  0.3736  0.4264
  101OSM   H10S10161   0.500   0.391   9.557 -0.1520  0.1535 -4.4275
  101OSM   H10T10162   0.388   0.506   9.492  0.5903 -0.2455 -0.4212
  101OSM   C11S10163   0.308   0.305   9.509  0.1230 -0.3677 -0.7153
  101OSM   H11S10164   0.207   0.334   9.546  0.8662  0.9366  0.3367
  101OSM   H11T10165   0.342   0.204   9.541 -0.0135 -0.2037 -0.0295
  101OSM   C12S10166   0.299   0.310   9.348  0.6567  0.1497 -0.3410
  101OSM   H12S10167   0.274   0.208   9.314  0.1661 -0.1301  0.8260
  101OSM   H12T10168   0.403   0.304   9.310  1.2241  0.9380  1.0216
  101OSM   C13S10169   0.214   0.415   9.274 -0.3888  0.3653  0.3923
  101OSM   H13S10170   0.214   0.510   9.332 -2.6095 -0.4044  1.7419
  101OSM   H13T10171   0.108   0.380   9.281 -0.6963  1.6578  2.6512
  101OSM   C14S10172   0.272   0.428   9.134 -0.4459  0.8704 -0.1864
  101OSM   H14S10173   0.334   0.341   9.106 -0.4637  1.3740 -1.8596
  101OSM   H14T10174   0.335   0.519   9.119  0.7047  0.0430 -0.4367
  101OSM   C15S10175   0.173   0.433   9.027 -0.1692  0.2535 -0.2685
  101OSM   H15S10176   0.110   0.342   9.036  0.2995  0.1796  2.8512
  101OSM   H15T10177   0.213   0.420   8.924  0.5548  0.0492  0.0410
  101OSM   C16S10178   0.072   0.546   9.034 -0.0916 -0.5619 -0.9347
  101OSM   H16S10179   0.120   0.646   9.025 -3.1830  1.0559 -0.2823
  101OSM   H16T10180   0.011   0.533   9.126  0.4900 -3.4290 -0.9307
  101OSM   C17S10181  -0.023   0.541   8.912  0.2441  0.6306 -0.3825
  101OSM   H17S10182  -0.062   0.437   8.905 -0.0648  0.8713 -2.5619
  101OSM   H17T10183   0.046   0.559   8.827  2.1045  0.1123  0.9852
  101OSM   C18S10184  -0.135   0.648   8.898  0.0445 -0.1742  0.2369
  101OSM   H18S10185  -0.194   0.634   8.805  0.8784 -0.0564 -0.3095
  101OSM   H18T10186  -0.080   0.745   8.896  1.9055 -1.2391 -0.2074
  101OSM   H18U10187  -0.201   0.653   8.988  0.6115  0.4725  0.6250
  101OSM    C1F10188   0.513   0.691  10.518  0.3562 -0.4658  0.3808
  101OSM     OF10189   0.533   0.615  10.611 -0.1448 -0.3199  0.1772
  101OSM    C2F10190   0.597   0.813  10.492 -0.0641  0.9907 -0.4921
  101OSM    H2F10191   0.578   0.883  10.575  0.5506  0.1558  0.3650
  101OSM    H2G10192   0.557   0.861  10.400 -0.5170  0.8713 -0.3612
  101OSM    C3F10193   0.749   0.794  10.491 -0.1819 -0.5091 -0.1799
  101OSM    H3F10194   0.782   0.752  10.588  0.1814  0.2882  0.0487
  101OSM    H3G10195   0.803   0.891  10.480 -1.5430  0.4888  1.6489
  101OSM    C4F10196   0.786   0.697  10.380  0.5556 -0.6890 -0.5751
  101OSM    H4F10197   0.731   0.607  10.413 -1.5820  0.8704  0.1665
  101OSM    H4G10198   0.894   0.668  10.381  0.4100 -1.2285 -0.7051
  101OSM    C5F10199   0.748   0.749  10.234  0.5540  0.1415  0.1801
  101OSM    H5F10200   0.750   0.860  10.229 -2.4065  0.2215  0.0710
  101OSM    H5G10201   0.648   0.707  10.214  0.9941  0.4316 -2.8626
  101OSM    C6F10202   0.830   0.689  10.113 -0.2121 -0.3267 -0.5093
  101OSM    H6F10203   0.802   0.730  10.013  2.1276  2.4304 -0.1003
  101OSM    H6G10204   0.936   0.720  10.122 -0.2908 -0.3273  0.3684
  101OSM    C7F10205   0.814   0.535  10.107  0.1047 -0.9842  0.6576
  101OSM    H7F10206   0.705   0.515  10.105 -0.2324  0.7859  0.0006
  101OSM    H7G10207   0.865   0.485  10.192 -1.7532 -1.0866  1.7282
  101OSM    C8F10208   0.864   0.465   9.981 -0.0344  0.2826  0.2521
  101OSM    H8F10209   0.899   0.366  10.019 -0.0845  0.9089  1.9851
  101OSM    H8G10210   0.952   0.519   9.940  0.8312  0.8242  2.7230
  101OSM    C9F10211   0.771   0.440   9.870  0.2294  0.0471 -0.1031
  101OSM    H9F10212   0.665   0.464   9.884  0.7851  2.6571 -0.0306
  101OSM   C10F10213   0.803   0.382   9.752  0.3185 -0.9977 -0.2088
  101OSM   H10F10214   0.724   0.368   9.677 -0.7629  0.4340  0.6405
  101OSM   C11F10215   0.931   0.313   9.720 -0.3217  0.2372 -0.5850
  101OSM   H11F10216   1.004   0.359   9.790 -0.9389 -2.2466  1.7900
  101OSM   H11G10217   0.966   0.335   9.617  0.9023  0.0056 -0.2294
  101OSM   C12F10218   0.933   0.158   9.725  0.2362 -1.1506 -0.2268
  101OSM   H12F10219   0.912   0.127   9.829  2.3513 -1.3112  0.1605
  101OSM   H12G10220   1.035   0.118   9.708  0.4098 -0.7458 -0.1598
  101OSM   C13F10221   0.829   0.096   9.626 -0.1054 -0.0073 -1.1010
  101OSM   H13F10222   0.731   0.124   9.670 -0.0464  1.6040 -1.9595
  101OSM   H13G10223   0.834  -0.015   9.623 -2.3250 -0.1777  0.3952
  101OSM   C14F10224   0.841   0.146   9.479 -0.1063 -0.0801 -0.0569
  101OSM   H14F10225   0.938   0.122   9.429  0.3283  3.1581 -0.8853
  101OSM   H14G10226   0.827   0.256   9.463  0.0871  0.2250  1.7853
  101OSM   C15F10227   0.726   0.079   9.401  0.1858 -0.5162  0.1969
  101OSM   H15F10228   0.628   0.101   9.447 -0.3674  1.8674 -1.9887
  101OSM   H15G10229   0.751  -0.029   9.410 -0.7008 -0.6895  0.5174
  101OSM   C16F10230   0.726   0.098   9.247  0.1154  0.0117  0.1785
  101OSM   H16F10231   0.762   0.201   9.227  1.2173  0.2305  3.0850
  101OSM   H16G10232   0.620   0.084   9.217  0.5739  1.5255 -2.3002
  101OSM   C17F10233   0.812   0.004   9.159 -0.3799 -0.0507 -0.2368
  101OSM   H17F10234   0.775  -0.099   9.174  0.1383 -0.6161 -2.6789
  101OSM   H17G10235   0.913   0.006   9.205  0.0166 -1.6530 -1.0200
  101OSM   C18F10236   0.792   0.038   9.014 -0.1122 -0.3130  0.1564
  101OSM   H18F10237   0.844  -0.029   8.941  1.5546  2.1196 -0.9489
  101OSM   H18G10238   0.816   0.146   9.013  1.4680 -0.6425  0.0478
  101OSM   H18H10239   0.684   0.023   8.995 -0.3265  2.0547 -0.6206
  102OSM      N10240   2.122   2.387  10.962  0.2826  0.3339 -0.0311
  102OSM    C1510241   2.121   2.488  11.078 -0.2468 -0.2570 -0.7195
  102OSM   H15A10242   2.134   2.432  11.169  0.7866  0.1772 -0.5984
  102OSM   H15B10243   2.039   2.559  11.076 -1.2993 -1.4592 -0.9779
  102OSM   H15C10244   2.213   2.543  11.077  0.0541 -0.7466 -0.2225
  102OSM    C1410245   2.247   2.307  10.972  0.0084  0.5382  0.3030
  102OSM   H14A10246   2.233   2.223  11.040  1.9141 -1.8723 -2.1658
  102OSM   H14B10247   2.323   2.376  11.006 -0.7792  2.5895 -2.0118
  102OSM   H14C10248   2.280   2.273  10.875  1.7160  3.7533 -0.3148
  102OSM    C1310249   2.002   2.303  10.962 -0.4070  0.7612 -0.6488
  102OSM   H13A10250   2.006   2.218  10.895  2.7032 -0.1478  0.5962
  102OSM   H13B10251   1.912   2.362  10.952 -0.5730  0.6049 -0.1091
  102OSM   H13C10252   1.982   2.257  11.057 -2.4114 -1.6605 -2.1524
  102OSM    C1210253   2.127   2.471  10.830 -0.4904  0.6021 -0.4691
  102OSM   H12A10254   2.037   2.531  10.834 -0.3286  0.7501  1.0145
  102OSM   H12B10255   2.113   2.399  10.750 -0.5245 -0.0838  0.1492
  102OSM    C1110256   2.248   2.552  10.793  0.1569  0.3303  0.0266
  102OSM   H11A10257   2.245   2.633  10.870  2.4770  1.7606 -1.2891
  102OSM   H11B10258   2.228   2.588  10.690  0.8606 -0.1866 -0.2942
  102OSM      P10259   2.502   2.541  10.735 -0.1463 -0.3449  0.3429
  102OSM    O1310260   2.533   2.665  10.803  0.0581 -0.2426  0.3978
  102OSM    O1410261   2.611   2.439  10.742 -0.2255  0.1685  0.2936
  102OSM    O1110262   2.480   2.574  10.589  0.7379  0.1267  0.3014
  102OSM    O1210263   2.368   2.476  10.790 -0.1284  0.4149 -0.2221
  102OSM    C1S10264   2.583   2.629  10.509 -0.5556  0.3381  0.3113
  102OSM    H1S10265   2.669   2.561  10.493 -1.6557 -0.8722 -0.5874
  102OSM    H1T10266   2.631   2.714  10.563 -0.1305  0.5150 -0.3383
  102OSM     NF10267   2.634   2.745  10.305 -0.9727 -0.4458  0.3295
  102OSM    HNF10268   2.650   2.840  10.331 -1.3252 -0.3605  0.2326
  102OSM    C2S10269   2.521   2.698  10.381 -0.5325  0.1274  0.3502
  102OSM    H2S10270   2.463   2.627  10.318 -1.5573  1.0044  0.2962
  102OSM    C3S10271   2.417   2.812  10.413 -0.8533  1.1649  0.3092
  102OSM    H3S10272   2.454   2.898  10.473 -0.5082  1.2370 -0.0003
  102OSM     O310273   2.311   2.762  10.487  0.7798  0.7037  0.4085
  102OSM    HO310274   2.343   2.675  10.513 -0.7467 -0.3989 -1.2893
  102OSM    C4S10275   2.376   2.871  10.283 -0.1330  0.2204 -0.7580
  102OSM    H4S10276   2.444   2.952  10.251  0.5152  0.7506  1.8172
  102OSM    C5S10277   2.288   2.818  10.198 -0.3160  0.0126  1.0682
  102OSM    H5S10278   2.240   2.722  10.222  0.1265  0.3504  3.3829
  102OSM    C6S10279   2.254   2.886  10.064  0.2761  0.0680  0.3763
  102OSM    H6S10280   2.293   2.990  10.061 -2.2869  1.0650  0.0476
  102OSM    H6T10281   2.144   2.895  10.049 -0.3405 -1.5906  3.4698
  102OSM    C7S10282   2.307   2.823   9.936 -0.0922 -0.0045  0.1032
  102OSM    H7S10283   2.260   2.722   9.931  1.4924 -0.6629 -2.9385
  102OSM    H7T10284   2.415   2.804   9.948  0.0020  0.3683 -0.1415
  102OSM    C8S10285   2.287   2.901   9.805  0.3693  0.2586  0.0439
  102OSM    H8S10286   2.375   2.969   9.796  0.4729 -0.0863 -1.7511
  102OSM    H8T10287   2.195   2.963   9.810  0.5473  0.6418 -1.1659
  102OSM    C9S10288   2.294   2.811   9.682 -0.6037  0.3598  0.3091
  102OSM    H9S10289   2.211   2.738   9.675  1.0172 -1.5138  0.3455
  102OSM    H9T10290   2.380   2.741   9.686 -2.1408 -1.8861 -3.1281
  102OSM   C10S10291   2.319   2.885   9.556  0.1805  0.3895 -0.2916
  102OSM   H10S10292   2.347   2.811   9.478  2.3581 -1.5631  2.2419
  102OSM   H10T10293   2.404   2.957   9.562  1.6948 -1.4128  0.8039
  102OSM   C11S10294   2.203   2.967   9.504  0.5718 -0.9921 -0.3022
  102OSM   H11S10295   2.180   3.046   9.578  0.9204  0.4749 -1.7277
  102OSM   H11T10296   2.108   2.908   9.507 -1.5523  2.2797 -0.4769
  102OSM   C12S10297   2.223   3.044   9.373  0.6820 -0.3988  0.6173
  102OSM   H12S10298   2.244   2.974   9.290 -2.1955 -0.8685  0.2116
  102OSM   H12T10299   2.308   3.112   9.392  1.4239 -1.3093  0.5737
  102OSM   C13S10300   2.104   3.133   9.336  0.6679 -0.1776 -0.0810
  102OSM   H13S10301   2.061   3.175   9.430  0.2835 -1.0509  0.1385
  102OSM   H13T10302   2.018   3.073   9.299 -0.6753  0.8472  1.3092
  102OSM   C14S10303   2.122   3.236   9.227  0.3244 -0.5853 -0.3338
  102OSM   H14S10304   2.202   3.308   9.255  1.2938 -2.1796  1.1556
  102OSM   H14T10305   2.028   3.290   9.208  0.6072  0.5118  1.2855
  102OSM   C15S10306   2.135   3.167   9.088 -0.2968  0.1707 -0.2329
  102OSM   H15S10307   2.073   3.075   9.086  0.6064 -0.4632  0.1987
  102OSM   H15T10308   2.236   3.120   9.082 -0.4435 -0.0101 -1.2550
  102OSM   C16S10309   2.112   3.244   8.969 -0.9704 -0.8623  0.1029
  102OSM   H16S10310   2.197   3.313   8.947 -2.3487  0.1979 -2.1310
  102OSM   H16T10311   2.025   3.312   8.981 -1.1544 -1.0864  0.0346
  102OSM   C17S10312   2.085   3.156   8.844  0.0404 -0.0152  0.8602
  102OSM   H17S10313   1.978   3.126   8.837  0.0048 -0.2996  2.4604
  102OSM   H17T10314   2.143   3.063   8.863 -1.3292 -0.8378  1.0188
  102OSM   C18S10315   2.104   3.228   8.715 -0.4412  0.7925  0.3752
  102OSM   H18S10316   2.059   3.329   8.705 -0.6038  0.4935 -2.3031
  102OSM   H18T10317   2.053   3.171   8.635  2.0961 -0.1151 -0.6618
  102OSM   H18U10318   2.212   3.243   8.693 -0.5803 -0.3081 -1.1106
  102OSM    C1F10319   2.718   2.675  10.233 -0.2782 -0.1257  0.1283
  102OSM     OF10320   2.702   2.558  10.218 -0.0059 -0.1032 -0.8254
  102OSM    C2F10321   2.824   2.755  10.157 -0.9430  0.4869  0.4416
  102OSM    H2F10322   2.920   2.729  10.207  0.1001  0.1415 -1.6744
  102OSM    H2G10323   2.797   2.862  10.166 -0.6312  0.3987  2.5808
  102OSM    C3F10324   2.834   2.716  10.007 -0.4887 -0.2846  0.5283
  102OSM    H3F10325   2.866   2.609  10.004 -0.5261 -0.2818 -0.0036
  102OSM    H3G10326   2.916   2.775   9.962 -0.8576  0.5635  0.9602
  102OSM    C4F10327   2.708   2.727   9.923  0.6055 -0.2365  0.4288
  102OSM    H4F10328   2.665   2.827   9.945 -0.7314 -1.0001  1.3425
  102OSM    H4G10329   2.631   2.658   9.963 -0.4075 -0.2211 -1.4564
  102OSM    C5F10330   2.712   2.700   9.772  0.2360 -0.1640  0.4896
  102OSM    H5F10331   2.605   2.701   9.741  0.0891 -2.2789  0.8421
  102OSM    H5G10332   2.739   2.592   9.769  0.6182 -0.0380 -2.2872
  102OSM    C6F10333   2.812   2.773   9.691  0.2937  0.0259  0.1469
  102OSM    H6F10334   2.906   2.772   9.751 -0.6142 -0.4500  1.5873
  102OSM    H6G10335   2.775   2.878   9.696 -2.3725 -0.9398  1.6023
  102OSM    C7F10336   2.855   2.733   9.548  0.3277 -0.1677  0.1671
  102OSM    H7F10337   2.915   2.643   9.569  2.2191  0.9196 -0.4681
  102OSM    H7G10338   2.925   2.807   9.502 -0.6653  0.8316  0.2400
  102OSM    C8F10339   2.730   2.698   9.462 -0.4250 -0.1326  0.0630
  102OSM    H8F10340   2.649   2.774   9.471 -1.1464 -1.1587  2.8089
  102OSM    H8G10341   2.696   2.598   9.495  0.4332 -0.2638  0.5415
  102OSM    C9F10342   2.775   2.688   9.316 -0.2673 -0.4123  0.7347
  102OSM    H9F10343   2.798   2.586   9.283  0.5766 -1.5173  4.4536
  102OSM   C10F10344   2.795   2.795   9.234 -0.1878 -0.0763 -0.3674
  102OSM   H10F10345   2.813   2.780   9.127  0.9882 -3.5871  0.2430
  102OSM   C11F10346   2.769   2.940   9.281 -0.1436  0.0881  0.0250
  102OSM   H11F10347   2.857   2.995   9.241  0.7824 -1.9195 -0.7549
  102OSM   H11G10348   2.770   2.946   9.392  2.4981 -1.2459  0.1171
  102OSM   C12F10349   2.628   2.986   9.230 -0.4133 -0.0581  0.3636
  102OSM   H12F10350   2.601   3.078   9.286  1.8186 -0.2861  1.8912
  102OSM   H12G10351   2.555   2.903   9.241  0.6048 -1.2168 -1.3249
  102OSM   C13F10352   2.636   3.020   9.078  0.7602 -0.6670 -0.4675
  102OSM   H13F10353   2.661   2.921   9.033  0.2024 -0.4074 -1.3565
  102OSM   H13G10354   2.718   3.089   9.052  0.2358  0.3243  0.4827
  102OSM   C14F10355   2.502   3.069   9.018 -0.2217  1.0966 -0.3881
  102OSM   H14F10356   2.464   3.148   9.086  0.8029 -0.4348  2.0434
  102OSM   H14G10357   2.431   2.983   9.023 -0.4873  1.0476 -4.0434
  102OSM   C15F10358   2.514   3.118   8.870 -0.6994  0.5664 -0.1758
  102OSM   H15F10359   2.609   3.175   8.859 -0.1817 -0.0077  1.1169
  102OSM   H15G10360   2.426   3.183   8.852 -1.5295  0.5497  3.3751
  102OSM   C16F10361   2.513   2.999   8.771  0.5050 -0.2408 -0.0100
  102OSM   H16F10362   2.419   2.942   8.784 -0.0116  0.2478 -1.4788
  102OSM   H16G10363   2.593   2.926   8.796  0.4464 -0.3217 -0.0628
  102OSM   C17F10364   2.520   3.047   8.629  0.1003 -0.2528  0.3924
  102OSM   H17F10365   2.610   3.110   8.615  0.0997 -0.5969 -1.3517
  102OSM   H17G10366   2.442   3.120   8.598 -0.4480 -0.2101  1.8313
  102OSM   C18F10367   2.519   2.937   8.524  0.1670 -0.5799 -0.8068
  102OSM   H18F10368   2.569   2.841   8.549 -1.5218 -1.3616 -0.3835
  102OSM   H18G10369   2.559   2.972   8.427  1.3743 -1.3900 -0.6069
  102OSM   H18H10370   2.420   2.896   8.495  0.6987 -2.2040 -0.3842
  103OSM      N10371   2.095   5.470  11.103  0.0550  0.0121  0.9294
  103OSM    C1510372   2.180   5.580  11.064  0.1824 -0.4848 -0.1625
  103OSM   H15A10373   2.278   5.559  11.026  0.0356  0.1960 -0.9233
  103OSM   H15B10374   2.211   5.645  11.145  0.5729 -1.3947  0.4366
  103OSM   H15C10375   2.137   5.642  10.987  2.5327  1.9043  0.3468
  103OSM    C1410376   2.175   5.377  11.201 -0.0871  0.0034 -0.5502
  103OSM   H14A10377   2.125   5.284  11.225  1.5272 -1.0018 -1.0142
  103OSM   H14B10378   2.202   5.442  11.283 -0.2359 -0.2496 -0.3009
  103OSM   H14C10379   2.264   5.332  11.160  0.3225 -0.5373  0.9078
  103OSM    C1310380   1.970   5.514  11.166 -0.0289  0.6002  0.2682
  103OSM   H13A10381   1.994   5.575  11.251 -1.5159  3.7744 -1.5186
  103OSM   H13B10382   1.918   5.436  11.220  2.5384 -1.1084  0.3785
  103OSM   H13C10383   1.907   5.570  11.098  1.1175  2.3671  0.6456
  103OSM    C1210384   2.063   5.396  10.971 -0.6197 -0.2169 -0.1339
  103OSM   H12A10385   1.987   5.323  10.993  1.2583 -2.3824 -0.5575
  103OSM   H12B10386   2.152   5.337  10.952 -1.5442 -1.6696 -0.0014
  103OSM    C1110387   2.027   5.472  10.835 -0.2597  0.1684  0.7032
  103OSM   H11A10388   2.010   5.384  10.769 -1.8633 -0.3624  1.7658
  103OSM   H11B10389   2.115   5.534  10.809 -0.1296  0.9930  2.9971
  103OSM      P10390   1.766   5.499  10.862 -0.0433  0.1037 -0.1089
  103OSM    O1310391   1.761   5.367  10.801  0.1046  0.1826  0.1770
  103OSM    O1410392   1.715   5.514  11.002  0.2771  0.3109  0.3622
  103OSM    O1110393   1.686   5.600  10.764  0.9828  0.0117  0.2328
  103OSM    O1210394   1.910   5.553  10.854  0.2159  0.0401  0.1245
  103OSM    C1S10395   1.750   5.649  10.650  1.0029  0.0779  0.0152
  103OSM    H1S10396   1.810   5.569  10.602  0.1460 -0.5466 -0.0162
  103OSM    H1T10397   1.820   5.733  10.670  0.2980  0.9020 -0.9125
  103OSM     NF10398   1.720   5.772  10.439 -0.1968  0.1070  0.3837
  103OSM    HNF10399   1.745   5.868  10.450  1.4282  0.0076 -1.9979
  103OSM    C2S10400   1.649   5.701  10.544  0.2544  0.1116  0.4247
  103OSM    H2S10401   1.600   5.611  10.500 -1.4500  1.7473 -1.1155
  103OSM    C3S10402   1.524   5.783  10.600 -0.2362  0.2891  0.0519
  103OSM    H3S10403   1.561   5.876  10.648  1.9613 -0.8615  0.6175
  103OSM     O310404   1.450   5.718  10.700  0.0709  0.4255 -0.2744
  103OSM    HO310405   1.516   5.650  10.717  0.8946  1.3878  0.4101
  103OSM    C4S10406   1.431   5.822  10.493  0.0192  0.0811  0.7578
  103OSM    H4S10407   1.433   5.928  10.463  0.1351 -0.5745 -1.7250
  103OSM    C5S10408   1.331   5.740  10.444  0.3586 -0.2687 -0.4770
  103OSM    H5S10409   1.320   5.643  10.495 -0.6761  0.5197  0.8344
  103OSM    C6S10410   1.225   5.770  10.344 -0.0212  0.0537 -0.2091
  103OSM    H6S10411   1.162   5.855  10.379  1.2970  1.0647 -0.2356
  103OSM    H6T10412   1.166   5.677  10.342  0.7511 -0.5436  2.5688
  103OSM    C7S10413   1.292   5.802  10.208 -0.1999  0.6922  0.0733
  103OSM    H7S10414   1.354   5.893  10.217 -0.1565  0.5450  1.3664
  103OSM    H7T10415   1.212   5.819  10.133  0.7948  0.9176 -0.9577
  103OSM    C8S10416   1.385   5.689  10.154  0.0690 -0.0169 -0.5800
  103OSM    H8S10417   1.319   5.600  10.163  1.0954 -0.8660 -1.3125
  103OSM    H8T10418   1.470   5.673  10.223 -1.1124  1.0894  1.1595
  103OSM    C9S10419   1.427   5.706  10.009 -0.6336  0.1530  0.0545
  103OSM    H9S10420   1.521   5.649   9.996 -0.8230 -0.2727  0.5346
  103OSM    H9T10421   1.460   5.811   9.999 -0.4171  0.2426  1.6899
  103OSM   C10S10422   1.324   5.676   9.900 -0.3633  0.9421  0.0047
  103OSM   H10S10423   1.229   5.735   9.909 -0.4866  0.7675 -0.1560
  103OSM   H10T10424   1.300   5.569   9.916 -2.7235  1.2767 -1.1380
  103OSM   C11S10425   1.388   5.686   9.758 -0.5642  0.1960  0.3602
  103OSM   H11S10426   1.475   5.619   9.765 -1.2265 -0.9228 -1.7475
  103OSM   H11T10427   1.409   5.794   9.740  0.6027 -0.0539  0.2473
  103OSM   C12S10428   1.284   5.631   9.653  0.9342 -0.6515  0.5721
  103OSM   H12S10429   1.202   5.705   9.644 -1.7913 -3.4621  1.2591
  103OSM   H12T10430   1.230   5.538   9.680 -2.1584  0.7696 -0.5152
  103OSM   C13S10431   1.350   5.603   9.519  0.3640 -0.0231 -0.2644
  103OSM   H13S10432   1.436   5.535   9.531  1.6825  1.9060  1.6128
  103OSM   H13T10433   1.387   5.697   9.472  0.5460 -0.0886 -0.2523
  103OSM   C14S10434   1.252   5.541   9.412  0.0420 -0.3134 -0.7533
  103OSM   H14S10435   1.175   5.615   9.384  1.1421  1.2108  0.1593
  103OSM   H14T10436   1.203   5.453   9.458  0.1713  0.4274  0.8425
  103OSM   C15S10437   1.335   5.501   9.288  0.3964 -0.0952  0.1562
  103OSM   H15S10438   1.412   5.425   9.313 -0.8919 -0.6648  2.4608
  103OSM   H15T10439   1.378   5.596   9.249 -0.8224  1.8259  3.2997
  103OSM   C16S10440   1.248   5.448   9.176 -0.1192 -0.2123 -0.1318
  103OSM   H16S10441   1.211   5.353   9.220 -5.2438  1.7294  0.0723
  103OSM   H16T10442   1.312   5.426   9.088 -3.5125 -1.5932 -2.3814
  103OSM   C17S10443   1.130   5.532   9.123  0.0836 -0.1273  0.1181
  103OSM   H17S10444   1.169   5.636   9.114 -0.1028 -0.0105  0.6228
  103OSM   H17T10445   1.042   5.527   9.192  0.1741  0.1946  0.2589
  103OSM   C18S10446   1.078   5.487   8.990 -0.5206 -0.0099  0.3661
  103OSM   H18S10447   1.020   5.572   8.948  0.9841 -0.5405 -2.9857
  103OSM   H18T10448   1.016   5.397   9.006  0.3929 -0.4736  1.3300
  103OSM   H18U10449   1.155   5.468   8.911  0.1112  1.2098  0.6703
  103OSM    C1F10450   1.811   5.706  10.359  1.2183 -0.4357  0.3066
  103OSM     OF10451   1.831   5.586  10.362 -0.6344 -0.5241 -0.0910
  103OSM    C2F10452   1.890   5.800  10.270  0.3885  0.6393 -0.0168
  103OSM    H2F10453   1.935   5.867  10.346  1.1464 -0.5680  0.6188
  103OSM    H2G10454   1.821   5.864  10.211  0.3820 -0.1009 -0.8194
  103OSM    C3F10455   1.996   5.732  10.186 -0.5245  0.4402 -0.0424
  103OSM    H3F10456   1.946   5.644  10.139  0.0695 -0.9114  1.7943
  103OSM    H3G10457   2.081   5.689  10.243 -0.6056  0.0521 -0.2124
  103OSM    C4F10458   2.055   5.833  10.089  0.0054 -0.1316 -0.7274
  103OSM    H4F10459   2.144   5.882  10.134  0.7452  1.4968 -3.8306
  103OSM    H4G10460   1.970   5.900  10.066 -0.6530 -0.9849 -0.8456
  103OSM    C5F10461   2.098   5.792   9.953  0.2862  0.0941 -1.1868
  103OSM    H5F10462   2.184   5.722   9.967  0.8186  0.9627  0.0148
  103OSM    H5G10463   2.132   5.878   9.891  2.8562 -1.2112 -1.6936
  103OSM    C6F10464   1.997   5.717   9.862 -0.4011 -0.6748  0.0743
  103OSM    H6F10465   1.961   5.631   9.921  0.0649  0.8343  2.6313
  103OSM    H6G10466   2.057   5.684   9.774  2.2367  0.1862  1.4700
  103OSM    C7F10467   1.882   5.805   9.819  0.7304 -0.3487 -0.2552
  103OSM    H7F10468   1.923   5.902   9.782  0.2282 -0.8748 -2.2328
  103OSM    H7G10469   1.814   5.826   9.905  0.1001 -0.2288 -0.7817
  103OSM    C8F10470   1.803   5.736   9.703  0.0444 -0.0856 -0.2759
  103OSM    H8F10471   1.749   5.650   9.747 -1.4150  1.2242  0.5716
  103OSM    H8G10472   1.883   5.713   9.630  1.6181  1.4008  0.9209
  103OSM    C9F10473   1.699   5.829   9.644 -0.0167  0.3675  0.2592
  103OSM    H9F10474   1.640   5.890   9.714  1.4590  3.5757 -1.1698
  103OSM   C10F10475   1.678   5.845   9.518  0.5527 -0.2408  0.6498
  103OSM   H10F10476   1.596   5.912   9.487  0.1551 -0.1887  1.7920
  103OSM   C11F10477   1.741   5.767   9.401  0.5130 -0.1545  0.1698
  103OSM   H11F10478   1.830   5.711   9.437 -0.6606 -0.4622  2.6807
  103OSM   H11G10479   1.773   5.838   9.321 -0.0563  2.4805  2.2144
  103OSM   C12F10480   1.655   5.661   9.332 -0.1270 -0.3563  0.1680
  103OSM   H12F10481   1.562   5.709   9.292  1.2731  0.5576 -2.0699
  103OSM   H12G10482   1.627   5.589   9.412  1.2073 -1.0173  0.0432
  103OSM   C13F10483   1.727   5.585   9.220  0.1565  0.3967  0.5328
  103OSM   H13F10484   1.782   5.493   9.250  1.7398  0.9872 -0.5113
  103OSM   H13G10485   1.803   5.658   9.184 -0.1978  0.6349  0.2671
  103OSM   C14F10486   1.644   5.540   9.104  0.0852 -0.3122  0.2844
  103OSM   H14F10487   1.572   5.618   9.071 -0.0032 -0.1742  0.7897
  103OSM   H14G10488   1.575   5.455   9.123 -0.1489 -0.3236 -0.5924
  103OSM   C15F10489   1.718   5.504   8.976 -0.1815  0.1152 -0.3600
  103OSM   H15F10490   1.766   5.407   9.004 -0.0766  0.7586  1.8216
  103OSM   H15G10491   1.807   5.570   8.968  0.0095  0.1633  1.7774
  103OSM   C16F10492   1.641   5.491   8.841  0.8774  0.1691  0.4461
  103OSM   H16F10493   1.590   5.588   8.823 -0.8921 -0.6043  1.1621
  103OSM   H16G10494   1.555   5.421   8.853  0.3296  0.9910  1.4700
  103OSM   C17F10495   1.739   5.456   8.725 -0.6890 -0.1094 -0.0533
  103OSM   H17F10496   1.800   5.364   8.741 -0.6904 -0.5632 -2.4715
  103OSM   H17G10497   1.812   5.539   8.733  0.0976 -1.0272  3.5102
  103OSM   C18F10498   1.691   5.444   8.582  0.0486 -0.1938  0.1944
  103OSM   H18F10499   1.769   5.402   8.514 -0.4838  0.0553 -0.5775
  103OSM   H18G10500   1.662   5.540   8.534  1.5764 -0.4200 -1.2544
  103OSM   H18H10501   1.607   5.371   8.580  0.0710 -0.2170  0.1255
  104OSM      N10502   3.240   4.882  11.167  0.5792  0.0090  0.1806
  104OSM    C1510503   3.339   4.973  11.112  0.1705  0.1353 -0.7144
  104OSM   H15A10504   3.314   5.068  11.157 -0.6768 -1.3673  2.0897
  104OSM   H15B10505   3.342   4.971  11.004  0.6930  1.6916 -0.7528
  104OSM   H15C10506   3.440   4.958  11.145 -0.0582  0.7320  0.2684
  104OSM    C1410507   3.273   4.733  11.139 -0.3165 -1.0526 -0.1818
  104OSM   H14A10508   3.363   4.699  11.187  1.2993  0.4862 -2.0141
  104OSM   H14B10509   3.292   4.736  11.033  0.3951  2.1442 -0.0053
  104OSM   H14C10510   3.193   4.668  11.170  1.6118 -1.8977  3.2759
  104OSM    C1310511   3.236   4.893  11.312 -0.3730 -0.7052 -0.2372
  104OSM   H13A10512   3.335   4.883  11.354 -1.2451 -1.5599  1.6748
  104OSM   H13B10513   3.167   4.821  11.353 -1.2975  0.8761  1.0527
  104OSM   H13C10514   3.199   4.985  11.356 -0.0873 -1.1977  1.0610
  104OSM    C1210515   3.098   4.908  11.109  0.3151 -0.3464 -0.2083
  104OSM   H12A10516   3.068   5.011  11.120 -0.5996 -0.5174 -1.0369
  104OSM   H12B10517   3.035   4.844  11.168  0.2226  0.8749  1.0441
  104OSM    C1110518   3.072   4.871  10.958 -0.3819 -0.1403  0.5113
  104OSM   H11A10519   2.962   4.877  10.944 -0.5865 -1.1567  1.6591
  104OSM   H11B10520   3.097   4.764  10.946  0.1759 -0.0328  0.6985
  104OSM      P10521   3.094   5.101  10.835 -0.4285  0.0286 -0.1691
  104OSM    O1310522   2.954   5.101  10.876  0.2678 -0.1143 -0.1542
  104OSM    O1410523   3.185   5.188  10.911 -0.0778 -0.1061 -0.4884
  104OSM    O1110524   3.117   5.122  10.681 -0.2188 -0.0245 -0.1234
  104OSM    O1210525   3.145   4.956  10.864  0.2021 -0.2788  0.4745
  104OSM    C1S10526   3.062   5.038  10.587 -0.4586  0.2495  0.3801
  104OSM    H1S10527   2.954   5.032  10.611 -0.3794  4.3259  2.1434
  104OSM    H1T10528   3.105   4.936  10.596  1.8769  1.0463 -1.1695
  104OSM     NF10529   3.020   5.001  10.348  0.0303 -0.1271 -0.5524
  104OSM    HNF10530   3.061   4.935  10.286  1.3012  0.7355 -0.6604
  104OSM    C2S10531   3.098   5.080  10.446 -0.0289  0.2046 -0.2540
  104OSM    H2S10532   3.076   5.189  10.440 -0.5685  0.1467  0.5885
  104OSM    C3S10533   3.248   5.077  10.413  0.0568  0.6004  0.0965
  104OSM    H3S10534   3.280   4.972  10.397 -0.7769  0.6981 -2.3253
  104OSM     O310535   3.336   5.117  10.516 -0.4147 -0.1724  0.0959
  104OSM    HO310536   3.277   5.113  10.592 -1.9770 -0.4908 -1.1003
  104OSM    C4S10537   3.275   5.156  10.285 -0.0072  0.0974 -0.9204
  104OSM    H4S10538   3.237   5.258  10.298  0.6929  0.4380 -1.5243
  104OSM    C5S10539   3.328   5.112  10.170 -0.1860 -0.1097  0.5790
  104OSM    H5S10540   3.353   5.006  10.157  1.7355  0.4494 -0.4087
  104OSM    C6S10541   3.340   5.212  10.053 -0.3023 -0.1286 -0.0730
  104OSM    H6S10542   3.440   5.200  10.006 -0.5473 -2.0550 -0.1762
  104OSM    H6T10543   3.317   5.315  10.087  1.9561  0.4585 -0.2535
  104OSM    C7S10544   3.237   5.162   9.950  0.6288  0.0140  0.0138
  104OSM    H7S10545   3.141   5.165  10.006  1.4239  2.8830  1.3462
  104OSM    H7T10546   3.257   5.057   9.921 -0.0446 -0.3350  0.7883
  104OSM    C8S10547   3.224   5.247   9.826  0.2852  0.0975  0.0164
  104OSM    H8S10548   3.326   5.243   9.783 -0.0202 -0.1878 -0.6869
  104OSM    H8T10549   3.190   5.351   9.847  0.0885  0.0169  0.1063
  104OSM    C9S10550   3.116   5.193   9.732  0.8956  0.5310 -0.5577
  104OSM    H9S10551   3.130   5.084   9.715  0.3109  0.4378 -0.4495
  104OSM    H9T10552   3.139   5.248   9.638  0.0022 -0.5729 -1.4418
  104OSM   C10S10553   2.976   5.206   9.783  0.2349 -0.5124  0.2541
  104OSM   H10S10554   2.949   5.314   9.785  0.5889 -0.3050 -2.9034
  104OSM   H10T10555   2.966   5.179   9.890 -2.2309 -0.8137 -0.0311
  104OSM   C11S10556   2.873   5.123   9.707  0.4732  0.0548 -0.1192
  104OSM   H11S10557   2.778   5.142   9.761  1.1927 -0.7017  1.4676
  104OSM   H11T10558   2.892   5.015   9.726 -2.0534 -0.3517  0.2249
  104OSM   C12S10559   2.858   5.155   9.561 -0.6874  0.7785 -0.1528
  104OSM   H12S10560   2.856   5.265   9.547 -1.4272  1.4652  4.6509
  104OSM   H12T10561   2.771   5.104   9.516  0.7490  0.4671 -2.6667
  104OSM   C13S10562   2.968   5.093   9.465 -0.1897 -0.1739  0.3938
  104OSM   H13S10563   2.961   4.982   9.458  1.2051 -0.1482 -1.7433
  104OSM   H13T10564   3.076   5.109   9.486  0.0104 -0.1415 -0.6388
  104OSM   C14S10565   2.938   5.161   9.328  0.4069 -0.0437 -0.6835
  104OSM   H14S10566   2.991   5.257   9.313 -2.6346  1.6072 -1.4738
  104OSM   H14T10567   2.829   5.178   9.311 -0.0707 -0.9917  1.2843
  104OSM   C15S10568   2.977   5.069   9.210 -0.3697 -0.1029 -0.4215
  104OSM   H15S10569   2.953   4.966   9.243  0.4038  0.6673  2.6943
  104OSM   H15T10570   3.088   5.075   9.200 -0.2006 -0.4445  1.1758
  104OSM   C16S10571   2.911   5.114   9.078  0.1409 -0.2513  0.3206
  104OSM   H16S10572   2.941   5.216   9.044 -1.7093  0.1734 -0.0937
  104OSM   H16T10573   2.801   5.108   9.089  0.0002 -4.1728 -2.0712
  104OSM   C17S10574   2.945   5.024   8.960  0.3368  0.1607  0.4630
  104OSM   H17S10575   2.902   4.927   8.993 -1.1369  1.2653  1.9323
  104OSM   H17T10576   3.054   5.006   8.957  0.2801  0.1121 -1.2831
  104OSM   C18S10577   2.895   5.062   8.822 -0.1446  0.1179 -0.0351
  104OSM   H18S10578   2.912   4.979   8.751 -0.5704  0.1806 -0.2119
  104OSM   H18T10579   2.949   5.158   8.808  0.6497 -0.5869 -1.8696
  104OSM   H18U10580   2.787   5.089   8.824  0.0691  0.9320  2.4826
  104OSM    C1F10581   2.891   5.028  10.339  0.6986 -0.2099 -0.2667
  104OSM     OF10582   2.843   5.130  10.390  0.3890  0.2328  0.0975
  104OSM    C2F10583   2.814   4.940  10.238  0.2558  0.9282 -0.9051
  104OSM    H2F10584   2.865   4.842  10.225 -0.7499  0.3970 -0.8725
  104OSM    H2G10585   2.811   4.983  10.135  1.9533  2.3553 -0.3849
  104OSM    C3F10586   2.663   4.934  10.273 -0.6864  0.4105 -0.1535
  104OSM    H3F10587   2.630   5.040  10.279  3.5477  1.7885  0.5404
  104OSM    H3G10588   2.646   4.876  10.366 -3.8455  0.4965 -0.6269
  104OSM    C4F10589   2.579   4.857  10.166 -1.0621 -0.1867 -0.4651
  104OSM    H4F10590   2.484   4.825  10.215 -0.8183 -0.8358 -0.4158
  104OSM    H4G10591   2.635   4.763  10.149  1.3354  1.5141 -2.2913
  104OSM    C5F10592   2.535   4.946  10.040 -0.2822  0.8683 -0.5954
  104OSM    H5F10593   2.634   4.965   9.993  0.7507  1.4837  1.7657
  104OSM    H5G10594   2.491   5.043  10.072 -1.4245  0.2128 -0.1474
  104OSM    C6F10595   2.459   4.872   9.923  0.2124  0.3773 -0.2958
  104OSM    H6F10596   2.378   4.820   9.978  1.1084 -0.1323  0.5594
  104OSM    H6G10597   2.520   4.791   9.878  1.0445  1.3125 -0.8846
  104OSM    C7F10598   2.422   4.975   9.818 -0.0277  0.3008 -0.8248
  104OSM    H7F10599   2.494   5.057   9.802 -0.8577  0.7352 -2.4510
  104OSM    H7G10600   2.340   5.033   9.867 -0.0745 -0.7056  0.3211
  104OSM    C8F10601   2.369   4.906   9.692  0.5306 -0.2113 -0.0759
  104OSM    H8F10602   2.308   4.967   9.622  0.1126 -1.5303 -0.8870
  104OSM    H8G10603   2.292   4.836   9.731  1.0422 -0.6091  0.2367
  104OSM    C9F10604   2.476   4.854   9.603 -0.3756  0.0350  0.2146
  104OSM    H9F10605   2.534   4.776   9.655  0.3081 -0.5194 -1.3452
  104OSM   C10F10606   2.526   4.900   9.484  0.2935 -0.1870  0.5210
  104OSM   H10F10607   2.610   4.854   9.431  2.4817  2.1075  1.9045
  104OSM   C11F10608   2.477   5.020   9.416 -0.8460 -0.3451 -0.0579
  104OSM   H11F10609   2.568   5.083   9.400 -0.6566 -0.8641 -1.0726
  104OSM   H11G10610   2.410   5.087   9.473  2.1336  1.3711  1.5987
  104OSM   C12F10611   2.409   4.999   9.283 -0.4517  0.0186 -0.2115
  104OSM   H12F10612   2.352   5.090   9.255 -2.8708 -1.1034  0.8884
  104OSM   H12G10613   2.329   4.926   9.309 -0.9486  0.9530  0.9248
  104OSM   C13F10614   2.490   4.954   9.166  0.1007 -0.3809  0.4584
  104OSM   H13F10615   2.509   4.845   9.183 -2.1993 -0.7442  0.8225
  104OSM   H13G10616   2.588   5.006   9.172  0.7378 -1.5764  0.6811
  104OSM   C14F10617   2.431   4.961   9.019 -0.5373  0.3237  0.1070
  104OSM   H14F10618   2.429   5.071   9.004  2.1942  0.2030 -1.4160
  104OSM   H14G10619   2.332   4.912   9.023 -0.1223 -0.4538  1.1630
  104OSM   C15F10620   2.517   4.888   8.919 -0.6074 -0.3540  0.0651
  104OSM   H15F10621   2.526   4.782   8.950 -1.4540 -1.2724 -2.6927
  104OSM   H15G10622   2.619   4.927   8.936 -0.8892  0.3591  0.1545
  104OSM   C16F10623   2.470   4.895   8.774  0.1538 -0.1503 -0.6253
  104OSM   H16F10624   2.436   4.998   8.750  1.8243  0.0172 -2.3936
  104OSM   H16G10625   2.375   4.838   8.763  1.1805 -2.0439  0.0951
  104OSM   C17F10626   2.582   4.839   8.680  0.2337 -0.1162 -0.1902
  104OSM   H17F10627   2.574   4.728   8.685  1.0121 -0.0983  2.0515
  104OSM   H17G10628   2.679   4.870   8.724  0.9837 -1.8900 -0.5704
  104OSM   C18F10629   2.575   4.900   8.546 -0.0507 -0.8424 -0.4965
  104OSM   H18F10630   2.652   4.864   8.474  0.5562 -1.2835  0.3642
  104OSM   H18G10631   2.583   5.010   8.546 -0.1275 -0.8179  1.1672
  104OSM   H18H10632   2.478   4.861   8.507 -0.0328  0.8734 -2.2749
  105OSM      N10633   6.536   0.569  10.706 -0.0747 -0.1937 -0.1861
  105OSM    C1510634   6.600   0.693  10.771 -0.5153 -0.4609  0.0169
  105OSM   H15A10635   6.701   0.671  10.803  0.4603  1.8915 -1.2528
  105OSM   H15B10636   6.545   0.712  10.862  1.5853 -1.4701  1.5404
  105OSM   H15C10637   6.589   0.783  10.711 -1.1367 -0.4483  0.1482
  105OSM    C1410638   6.626   0.522  10.594  0.9546 -0.2908 -0.1093
  105OSM   H14A10639   6.578   0.446  10.535  1.3431  0.1339 -0.9841
  105OSM   H14B10640   6.718   0.490  10.642  0.7080  0.2142  0.7158
  105OSM   H14C10641   6.646   0.604  10.526  3.2905 -0.3298  0.4826
  105OSM    C1310642   6.533   0.458  10.808 -0.0456  0.2784  0.3285
  105OSM   H13A10643   6.493   0.367  10.766  1.5336 -1.1744  1.8952
  105OSM   H13B10644   6.461   0.470  10.888 -0.9217  0.7265 -0.5139
  105OSM   H13C10645   6.630   0.434  10.848 -0.2529 -4.0125 -1.4698
  105OSM    C1210646   6.400   0.597  10.653  0.0353  0.3853 -0.0207
  105OSM   H12A10647   6.366   0.529  10.576  2.1142 -1.3009  0.4915
  105OSM   H12B10648   6.413   0.691  10.602  6.2593  0.3938  1.2022
  105OSM    C1110649   6.282   0.622  10.757  0.2376 -0.0964 -0.2732
  105OSM   H11A10650   6.270   0.526  10.811 -0.6612 -0.5995 -1.3618
  105OSM   H11B10651   6.182   0.647  10.715 -0.5367 -0.1759  1.4589
  105OSM      P10652   6.312   0.876  10.828 -0.1462  0.2460 -0.2567
  105OSM    O1310653   6.189   0.920  10.897 -0.1227  0.3314  0.0802
  105OSM    O1410654   6.444   0.926  10.873 -0.4736  0.5779  0.2867
  105OSM    O1110655   6.303   0.895  10.674  0.2893  0.0901  0.4443
  105OSM    O1210656   6.311   0.723  10.858  0.2721  0.0970  0.3292
  105OSM    C1S10657   6.175   0.933  10.606 -0.2275  0.1073 -0.1072
  105OSM    H1S10658   6.146   1.025  10.660 -2.0355  0.0293 -0.9041
  105OSM    H1T10659   6.092   0.860  10.618  1.9952 -2.6916 -0.9885
  105OSM     NF10660   6.059   1.017  10.402  0.1364  0.1441 -0.2743
  105OSM    HNF10661   5.998   0.952  10.358 -0.0587  1.1531 -1.5113
  105OSM    C2S10662   6.190   0.971  10.455 -0.8922 -0.2746  0.7851
  105OSM    H2S10663   6.267   1.050  10.445  0.8323 -2.0781 -0.6597
  105OSM    C3S10664   6.249   0.851  10.380  0.0532 -0.0126  0.5660
  105OSM    H3S10665   6.183   0.761  10.390  1.1017 -0.9412 -0.5990
  105OSM     O310666   6.376   0.812  10.429  0.6600  0.3013 -0.2921
  105OSM    HO310667   6.379   0.854  10.515  1.5399 -0.7918  0.2193
  105OSM    C4S10668   6.259   0.883  10.231  0.4876 -0.0173  0.1592
  105OSM    H4S10669   6.171   0.850  10.175 -0.7746  1.6940  1.0652
  105OSM    C5S10670   6.360   0.945  10.165 -0.1071  0.3141  0.8163
  105OSM    H5S10671   6.456   0.971  10.212 -0.6794  1.6602  1.2714
  105OSM    C6S10672   6.363   0.972  10.015  0.4199  0.7993  0.3992
  105OSM    H6S10673   6.469   0.969   9.983  0.1984  1.2287 -0.3831
  105OSM    H6T10674   6.334   1.079  10.003  0.6145  0.5988 -2.1305
  105OSM    C7S10675   6.268   0.881   9.934  0.1231  0.6936  0.0992
  105OSM    H7S10676   6.165   0.878   9.975  0.2121 -1.0304  0.2437
  105OSM    H7T10677   6.301   0.776   9.951 -0.3868  0.6418  0.7839
  105OSM    C8S10678   6.278   0.900   9.781  0.5965 -0.0362  0.2474
  105OSM    H8S10679   6.226   0.809   9.743 -1.2164  0.7125  0.8972
  105OSM    H8T10680   6.384   0.887   9.748  0.4817 -1.8100  0.4914
  105OSM    C9S10681   6.210   1.035   9.741 -0.0842  0.2497 -0.1415
  105OSM    H9S10682   6.270   1.109   9.798 -1.9792  0.3041  1.8585
  105OSM    H9T10683   6.105   1.023   9.776 -0.7422 -1.7683 -2.5929
  105OSM   C10S10684   6.233   1.046   9.584  0.2700 -0.0214 -0.0091
  105OSM   H10S10685   6.338   1.010   9.572  0.3344 -0.6531  2.2309
  105OSM   H10T10686   6.228   1.153   9.557 -0.4288 -0.7238 -2.9272
  105OSM   C11S10687   6.152   0.953   9.493  0.1857  0.3517  0.0731
  105OSM   H11S10688   6.043   0.955   9.513 -0.1287 -0.5165 -1.4087
  105OSM   H11T10689   6.186   0.849   9.514 -1.9969 -0.3369  0.3865
  105OSM   C12S10690   6.171   0.989   9.345 -0.0463  0.0339 -0.1767
  105OSM   H12S10691   6.274   1.015   9.312 -0.8112  1.2110 -1.7225
  105OSM   H12T10692   6.125   1.086   9.316  2.0546  0.8045 -1.0152
  105OSM   C13S10693   6.097   0.889   9.253 -0.1257 -0.3736  0.5151
  105OSM   H13S10694   5.987   0.889   9.269 -0.0165 -1.1559  1.2977
  105OSM   H13T10695   6.136   0.789   9.281  1.2593  0.0545  0.1445
  105OSM   C14S10696   6.112   0.918   9.100  0.3101 -0.1703 -0.1538
  105OSM   H14S10697   6.216   0.896   9.070  0.1634 -0.4690 -0.4488
  105OSM   H14T10698   6.094   1.027   9.092  0.7272 -0.2965 -3.1357
  105OSM   C15S10699   6.016   0.836   9.025  0.9519  0.2222  0.6205
  105OSM   H15S10700   5.912   0.870   9.049  0.6671  0.3846 -0.8180
  105OSM   H15T10701   6.022   0.728   9.049 -0.8282 -0.2857 -1.0661
  105OSM   C16S10702   6.036   0.843   8.873  0.2791 -0.1337 -0.3614
  105OSM   H16S10703   5.962   0.786   8.812  1.3773 -0.9665 -0.9551
  105OSM   H16T10704   6.134   0.794   8.854  0.5108  0.1508  0.1136
  105OSM   C17S10705   6.014   0.992   8.821 -0.5265  0.2810  0.1581
  105OSM   H17S10706   6.083   1.062   8.873 -0.7177 -0.1278  0.9639
  105OSM   H17T10707   5.906   1.010   8.838 -0.0197  1.3412  2.4884
  105OSM   C18S10708   6.048   1.008   8.672  0.2624 -0.2071  0.3244
  105OSM   H18S10709   5.973   0.950   8.614  0.1708 -0.2241  0.4612
  105OSM   H18T10710   6.151   0.971   8.652  1.3906  2.8886  0.2122
  105OSM   H18U10711   6.042   1.115   8.645  1.5823 -0.5058 -1.2491
  105OSM    C1F10712   5.999   1.126  10.446  0.9119  0.0784 -1.0636
  105OSM     OF10713   6.049   1.197  10.527  0.3166  0.3107 -0.4610
  105OSM    C2F10714   5.857   1.138  10.407 -0.1527  0.1908  0.0810
  105OSM    H2F10715   5.796   1.160  10.497  0.8346 -2.0172  1.3328
  105OSM    H2G10716   5.818   1.036  10.382  1.8559 -1.1133  2.1271
  105OSM    C3F10717   5.837   1.238  10.300 -0.3105  0.3542 -0.3944
  105OSM    H3F10718   5.874   1.337  10.334 -0.8573  0.4005  0.0889
  105OSM    H3G10719   5.728   1.240  10.276 -0.9962 -2.2747  2.2307
  105OSM    C4F10720   5.897   1.179  10.167  0.3811 -0.2406 -0.1441
  105OSM    H4F10721   5.865   1.073  10.167  2.0367 -0.7681  1.4859
  105OSM    H4G10722   6.008   1.189  10.171  0.2283  1.0192  3.0145
  105OSM    C5F10723   5.826   1.244  10.045  0.3582 -0.4462  0.6592
  105OSM    H5F10724   5.846   1.354  10.049  1.2406 -0.5651 -0.2612
  105OSM    H5G10725   5.719   1.217  10.053  0.7499 -2.1800  0.1296
  105OSM    C6F10726   5.865   1.185   9.905  0.2791  0.1763  0.5128
  105OSM    H6F10727   5.843   1.078   9.921 -3.2294  0.9386  1.3961
  105OSM    H6G10728   5.974   1.200   9.895  0.2136  0.0289 -0.4247
  105OSM    C7F10729   5.783   1.255   9.787 -0.0729  0.0392  0.0516
  105OSM    H7F10730   5.782   1.366   9.790  0.5541  0.1940 -3.2901
  105OSM    H7G10731   5.677   1.222   9.791  0.2075 -1.4804 -3.3319
  105OSM    C8F10732   5.839   1.218   9.651 -0.7911  0.3499  0.1455
  105OSM    H8F10733   5.949   1.203   9.656 -0.5504  1.7592 -0.7207
  105OSM    H8G10734   5.826   1.303   9.581  1.6255 -0.2930 -1.1322
  105OSM    C9F10735   5.767   1.090   9.612  0.3982  0.1466 -0.1673
  105OSM    H9F10736   5.769   1.003   9.679 -0.7368  0.5084  0.3496
  105OSM   C10F10737   5.686   1.062   9.504 -0.1435  0.0016 -0.3672
  105OSM   H10F10738   5.644   0.962   9.490  1.0961 -0.6104  0.1684
  105OSM   C11F10739   5.661   1.155   9.393 -0.6756  0.2908  0.5457
  105OSM   H11F10740   5.679   1.262   9.418  0.6704  0.1074  0.4042
  105OSM   H11G10741   5.554   1.163   9.364 -0.9483 -0.2483  1.4009
  105OSM   C12F10742   5.757   1.123   9.275  0.1483  0.4446  0.2081
  105OSM   H12F10743   5.779   1.014   9.265 -0.5559  0.3835 -0.7538
  105OSM   H12G10744   5.852   1.165   9.314  0.3611  1.9535 -1.8926
  105OSM   C13F10745   5.712   1.183   9.139 -0.2316 -0.3146  0.5783
  105OSM   H13F10746   5.794   1.157   9.068 -0.6962 -1.6600  0.5097
  105OSM   H13G10747   5.701   1.293   9.145  3.0638  0.0883  0.3568
  105OSM   C14F10748   5.584   1.129   9.071 -0.3057  0.1902  0.7048
  105OSM   H14F10749   5.493   1.147   9.131 -0.0931 -0.5756  1.2592
  105OSM   H14G10750   5.595   1.019   9.067 -1.3125  0.0799  0.9857
  105OSM   C15F10751   5.570   1.189   8.928 -0.0439  0.2498  0.2009
  105OSM   H15F10752   5.641   1.140   8.858  1.4985 -0.6670  2.3633
  105OSM   H15G10753   5.590   1.299   8.925  1.4199 -0.0113 -0.1015
  105OSM   C16F10754   5.431   1.162   8.867 -0.1254 -0.0772  0.3228
  105OSM   H16F10755   5.363   1.218   8.935  1.1792 -0.2637  1.8186
  105OSM   H16G10756   5.412   1.053   8.869 -0.9423 -0.0286 -2.8933
  105OSM   C17F10757   5.406   1.209   8.725 -0.1113 -0.0285 -0.1783
  105OSM   H17F10758   5.493   1.183   8.661 -1.2152 -0.3449 -1.5507
  105OSM   H17G10759   5.396   1.319   8.724  0.1183  0.0079 -3.1812
  105OSM   C18F10760   5.282   1.142   8.658  0.1643 -0.3394  0.1405
  105OSM   H18F10761   5.291   1.031   8.655  0.8063 -0.2589 -2.5014
  105OSM   H18G10762   5.260   1.187   8.559 -1.7571 -0.0716  0.6724
  105OSM   H18H10763   5.189   1.170   8.711  0.8269 -0.5444  1.4460
  106OSM      N10764   4.546   1.186  10.997 -0.4242 -0.4004  0.5761
  106OSM    C1510765   4.485   1.316  10.954  0.5657 -0.8130  0.8616
  106OSM   H15A10766   4.382   1.322  10.987 -0.1592 -0.5199 -1.3669
  106OSM   H15B10767   4.502   1.329  10.848 -0.6278 -0.9579  0.6401
  106OSM   H15C10768   4.524   1.402  11.006  0.0845 -0.4219  0.5802
  106OSM    C1410769   4.547   1.181  11.149 -0.4021 -0.5367 -0.4576
  106OSM   H14A10770   4.569   1.080  11.181 -1.3526 -0.4343  0.5606
  106OSM   H14B10771   4.449   1.205  11.187 -0.0099  1.8354 -0.8475
  106OSM   H14C10772   4.618   1.243  11.202 -1.7722  0.8017 -0.1727
  106OSM    C1310773   4.474   1.071  10.930 -0.4440 -0.7199  0.5637
  106OSM   H13A10774   4.373   1.055  10.965 -1.1867 -0.5169 -1.4388
  106OSM   H13B10775   4.522   0.977  10.950  0.9259 -0.3770 -1.0863
  106OSM   H13C10776   4.463   1.082  10.823  0.6816  1.9689  0.7050
  106OSM    C1210777   4.689   1.198  10.952  0.2243  0.2521  0.3197
  106OSM   H12A10778   4.737   1.110  10.993  0.2670 -0.7016 -1.7257
  106OSM   H12B10779   4.735   1.283  11.000 -0.0518  0.3938  0.3322
  106OSM    C1110780   4.734   1.204  10.802  0.6612 -0.3781 -0.4652
  106OSM   H11A10781   4.831   1.258  10.793  0.8049 -0.7179 -0.9473
  106OSM   H11B10782   4.655   1.269  10.761  0.8261 -0.7758 -1.4128
  106OSM      P10783   4.812   0.961  10.763 -0.0751  0.3212  0.3971
  106OSM    O1310784   4.892   0.983  10.885  0.0574  0.0718 -0.3349
  106OSM    O1410785   4.739   0.835  10.754  0.7001  0.3635  0.0173
  106OSM    O1110786   4.916   0.973  10.645  0.2727  0.4926  0.3899
  106OSM    O1210787   4.726   1.080  10.738  0.0869  0.1776 -0.1530
  106OSM    C1S10788   4.909   0.909  10.528 -1.3588 -0.1388 -0.3936
  106OSM    H1S10789   4.866   0.807  10.523  1.2353 -1.2963  0.3801
  106OSM    H1T10790   5.015   0.890  10.502 -1.0367 -1.0970  1.5248
  106OSM     NF10791   4.841   0.912  10.301  0.2821 -0.3304 -0.7960
  106OSM    HNF10792   4.919   0.919  10.240  1.3654  0.8403  0.6887
  106OSM    C2S10793   4.846   0.993  10.418 -1.5792  0.2404 -0.1178
  106OSM    H2S10794   4.740   1.016  10.442 -1.2897 -1.3918  2.9345
  106OSM    C3S10795   4.931   1.125  10.400 -0.3661  0.5511  0.2040
  106OSM    H3S10796   5.039   1.096  10.401 -1.2371 -3.0077  0.0188
  106OSM     O310797   4.914   1.215  10.510 -0.5744 -0.0322 -0.2654
  106OSM    HO310798   4.907   1.155  10.584 -2.6356  1.1122  0.5342
  106OSM    C4S10799   4.894   1.209  10.280 -0.6885  0.2817  0.7909
  106OSM    H4S10800   4.796   1.258  10.293 -0.8108  0.2060  0.1812
  106OSM    C5S10801   4.954   1.229  10.161  0.0352  0.8727  0.1782
  106OSM    H5S10802   5.052   1.178  10.149 -1.0388 -0.6597 -2.5622
  106OSM    C6S10803   4.910   1.318  10.050 -0.1838  0.6104  0.8569
  106OSM    H6S10804   4.987   1.395  10.027  1.0282 -0.1515  2.3111
  106OSM    H6T10805   4.826   1.383  10.084 -0.8898 -1.4067  3.0897
  106OSM    C7S10806   4.885   1.251   9.912 -0.4905 -0.0205 -0.2544
  106OSM    H7S10807   4.791   1.193   9.917 -0.9110  0.7823  1.5567
  106OSM    H7T10808   4.972   1.185   9.891  0.0940  0.5850  0.2535
  106OSM    C8S10809   4.865   1.351   9.793  0.5737  0.3724  0.5056
  106OSM    H8S10810   4.953   1.418   9.805  0.1991  1.5476 -2.8976
  106OSM    H8T10811   4.774   1.407   9.821  0.9822  2.0273 -1.3720
  106OSM    C9S10812   4.856   1.295   9.655 -0.0281  0.0639 -0.1367
  106OSM    H9S10813   4.948   1.236   9.634 -0.2045 -0.5660  0.8297
  106OSM    H9T10814   4.848   1.379   9.583  0.1720 -0.2087 -0.4743
  106OSM   C10S10815   4.750   1.181   9.634 -0.2733  0.0376 -0.2492
  106OSM   H10S10816   4.657   1.219   9.680  0.4641 -0.6744  1.9092
  106OSM   H10T10817   4.785   1.093   9.692  1.7918  0.9434 -0.0804
  106OSM   C11S10818   4.723   1.144   9.489 -0.2276  0.3475  0.1157
  106OSM   H11S10819   4.638   1.072   9.490 -1.5502  1.8830 -0.6736
  106OSM   H11T10820   4.817   1.103   9.446  1.0596  2.2492  1.0402
  106OSM   C12S10821   4.692   1.265   9.401 -0.0715 -0.3022 -0.3531
  106OSM   H12S10822   4.785   1.325   9.401 -1.1316  1.3609 -0.4477
  106OSM   H12T10823   4.598   1.316   9.429  0.1254 -0.0739 -0.1044
  106OSM   C13S10824   4.674   1.204   9.259 -0.0567 -0.9725 -0.9055
  106OSM   H13S10825   4.589   1.133   9.264 -1.9230  1.3322  2.0424
  106OSM   H13T10826   4.772   1.163   9.228  1.1461  0.9390  0.2923
  106OSM   C14S10827   4.640   1.314   9.153 -0.2318 -0.3761 -0.8481
  106OSM   H14S10828   4.731   1.373   9.130 -1.0632  1.4334  0.3453
  106OSM   H14T10829   4.558   1.376   9.198  0.2798 -0.4302  0.1768
  106OSM   C15S10830   4.609   1.255   9.015 -0.4197  0.3601  0.8418
  106OSM   H15S10831   4.530   1.180   9.032 -1.0249 -0.4030 -4.4366
  106OSM   H15T10832   4.702   1.206   8.979 -2.4166 -3.3821  0.6076
  106OSM   C16S10833   4.557   1.370   8.926  0.1732  0.5919  0.3922
  106OSM   H16S10834   4.634   1.449   8.916  1.6371 -0.9662 -0.7320
  106OSM   H16T10835   4.465   1.415   8.971  0.0586  0.7545  0.0001
  106OSM   C17S10836   4.514   1.317   8.789 -0.1285 -0.1538  0.4736
  106OSM   H17S10837   4.434   1.242   8.808 -0.3792  0.2247  0.9133
  106OSM   H17T10838   4.605   1.263   8.758 -1.7300 -3.1756  0.9022
  106OSM   C18S10839   4.461   1.427   8.693  0.5964  0.9641 -0.6900
  106OSM   H18S10840   4.533   1.504   8.659 -0.1351  1.5352 -0.9687
  106OSM   H18T10841   4.369   1.474   8.734  0.1469 -0.4701 -0.0178
  106OSM   H18U10842   4.424   1.371   8.604 -0.9378  3.1708 -1.4992
  106OSM    C1F10843   4.750   0.818  10.290  0.0952  0.2776  0.5075
  106OSM     OF10844   4.669   0.789  10.378 -0.2774  0.2005  0.0951
  106OSM    C2F10845   4.767   0.738  10.164 -0.0269  0.2230  0.4798
  106OSM    H2F10846   4.779   0.634  10.200 -0.7411 -0.7689 -2.0233
  106OSM    H2G10847   4.853   0.770  10.100 -0.1361 -1.2350 -0.4086
  106OSM    C3F10848   4.638   0.741  10.083  0.4208  0.1589  0.5862
  106OSM    H3F10849   4.544   0.716  10.137  1.3954 -2.6078  1.0853
  106OSM    H3G10850   4.667   0.663  10.009 -1.7362  0.1916 -0.3384
  106OSM    C4F10851   4.608   0.876  10.012  0.4092  0.2948 -0.0164
  106OSM    H4F10852   4.593   0.956  10.088  0.9634 -0.4168  0.8483
  106OSM    H4G10853   4.513   0.855   9.960 -0.0072  0.2117  0.7711
  106OSM    C5F10854   4.719   0.913   9.916  0.1771  0.4034  0.4708
  106OSM    H5F10855   4.814   0.928   9.972 -0.5082  0.8730  1.5386
  106OSM    H5G10856   4.681   1.005   9.867 -0.2736  0.3996  0.8128
  106OSM    C6F10857   4.767   0.822   9.797  0.1709  0.3306 -0.7315
  106OSM    H6F10858   4.822   0.739   9.846 -2.1063 -0.0078  1.3759
  106OSM    H6G10859   4.831   0.883   9.731 -0.1697  0.3931 -1.0083
  106OSM    C7F10860   4.646   0.768   9.718 -0.0763 -0.4555  0.5206
  106OSM    H7F10861   4.587   0.854   9.680 -0.5720 -1.3830 -0.8483
  106OSM    H7G10862   4.583   0.718   9.794  1.1051  0.6165  2.2471
  106OSM    C8F10863   4.689   0.680   9.605 -0.6673  0.2749  0.6755
  106OSM    H8F10864   4.600   0.649   9.546  1.6184  0.0013 -2.6988
  106OSM    H8G10865   4.745   0.589   9.636 -2.1818 -1.1264 -0.6173
  106OSM    C9F10866   4.779   0.740   9.509 -0.4077  0.3129  0.7710
  106OSM    H9F10867   4.871   0.778   9.556  0.9377 -0.7445 -0.9469
  106OSM   C10F10868   4.757   0.782   9.380  0.0690  0.8047  0.2532
  106OSM   H10F10869   4.849   0.821   9.334  0.2101  0.2400  0.0524
  106OSM   C11F10870   4.633   0.754   9.300 -0.7852 -0.8040  0.0874
  106OSM   H11F10871   4.580   0.851   9.294  2.7611  1.0982 -2.6978
  106OSM   H11G10872   4.569   0.675   9.345  1.3257 -3.3611 -1.2245
  106OSM   C12F10873   4.666   0.711   9.157  0.4909 -0.3670  0.0655
  106OSM   H12F10874   4.748   0.774   9.116  0.1649  0.3091  0.4517
  106OSM   H12G10875   4.577   0.734   9.094 -0.7009  2.4011  2.6497
  106OSM   C13F10876   4.701   0.562   9.155  0.3920 -0.5024 -0.8804
  106OSM   H13F10877   4.620   0.496   9.192  1.5960 -1.1999  0.5299
  106OSM   H13G10878   4.781   0.547   9.230  0.4451 -1.1024 -1.0504
  106OSM   C14F10879   4.741   0.511   9.015  0.2836 -0.0409  0.5741
  106OSM   H14F10880   4.847   0.536   8.996  0.8281 -2.2222  0.5746
  106OSM   H14G10881   4.670   0.554   8.941  1.3874 -2.2800 -1.8787
  106OSM   C15F10882   4.741   0.356   9.002  0.1050  0.7204 -0.0584
  106OSM   H15F10883   4.642   0.314   9.031  0.0749 -1.4828 -3.1020
  106OSM   H15G10884   4.814   0.315   9.076 -1.3675 -1.5746  0.1599
  106OSM   C16F10885   4.776   0.326   8.856 -0.1381 -0.7634  0.6943
  106OSM   H16F10886   4.815   0.222   8.853  1.7866 -0.0801  1.2394
  106OSM   H16G10887   4.868   0.374   8.817 -0.5302 -1.0724 -0.6476
  106OSM   C17F10888   4.653   0.350   8.762  0.6285 -0.6617  0.3246
  106OSM   H17F10889   4.659   0.457   8.732 -0.9989 -1.2007 -2.1059
  106OSM   H17G10890   4.557   0.347   8.817  1.1622  0.2135  1.3263
  106OSM   C18F10891   4.640   0.256   8.638  0.1823 -0.5858 -0.2822
  106OSM   H18F10892   4.732   0.255   8.575 -0.9145  2.2641 -2.0096
  106OSM   H18G10893   4.558   0.293   8.575  1.0304 -1.4082 -1.9005
  106OSM   H18H10894   4.632   0.148   8.663  0.2420 -0.7274 -0.8737
  107OSM      N10895   0.800   4.876  10.782 -0.2909 -0.3980 -0.0133
  107OSM    C1510896   0.759   4.859  10.640 -0.1882  0.5320  0.3833
  107OSM   H15A10897   0.845   4.882  10.579 -0.0340  0.4235  0.5591
  107OSM   H15B10898   0.675   4.926  10.629 -1.9488 -1.4652  1.3656
  107OSM   H15C10899   0.732   4.755  10.629  0.3180  0.4339  0.0435
  107OSM    C1410900   0.673   4.842  10.860  0.0984 -0.0079  0.2267
  107OSM   H14A10901   0.696   4.846  10.966  0.1826 -1.5353  0.2833
  107OSM   H14B10902   0.649   4.742  10.826  1.1973 -0.3508  0.4534
  107OSM   H14C10903   0.592   4.912  10.843 -0.5592 -0.5441  1.0620
  107OSM    C1310904   0.911   4.775  10.809  0.3148 -0.3194 -0.3144
  107OSM   H13A10905   0.874   4.675  10.788 -1.2682  0.1222  0.3018
  107OSM   H13B10906   0.938   4.781  10.914 -0.3947 -1.0088 -0.0840
  107OSM   H13C10907   0.991   4.794  10.739 -0.1184  0.2930 -0.6420
  107OSM    C1210908   0.838   5.020  10.820 -0.3187  0.6237  0.3119
  107OSM   H12A10909   0.880   5.013  10.920 -0.2202  1.8186  0.3611
  107OSM   H12B10910   0.752   5.083  10.837 -1.7399 -1.8147  2.5809
  107OSM    C1110911   0.962   5.087  10.741  0.0762  0.6563 -0.8498
  107OSM   H11A10912   0.978   5.192  10.777  3.6797  0.4429 -1.6204
  107OSM   H11B10913   0.928   5.099  10.636 -0.1005 -3.1000 -1.2791
  107OSM      P10914   1.187   5.025  10.866 -0.2756 -0.1373 -0.5075
  107OSM    O1310915   1.123   5.077  10.990 -0.7683  0.0207  0.5268
  107OSM    O1410916   1.272   4.905  10.874  0.4550  0.0516  0.0973
  107OSM    O1110917   1.273   5.143  10.798 -0.3900 -0.0671  0.0389
  107OSM    O1210918   1.084   5.003  10.747  0.3867  0.0275  0.3654
  107OSM    C1S10919   1.367   5.131  10.700  0.1021 -0.2804 -0.3246
  107OSM    H1S10920   1.405   5.027  10.700  1.2386  0.1064  1.1313
  107OSM    H1T10921   1.459   5.187  10.729 -1.7589  3.4349 -1.2259
  107OSM     NF10922   1.379   5.090  10.453 -0.2156 -0.1160 -0.3334
  107OSM    HNF10923   1.421   5.146  10.382  0.6856  1.0666  1.1135
  107OSM    C2S10924   1.304   5.154  10.553 -0.0567  0.1153  0.1593
  107OSM    H2S10925   1.204   5.106  10.557  0.2995 -0.8162 -1.5180
  107OSM    C3S10926   1.286   5.299  10.526 -0.1802 -1.1684 -0.5194
  107OSM    H3S10927   1.383   5.346  10.499 -1.8476  0.8709 -3.2371
  107OSM     O310928   1.236   5.367  10.644  0.3939 -0.1227 -0.0016
  107OSM    HO310929   1.227   5.298  10.709 -1.7627  0.4369  0.3242
  107OSM    C4S10930   1.201   5.330  10.403 -0.9497  0.0569  0.1806
  107OSM    H4S10931   1.257   5.323  10.309 -2.9791 -0.4825 -1.0233
  107OSM    C5S10932   1.069   5.344  10.398 -0.5557  0.0085 -0.8675
  107OSM    H5S10933   1.007   5.349  10.488 -1.5876  2.2982 -1.6890
  107OSM    C6S10934   0.988   5.384  10.281  0.5433  0.2922  0.3127
  107OSM    H6S10935   0.941   5.483  10.297  0.2933 -0.0087  1.5046
  107OSM    H6T10936   0.913   5.302  10.275  0.4710  0.4770 -1.6029
  107OSM    C7S10937   1.057   5.395  10.146 -0.2815 -0.4309 -0.1981
  107OSM    H7S10938   1.097   5.295  10.116 -1.5850 -1.1736  0.4927
  107OSM    H7T10939   1.143   5.465  10.148  1.0128 -2.0198  1.2550
  107OSM    C8S10940   0.956   5.429  10.027  0.0139 -0.0425 -0.2630
  107OSM    H8S10941   0.923   5.534  10.042  0.9698  0.4036 -1.2413
  107OSM    H8T10942   0.871   5.364  10.055 -0.1698  0.6330  0.7940
  107OSM    C9S10943   1.005   5.382   9.896  0.6525 -0.3024 -0.8038
  107OSM    H9S10944   1.042   5.278   9.896 -0.6892 -0.7982 -2.4728
  107OSM    H9T10945   1.095   5.442   9.871 -0.1525  1.6642  0.7877
  107OSM   C10S10946   0.888   5.388   9.797  0.5859  0.1561  0.3690
  107OSM   H10S10947   0.845   5.490   9.786 -1.9995 -1.1720 -2.7146
  107OSM   H10T10948   0.804   5.320   9.823 -0.0579  1.6805  2.3955
  107OSM   C11S10949   0.939   5.355   9.655 -0.4647 -0.9853  0.5727
  107OSM   H11S10950   0.980   5.252   9.656 -1.4788 -1.4108 -0.9108
  107OSM   H11T10951   1.030   5.416   9.631 -0.0783 -2.2697 -1.3305
  107OSM   C12S10952   0.838   5.379   9.547  0.2708  0.0297  0.5005
  107OSM   H12S10953   0.809   5.486   9.554  0.1932  0.2487 -2.4527
  107OSM   H12T10954   0.753   5.309   9.558  0.1012  0.2836  0.8153
  107OSM   C13S10955   0.895   5.360   9.404 -0.7480  0.4453  0.6220
  107OSM   H13S10956   0.931   5.255   9.402 -0.6835  0.5006 -2.7414
  107OSM   H13T10957   0.984   5.425   9.388 -1.5229  1.7481  1.4763
  107OSM   C14S10958   0.798   5.380   9.287  0.4841  0.2063  0.0347
  107OSM   H14S10959   0.865   5.399   9.200  1.0236 -0.6093  0.2652
  107OSM   H14T10960   0.747   5.479   9.293  1.8284  0.8609  1.1287
  107OSM   C15S10961   0.693   5.272   9.269  0.6465  0.1180 -0.5348
  107OSM   H15S10962   0.622   5.268   9.354  2.1217 -2.4721  0.6178
  107OSM   H15T10963   0.748   5.176   9.269 -1.0987 -0.8837 -0.2241
  107OSM   C16S10964   0.602   5.284   9.140  0.0234  0.1453  0.2691
  107OSM   H16S10965   0.553   5.185   9.126 -0.4908  0.4599 -0.1896
  107OSM   H16T10966   0.673   5.309   9.059 -0.4060  0.9718  0.1368
  107OSM   C17S10967   0.485   5.391   9.153 -0.9771  0.2553  0.0491
  107OSM   H17S10968   0.525   5.485   9.197  1.6656  0.6071 -2.9317
  107OSM   H17T10969   0.412   5.353   9.227 -1.1040  3.0198  1.3991
  107OSM   C18S10970   0.420   5.417   9.016 -0.5005  0.3818  0.4458
  107OSM   H18S10971   0.373   5.321   8.986  0.4704  0.1180 -0.2216
  107OSM   H18T10972   0.502   5.449   8.950 -0.7872 -0.5564 -0.3763
  107OSM   H18U10973   0.340   5.494   9.031  1.6948  2.6973  0.6481
  107OSM    C1F10974   1.386   4.958  10.434 -0.4130  0.3605  0.0130
  107OSM     OF10975   1.304   4.878  10.489  0.8591  0.0797  0.5715
  107OSM    C2F10976   1.494   4.914  10.332  0.3381 -0.2065  0.3454
  107OSM    H2F10977   1.584   4.978  10.338  1.7803 -2.1893  0.1201
  107OSM    H2G10978   1.458   4.929  10.228 -0.5163 -3.9069  0.0305
  107OSM    C3F10979   1.536   4.764  10.353 -0.0429 -0.0584 -0.4953
  107OSM    H3F10980   1.449   4.695  10.345  0.0593 -0.0206 -1.9162
  107OSM    H3G10981   1.577   4.749  10.456 -1.3569 -2.5165 -0.2987
  107OSM    C4F10982   1.635   4.711  10.243 -0.2519  0.2459 -0.2539
  107OSM    H4F10983   1.674   4.612  10.275  0.1630  1.4229  3.0475
  107OSM    H4G10984   1.717   4.785  10.241  2.1244 -2.2993  0.6461
  107OSM    C5F10985   1.568   4.691  10.110  0.5275 -1.0059 -0.1666
  107OSM    H5F10986   1.518   4.782  10.072 -0.4957 -1.0471  1.0188
  107OSM    H5G10987   1.482   4.622  10.121 -1.6334  1.8617  1.4520
  107OSM    C6F10988   1.672   4.630  10.008  0.0669 -0.2411  0.4422
  107OSM    H6F10989   1.605   4.587   9.930  0.5624  1.2557 -0.8478
  107OSM    H6G10990   1.721   4.544  10.058 -1.3842 -1.7995 -0.7496
  107OSM    C7F10991   1.774   4.724   9.952 -0.6478 -0.1245 -0.0600
  107OSM    H7F10992   1.823   4.777  10.037  0.5011  0.8595 -1.3011
  107OSM    H7G10993   1.728   4.806   9.893 -0.4061  1.3813  1.8051
  107OSM    C8F10994   1.872   4.636   9.871  0.6227  0.2848  0.0562
  107OSM    H8F10995   1.832   4.585   9.781 -0.8660 -0.3719  1.0793
  107OSM    H8G10996   1.912   4.553   9.932  2.4476  1.6497  0.7766
  107OSM    C9F10997   1.989   4.725   9.828 -0.3545  0.3398 -0.6842
  107OSM    H9F10998   2.084   4.718   9.884 -0.0846 -1.1578 -1.3060
  107OSM   C10F10999   1.986   4.809   9.721 -0.4644  0.9105 -0.6132
  107OSM   H10F11000   2.081   4.857   9.692  0.2029 -1.1541 -1.9940
  107OSM   C11F11001   1.873   4.822   9.617 -0.1689 -0.3363  0.1029
  107OSM   H11F11002   1.873   4.921   9.567  1.5182 -1.2869 -1.8718
  107OSM   H11G11003   1.774   4.808   9.665  0.6149 -3.4100  0.9313
  107OSM   C12F11004   1.895   4.728   9.499  0.0287 -0.1313  0.0753
  107OSM   H12F11005   1.797   4.727   9.447  0.3613 -0.1176 -0.5482
  107OSM   H12G11006   1.910   4.621   9.523 -1.8705 -0.7439 -1.3667
  107OSM   C13F11007   1.992   4.778   9.391 -0.4110  0.0094  0.4557
  107OSM   H13F11008   2.096   4.788   9.431 -0.6014  0.0854  0.9302
  107OSM   H13G11009   1.966   4.885   9.372 -2.6302 -0.5480  0.3560
  107OSM   C14F11010   1.965   4.712   9.259 -0.0128  0.1458  0.3433
  107OSM   H14F11011   1.861   4.674   9.264  1.0654 -3.0609 -0.6395
  107OSM   H14G11012   2.024   4.619   9.246 -0.9588 -0.2787 -1.1049
  107OSM   C15F11013   1.985   4.790   9.135  0.4754 -0.3232 -0.2961
  107OSM   H15F11014   2.088   4.832   9.131  1.2632 -2.2688 -0.9891
  107OSM   H15G11015   1.917   4.878   9.135 -1.1457 -1.5437  0.0974
  107OSM   C16F11016   1.973   4.710   9.002  0.4911 -0.6680 -1.3982
  107OSM   H16F11017   1.870   4.673   8.980 -0.0704  0.7805 -1.2944
  107OSM   H16G11018   2.039   4.622   9.018  0.2013 -0.6553 -0.0680
  107OSM   C17F11019   2.015   4.781   8.871  0.5470 -0.5127  0.0299
  107OSM   H17F11020   2.119   4.819   8.884  0.9903 -0.5101 -3.0914
  107OSM   H17G11021   1.945   4.867   8.862  1.5270  0.3846  0.7814
  107OSM   C18F11022   2.000   4.705   8.741  0.5865  0.3284 -0.0243
  107OSM   H18F11023   2.050   4.607   8.757  1.4223  0.4681 -1.6625
  107OSM   H18G11024   2.031   4.755   8.647  0.7248  0.5520  0.1412
  107OSM   H18H11025   1.896   4.674   8.718  0.8729  0.0734 -1.0394
  108OSM      N11026   4.359   0.672  10.565  1.0192  0.5654 -0.0337
  108OSM    C1511027   4.417   0.613  10.442 -0.0315  0.1435 -0.9076
  108OSM   H15A11028   4.467   0.691  10.386  0.8098  0.6052  0.4651
  108OSM   H15B11029   4.343   0.564  10.381  1.7820 -0.1252 -2.9855
  108OSM   H15C11030   4.496   0.540  10.455 -0.0893  0.4046  1.0699
  108OSM    C1411031   4.463   0.767  10.625 -0.4526 -0.0279 -0.2738
  108OSM   H14A11032   4.429   0.802  10.721  1.0475 -0.7259  0.5207
  108OSM   H14B11033   4.468   0.852  10.559  0.5516  0.1808  0.0672
  108OSM   H14C11034   4.555   0.715  10.647 -1.1591 -1.3259 -0.3674
  108OSM    C1311035   4.239   0.753  10.524 -0.6309  0.1371 -0.5262
  108OSM   H13A11036   4.259   0.837  10.459  1.1252 -1.1772 -1.7381
  108OSM   H13B11037   4.184   0.790  10.609 -1.9585 -1.3218 -0.7204
  108OSM   H13C11038   4.164   0.689  10.479 -0.0064 -1.1290  0.2097
  108OSM    C1211039   4.320   0.565  10.669 -0.1217  0.0359 -0.0918
  108OSM   H12A11040   4.254   0.609  10.742  1.0307 -0.1820  1.1107
  108OSM   H12B11041   4.409   0.540  10.724  0.7441  0.0603 -1.4528
  108OSM    C1111042   4.252   0.435  10.623  0.1610  0.7418  0.5268
  108OSM   H11A11043   4.166   0.476  10.564  2.2127  1.1426 -2.3033
  108OSM   H11B11044   4.214   0.381  10.712 -2.3298 -0.7559 -1.3525
  108OSM      P11045   4.474   0.300  10.580  0.1816  0.0231  0.0706
  108OSM    O1311046   4.566   0.311  10.466  0.4740 -0.6395  0.6692
  108OSM    O1411047   4.514   0.362  10.706 -0.1823  0.1924  0.1113
  108OSM    O1111048   4.448   0.137  10.603  0.0054  0.0250  0.0501
  108OSM    O1211049   4.331   0.349  10.540  0.2046 -0.5411  0.3767
  108OSM    C1S11050   4.378   0.070  10.500 -0.8088 -0.3147 -0.3057
  108OSM    H1S11051   4.304   0.136  10.450 -1.7172  0.2595  1.7600
  108OSM    H1T11052   4.309  -0.006  10.544 -0.4230  0.5316  1.8284
  108OSM     NF11053   4.377  -0.057  10.285 -0.6457 -0.1241  0.0092
  108OSM    HNF11054   4.386  -0.156  10.275 -2.4828 -0.3128 -0.0127
  108OSM    C2S11055   4.459   0.005  10.391  0.0367  0.6754  0.5955
  108OSM    H2S11056   4.515   0.087  10.341 -0.7337  0.5717 -0.4706
  108OSM    C3S11057   4.555  -0.089  10.459  0.2354  0.0906  0.3215
  108OSM    H3S11058   4.489  -0.148  10.526  1.4092 -0.5722  0.9151
  108OSM     O311059   4.655  -0.026  10.542  0.4685  0.0678 -0.8565
  108OSM    HO311060   4.618   0.062  10.547 -2.5888 -1.2609  0.9871
  108OSM    C4S11061   4.610  -0.182  10.357  0.1661 -0.1233 -0.1771
  108OSM    H4S11062   4.545  -0.270  10.345  1.2827 -1.5887  3.6578
  108OSM    C5S11063   4.723  -0.159  10.289  0.1799  0.5280  0.5760
  108OSM    H5S11064   4.785  -0.070  10.307  3.2410 -1.1401 -1.0781
  108OSM    C6S11065   4.772  -0.259  10.186  0.1905 -0.9919 -0.2605
  108OSM    H6S11066   4.707  -0.349  10.188 -2.6794  0.9882 -1.8889
  108OSM    H6T11067   4.874  -0.283  10.223 -0.0055 -0.7491  0.4485
  108OSM    C7S11068   4.763  -0.195  10.042  0.0653  0.7286 -0.5242
  108OSM    H7S11069   4.852  -0.129  10.040  1.6848 -1.4394 -1.2086
  108OSM    H7T11070   4.670  -0.142  10.012 -0.0383 -0.9025 -3.3329
  108OSM    C8S11071   4.776  -0.317   9.946 -0.1809  0.1287 -0.9175
  108OSM    H8S11072   4.696  -0.391   9.971 -0.9522  0.9716 -0.8812
  108OSM    H8T11073   4.867  -0.377   9.967  1.0014  1.4538 -2.2201
  108OSM    C9S11074   4.778  -0.277   9.803  0.0588  0.4022  0.0159
  108OSM    H9S11075   4.882  -0.246   9.782  0.5441 -1.0595  0.1949
  108OSM    H9T11076   4.703  -0.195   9.791  0.2327  0.6938  0.8913
  108OSM   C10S11077   4.728  -0.390   9.708  0.4436  0.3004  0.5651
  108OSM   H10S11078   4.623  -0.422   9.722  0.0221  1.4033 -0.0497
  108OSM   H10T11079   4.796  -0.474   9.736 -0.4992 -1.1235 -1.3084
  108OSM   C11S11080   4.761  -0.337   9.564 -0.4221 -0.5262  0.1395
  108OSM   H11S11081   4.849  -0.269   9.572 -1.2025  0.4172  0.8408
  108OSM   H11T11082   4.676  -0.280   9.521 -1.8406 -1.4627  1.6429
  108OSM   C12S11083   4.810  -0.454   9.471  0.9195  0.2465  0.1300
  108OSM   H12S11084   4.743  -0.543   9.472  2.5314 -0.9956 -0.4691
  108OSM   H12T11085   4.909  -0.489   9.505 -0.0000 -0.1515  2.4994
  108OSM   C13S11086   4.810  -0.411   9.327  0.7229  0.6242  0.4633
  108OSM   H13S11087   4.898  -0.344   9.313  1.0793 -0.1604 -1.1819
  108OSM   H13T11088   4.711  -0.371   9.296  0.2495 -1.4984 -0.8104
  108OSM   C14S11089   4.823  -0.533   9.225 -0.1730 -0.7783  0.5742
  108OSM   H14S11090   4.759  -0.621   9.245 -0.2252 -0.8237  0.2037
  108OSM   H14T11091   4.927  -0.570   9.243  0.0894 -0.3399  0.0084
  108OSM   C15S11092   4.835  -0.501   9.073 -0.1718  0.4175 -0.4201
  108OSM   H15S11093   4.901  -0.580   9.033 -0.0689 -0.3289  1.1772
  108OSM   H15T11094   4.883  -0.402   9.056 -0.1918  0.6230  0.7061
  108OSM   C16S11095   4.704  -0.505   8.991  0.2691  0.3889  0.3882
  108OSM   H16S11096   4.730  -0.487   8.884 -1.3336  2.4072  0.3015
  108OSM   H16T11097   4.624  -0.430   9.009  0.4016 -0.1005  3.1041
  108OSM   C17S11098   4.633  -0.642   8.991 -0.1111 -0.2254  0.0505
  108OSM   H17S11099   4.543  -0.628   8.926 -0.5209  0.3098  0.7256
  108OSM   H17T11100   4.591  -0.670   9.090  0.8060 -0.4470  0.3759
  108OSM   C18S11101   4.714  -0.766   8.959 -0.7988 -0.5815  0.4857
  108OSM   H18S11102   4.643  -0.847   8.929  0.1029  0.3896 -4.8473
  108OSM   H18T11103   4.776  -0.786   9.049  0.5099 -0.6368 -0.4215
  108OSM   H18U11104   4.778  -0.748   8.871 -0.0844 -0.3306  1.0565
  108OSM    C1F11105   4.296   0.001  10.194 -0.1750 -0.0161 -0.4203
  108OSM     OF11106   4.269   0.117  10.194  0.5931  0.0201 -0.1549
  108OSM    C2F11107   4.234  -0.097  10.092 -0.1213 -0.4870 -0.1026
  108OSM    H2F11108   4.142  -0.138  10.137  0.8290 -2.3513  0.1993
  108OSM    H2G11109   4.299  -0.187  10.081 -0.5104 -0.6672 -0.9927
  108OSM    C3F11110   4.211  -0.028   9.955 -0.3712  0.4302 -0.0452
  108OSM    H3F11111   4.303   0.004   9.903  0.3464 -1.1736  0.2164
  108OSM    H3G11112   4.140   0.057   9.954  1.7915  2.2526 -0.4792
  108OSM    C4F11113   4.146  -0.127   9.856 -0.1703 -0.2804 -0.1666
  108OSM    H4F11114   4.041  -0.143   9.888  0.7846 -3.9782  1.4429
  108OSM    H4G11115   4.198  -0.225   9.864 -0.3104 -0.6345 -3.0293
  108OSM    C5F11116   4.156  -0.061   9.716 -0.1775  0.5825  0.3094
  108OSM    H5F11117   4.262  -0.061   9.683 -0.6116 -0.8407 -1.1616
  108OSM    H5G11118   4.123   0.044   9.726 -0.1871  0.5861  0.2357
  108OSM    C6F11119   4.080  -0.146   9.613 -0.3153  0.7783 -0.0677
  108OSM    H6F11120   3.971  -0.131   9.628 -0.5706 -0.7673 -0.3159
  108OSM    H6G11121   4.105  -0.249   9.644  1.0672  0.8123 -0.9999
  108OSM    C7F11122   4.127  -0.120   9.468  0.5148 -0.1747  0.0623
  108OSM    H7F11123   4.236  -0.136   9.457  0.3551 -1.5388  0.4670
  108OSM    H7G11124   4.115  -0.009   9.462  0.2588 -0.1510  0.8983
  108OSM    C8F11125   4.037  -0.184   9.356 -0.0779  0.1299 -0.4622
  108OSM    H8F11126   4.063  -0.147   9.255  2.3089 -0.6287 -0.1438
  108OSM    H8G11127   3.934  -0.142   9.368  0.8346  2.3682 -0.2089
  108OSM    C9F11128   4.042  -0.337   9.357  0.7141 -0.3707 -0.3742
  108OSM    H9F11129   4.139  -0.387   9.360  1.6983  1.2965 -2.5534
  108OSM   C10F11130   3.937  -0.416   9.360  0.0898 -0.1118 -0.2160
  108OSM   H10F11131   3.946  -0.521   9.329 -0.4309 -0.3284  0.3438
  108OSM   C11F11132   3.791  -0.375   9.356 -0.7552  0.0086  0.0959
  108OSM   H11F11133   3.776  -0.265   9.365 -0.3997  0.3170 -2.6342
  108OSM   H11G11134   3.749  -0.429   9.444 -0.0381  0.5814  0.7991
  108OSM   C12F11135   3.708  -0.417   9.239 -0.4711  0.0538 -0.6340
  108OSM   H12F11136   3.606  -0.374   9.235 -0.2298  0.9606  2.1900
  108OSM   H12G11137   3.691  -0.526   9.242  2.1929 -0.3640  1.2065
  108OSM   C13F11138   3.777  -0.374   9.109  0.1064  0.5466  0.1814
  108OSM   H13F11139   3.882  -0.411   9.102 -0.5086 -1.2306  0.1465
  108OSM   H13G11140   3.790  -0.264   9.106 -0.3592  0.6161  0.5736
  108OSM   C14F11141   3.708  -0.424   8.981  0.5001 -0.1780 -0.2220
  108OSM   H14F11142   3.662  -0.339   8.926 -0.1231  0.4129  1.1783
  108OSM   H14G11143   3.614  -0.480   9.003  0.5300 -0.1365  0.0163
  108OSM   C15F11144   3.790  -0.520   8.896  0.5356 -0.3396 -0.1974
  108OSM   H15F11145   3.817  -0.608   8.958  1.9979  0.4797  0.3621
  108OSM   H15G11146   3.889  -0.478   8.870  1.2636 -1.4807  0.6788
  108OSM   C16F11147   3.718  -0.585   8.771  0.6363 -0.7177 -0.0733
  108OSM   H16F11148   3.787  -0.643   8.705  1.7779  1.3930 -0.7622
  108OSM   H16G11149   3.706  -0.505   8.695 -0.1688 -1.0721 -0.3200
  108OSM   C17F11150   3.587  -0.647   8.800 -0.0359 -0.3187  0.4135
  108OSM   H17F11151   3.519  -0.567   8.835 -0.6367 -1.4710  1.9413
  108OSM   H17G11152   3.601  -0.722   8.881 -3.5446 -0.4583  0.9643
  108OSM   C18F11153   3.523  -0.718   8.680  0.4258 -0.0872 -0.2753
  108OSM   H18F11154   3.586  -0.791   8.626 -0.8226 -1.0585 -0.4550
  108OSM   H18G11155   3.483  -0.636   8.617 -2.5952 -0.0499  1.5671
  108OSM   H18H11156   3.431  -0.773   8.710  0.5453 -1.1675 -1.8769
  109OSM      N11157   3.955   4.872  11.296  0.1700 -0.0178  0.0337
  109OSM    C1511158   4.069   4.776  11.294 -0.4098 -0.4385 -0.1241
  109OSM   H15A11159   4.128   4.796  11.206 -0.3943  1.3272  0.2671
  109OSM   H15B11160   4.040   4.672  11.283 -1.4591 -0.0449 -1.3065
  109OSM   H15C11161   4.131   4.787  11.381  0.5790 -1.7170 -0.6464
  109OSM    C1411162   3.837   4.810  11.369 -0.2843 -1.1585 -0.0426
  109OSM   H14A11163   3.839   4.827  11.476  0.3213 -1.9050  0.0663
  109OSM   H14B11164   3.826   4.705  11.347 -1.6717 -1.7803  3.2619
  109OSM   H14C11165   3.757   4.868  11.325  2.2064  2.8082  0.3505
  109OSM    C1311166   3.999   5.002  11.354 -0.1157  0.0698  0.2411
  109OSM   H13A11167   4.019   4.993  11.460  0.3052  0.9568  0.2384
  109OSM   H13B11168   3.922   5.077  11.352  1.9354  2.2091 -0.1180
  109OSM   H13C11169   4.088   5.033  11.302  0.5191  1.3991  2.0624
  109OSM    C1211170   3.918   4.902  11.156  0.1123 -0.1694  0.3928
  109OSM   H12A11171   3.907   4.802  11.117 -3.5183 -0.6919  2.4276
  109OSM   H12B11172   4.002   4.945  11.104  0.2575  0.7782  1.3946
  109OSM    C1111173   3.788   4.979  11.136 -0.4042  1.2195  0.4996
  109OSM   H11A11174   3.793   5.026  11.035  2.4394 -1.0442 -0.4945
  109OSM   H11B11175   3.781   5.063  11.208  2.7078  1.5214  0.5225
  109OSM      P11176   3.643   4.771  11.051 -0.3462  0.0919 -0.1112
  109OSM    O1311177   3.766   4.737  10.980 -0.2452 -0.5259 -0.0503
  109OSM    O1411178   3.584   4.663  11.127  0.1467  0.1861  0.5703
  109OSM    O1111179   3.534   4.831  10.950 -0.9387  0.1695  0.1181
  109OSM    O1211180   3.675   4.891  11.147 -0.2785 -0.0721  0.3200
  109OSM    C1S11181   3.546   4.927  10.852  0.4327  0.5987  0.0267
  109OSM    H1S11182   3.641   4.983  10.868  1.2659 -0.7680 -0.0271
  109OSM    H1T11183   3.466   5.003  10.847  0.7147  0.8777 -0.2790
  109OSM     NF11184   3.565   4.965  10.608 -0.1038  0.7713 -0.9091
  109OSM    HNF11185   3.489   5.011  10.563  0.0565 -0.9283 -2.9782
  109OSM    C2S11186   3.536   4.865  10.709 -0.6276 -0.7614  0.6087
  109OSM    H2S11187   3.613   4.786  10.695 -0.5639 -0.7107  0.6775
  109OSM    C3S11188   3.401   4.792  10.686  0.1872  0.5299 -0.0195
  109OSM    H3S11189   3.326   4.867  10.720 -1.0496 -1.3976  1.5613
  109OSM     O311190   3.374   4.690  10.786 -0.1968 -0.7438  0.4243
  109OSM    HO311191   3.435   4.712  10.857 -1.1572 -0.9667  1.3139
  109OSM    C4S11192   3.386   4.746  10.548  0.8242  0.5271  0.2357
  109OSM    H4S11193   3.306   4.785  10.483  0.4165 -1.2124 -0.3161
  109OSM    C5S11194   3.470   4.655  10.499 -0.2033  0.0751 -0.2168
  109OSM    H5S11195   3.532   4.595  10.566  1.1467 -0.9618 -2.3279
  109OSM    C6S11196   3.460   4.608  10.358  0.5197  0.5504 -0.1909
  109OSM    H6S11197   3.362   4.609  10.305  2.1026 -2.4736 -3.4240
  109OSM    H6T11198   3.480   4.499  10.357  0.2923  0.5039  0.3669
  109OSM    C7S11199   3.571   4.666  10.264  0.0595  0.3122  0.6486
  109OSM    H7S11200   3.673   4.644  10.302  0.3031  0.3809  0.0326
  109OSM    H7T11201   3.556   4.776  10.262 -1.8340  0.0454 -1.9429
  109OSM    C8S11202   3.557   4.639  10.111  0.2997  0.0066 -0.5540
  109OSM    H8S11203   3.631   4.699  10.054  0.0326  0.9239  0.0593
  109OSM    H8T11204   3.456   4.679  10.087 -0.1114 -1.4841 -1.4698
  109OSM    C9S11205   3.561   4.492  10.072  0.0291 -0.2117  0.0215
  109OSM    H9S11206   3.464   4.441  10.088 -0.7080  1.3223  0.4946
  109OSM    H9T11207   3.627   4.437  10.143 -0.6858 -0.1759  0.7134
  109OSM   C10S11208   3.611   4.467   9.932  0.1929  0.2721 -0.2985
  109OSM   H10S11209   3.650   4.363   9.930  1.9057  0.7866  2.8683
  109OSM   H10T11210   3.691   4.542   9.910 -0.5399  0.7897 -1.2226
  109OSM   C11S11211   3.508   4.490   9.814 -0.1795  0.5938  0.8390
  109OSM   H11S11212   3.456   4.587   9.827  0.0026  0.7943  0.0903
  109OSM   H11T11213   3.431   4.413   9.835  1.3916 -1.3963 -0.4137
  109OSM   C12S11214   3.565   4.482   9.670  0.3550  0.4119 -0.0604
  109OSM   H12S11215   3.472   4.464   9.612  1.2143 -2.5036 -0.6054
  109OSM   H12T11216   3.628   4.390   9.669 -1.2094 -0.6867 -1.8044
  109OSM   C13S11217   3.637   4.602   9.608 -0.1153 -0.4447  0.1565
  109OSM   H13S11218   3.723   4.635   9.670  0.9203 -1.2181 -0.8699
  109OSM   H13T11219   3.559   4.681   9.610  0.2539 -0.1004  1.4643
  109OSM   C14S11220   3.686   4.581   9.458 -0.5841  0.2250  0.1149
  109OSM   H14S11221   3.710   4.682   9.418  3.0147 -0.3923  0.5799
  109OSM   H14T11222   3.604   4.537   9.397  2.9476 -0.8341 -4.1354
  109OSM   C15S11223   3.811   4.497   9.449 -0.4006  0.1458 -0.0376
  109OSM   H15S11224   3.792   4.389   9.470  1.6240 -0.3090 -0.3429
  109OSM   H15T11225   3.889   4.526   9.522 -0.7661  0.4058  0.2457
  109OSM   C16S11226   3.879   4.499   9.312  0.4424 -0.3733 -1.3904
  109OSM   H16S11227   3.988   4.520   9.309  0.2197  1.1890  0.9258
  109OSM   H16T11228   3.857   4.591   9.254 -0.4467  0.8253  0.7724
  109OSM   C17S11229   3.852   4.377   9.220  0.5174 -0.6658 -0.2106
  109OSM   H17S11230   3.903   4.286   9.261 -2.1740 -1.0819  2.3840
  109OSM   H17T11231   3.897   4.398   9.121 -0.1554 -0.1363 -0.4041
  109OSM   C18S11232   3.699   4.344   9.201  0.4331  0.4065  0.0538
  109OSM   H18S11233   3.666   4.419   9.127  0.3922 -1.1137 -1.4852
  109OSM   H18T11234   3.643   4.369   9.294 -1.7182  1.0086 -1.3562
  109OSM   H18U11235   3.684   4.237   9.174  2.4767  0.1999 -0.3339
  109OSM    C1F11236   3.688   5.023  10.604  0.1113  0.3097 -0.3986
  109OSM     OF11237   3.789   4.984  10.660 -0.2878 -0.0157 -0.6717
  109OSM    C2F11238   3.686   5.154  10.531 -0.1000  0.5185  0.5075
  109OSM    H2F11239   3.732   5.222  10.606  0.9652 -1.8994  2.1153
  109OSM    H2G11240   3.580   5.180  10.508 -0.5056  0.6968  2.5327
  109OSM    C3F11241   3.765   5.166  10.396 -0.1224 -0.2542  0.7105
  109OSM    H3F11242   3.875   5.153  10.408 -0.0762  0.1168  0.6952
  109OSM    H3G11243   3.744   5.266  10.353  2.0056  0.3981  1.1145
  109OSM    C4F11244   3.716   5.065  10.284  0.3280 -0.6692  0.1593
  109OSM    H4F11245   3.606   5.053  10.284  0.2155  0.3501 -0.5403
  109OSM    H4G11246   3.763   4.966  10.305  2.1123  0.2421  0.5663
  109OSM    C5F11247   3.758   5.109  10.142 -0.1438 -1.0260 -1.2363
  109OSM    H5F11248   3.868   5.118  10.128 -0.1787 -2.3337 -2.4492
  109OSM    H5G11249   3.712   5.209  10.123 -2.1524 -2.0427 -1.9082
  109OSM    C6F11250   3.708   5.021  10.028  0.1242 -0.6148  0.2328
  109OSM    H6F11251   3.600   5.005  10.051  0.1499 -0.2902  0.5895
  109OSM    H6G11252   3.743   4.915  10.031  0.6002 -0.4870 -0.5035
  109OSM    C7F11253   3.731   5.080   9.893  0.2546 -0.2009  0.0270
  109OSM    H7F11254   3.842   5.074   9.892  0.3937  1.7933  0.8369
  109OSM    H7G11255   3.687   5.182   9.885  1.5668  0.4839  1.2916
  109OSM    C8F11256   3.690   4.987   9.771 -0.3153 -0.6339  0.2283
  109OSM    H8F11257   3.725   4.884   9.792  0.7074 -0.2947  0.2188
  109OSM    H8G11258   3.743   5.031   9.684  1.0841 -0.7679  0.9954
  109OSM    C9F11259   3.539   4.987   9.742  0.2547 -0.1687  0.7467
  109OSM    H9F11260   3.481   4.930   9.816  0.2144 -1.6826 -0.4154
  109OSM   C10F11261   3.474   5.044   9.634 -0.2364  0.1322 -0.0003
  109OSM   H10F11262   3.364   5.035   9.644 -0.1951  1.1033  1.5542
  109OSM   C11F11263   3.529   5.127   9.519  0.0787  0.3815  0.5010
  109OSM   H11F11264   3.630   5.158   9.553 -0.2936  0.3522  1.6562
  109OSM   H11G11265   3.464   5.215   9.503 -1.8265 -1.6165 -3.4119
  109OSM   C12F11266   3.549   5.066   9.380 -0.1229 -0.1387 -0.7187
  109OSM   H12F11267   3.617   4.978   9.387 -1.7432 -1.1545  3.9836
  109OSM   H12G11268   3.596   5.139   9.310 -0.2377 -0.1454 -0.8019
  109OSM   C13F11269   3.420   5.000   9.329 -0.7025  0.1278  0.0927
  109OSM   H13F11270   3.345   5.081   9.317 -0.5830  0.3934  1.0951
  109OSM   H13G11271   3.374   4.930   9.402 -1.2475 -0.5033 -0.8431
  109OSM   C14F11272   3.445   4.932   9.193 -0.1266  0.9715  0.6845
  109OSM   H14F11273   3.499   5.008   9.133 -0.2351 -0.0320 -0.7146
  109OSM   H14G11274   3.355   4.910   9.131 -1.1715 -0.7531  2.7530
  109OSM   C15F11275   3.537   4.802   9.193 -0.4712  0.6355 -0.1457
  109OSM   H15F11276   3.498   4.727   9.265  0.9854  1.4008  1.4646
  109OSM   H15G11277   3.641   4.823   9.224 -0.5919  0.9142  0.0715
  109OSM   C16F11278   3.539   4.734   9.055 -0.4989 -0.0319  0.2337
  109OSM   H16F11279   3.436   4.712   9.021  0.6817 -1.9348 -2.3720
  109OSM   H16G11280   3.607   4.646   9.062 -0.0690  0.2731 -0.0320
  109OSM   C17F11281   3.593   4.825   8.936  0.0352  0.0600  0.1830
  109OSM   H17F11282   3.528   4.911   8.908 -0.1234  0.4101  1.6178
  109OSM   H17G11283   3.597   4.757   8.848  0.7409  1.1233 -0.6200
  109OSM   C18F11284   3.728   4.888   8.951 -0.5490 -0.4384  0.2328
  109OSM   H18F11285   3.799   4.815   8.997  1.3525 -1.6326 -4.3012
  109OSM   H18G11286   3.732   4.975   9.019  1.4754  0.1394 -0.5872
  109OSM   H18H11287   3.774   4.938   8.864 -1.8786  0.7015  0.1691
  110OSM      N11288   4.357   3.641  10.995 -0.1121 -0.2635 -0.0867
  110OSM    C1511289   4.272   3.670  10.877 -0.0174  0.7231 -0.0152
  110OSM   H15A11290   4.205   3.753  10.897 -0.0004  1.0343 -1.1715
  110OSM   H15B11291   4.203   3.588  10.864 -0.2798  0.7945  0.8860
  110OSM   H15C11292   4.336   3.696  10.794 -1.6688  1.3572 -1.1219
  110OSM    C1411293   4.269   3.618  11.113 -0.2025  0.0792  0.5182
  110OSM   H14A11294   4.190   3.691  11.124  0.0765  0.2784  1.2636
  110OSM   H14B11295   4.334   3.623  11.199  0.3386 -0.1841  0.1291
  110OSM   H14C11296   4.215   3.524  11.116 -1.3731  0.7723  1.6040
  110OSM    C1311297   4.438   3.518  10.968 -0.6753  0.1479 -0.6340
  110OSM   H13A11298   4.501   3.505  11.055  0.0868 -0.7805 -1.3102
  110OSM   H13B11299   4.501   3.523  10.880  0.0022  0.9552 -0.1085
  110OSM   H13C11300   4.373   3.431  10.966 -0.3443 -0.0955 -0.8271
  110OSM    C1211301   4.441   3.766  11.029  0.8213  0.3068  0.1263
  110OSM   H12A11302   4.373   3.844  11.060 -0.7439 -0.2043 -1.9148
  110OSM   H12B11303   4.484   3.797  10.935 -1.7576  1.7570 -0.6094
  110OSM    C1111304   4.554   3.749  11.143 -0.2583  0.2178  0.0085
  110OSM   H11A11305   4.499   3.710  11.232 -0.6261 -1.1411 -0.8106
  110OSM   H11B11306   4.584   3.854  11.165  0.7545 -0.3162  1.3112
  110OSM      P11307   4.793   3.716  11.048  0.3650 -0.5681 -0.4105
  110OSM    O1311308   4.756   3.815  10.944 -0.3511  0.4723 -0.2206
  110OSM    O1411309   4.874   3.774  11.155  0.1174  0.0195 -0.0325
  110OSM    O1111310   4.860   3.587  10.994 -0.5633  0.4281  0.7128
  110OSM    O1211311   4.664   3.665  11.105 -0.4097  0.0354  0.3770
  110OSM    C1S11312   4.832   3.505  10.882  0.0230  0.4598 -0.0022
  110OSM    H1S11313   4.726   3.470  10.875  0.8387 -1.9299 -1.0164
  110OSM    H1T11314   4.888   3.410  10.894  1.4298  1.3047  0.1541
  110OSM     NF11315   4.793   3.486  10.638 -0.1353 -0.1130 -0.3784
  110OSM    HNF11316   4.851   3.430  10.580 -1.1850 -4.1418  2.2791
  110OSM    C2S11317   4.862   3.560  10.748  0.1213 -0.1742  0.2809
  110OSM    H2S11318   4.820   3.662  10.759  0.5498  0.0628 -0.2761
  110OSM    C3S11319   5.018   3.559  10.734 -0.2735  0.6491 -0.1363
  110OSM    H3S11320   5.051   3.455  10.755 -1.8080  0.3341  0.8447
  110OSM     O311321   5.080   3.628  10.842  0.2280 -0.1474  0.1530
  110OSM    HO311322   5.003   3.634  10.898 -1.4678  1.5148 -2.2478
  110OSM    C4S11323   5.068   3.605  10.598  0.2359  0.0288  0.0097
  110OSM    H4S11324   5.088   3.523  10.528  1.1430  0.4140 -0.1849
  110OSM    C5S11325   5.079   3.737  10.558  0.3309 -0.8052  0.0591
  110OSM    H5S11326   5.037   3.815  10.622  0.1188 -1.4912  0.7594
  110OSM    C6S11327   5.112   3.779  10.417  0.4796  0.2400  1.1981
  110OSM    H6S11328   5.206   3.839  10.422 -1.4777  3.6853 -1.6431
  110OSM    H6T11329   5.027   3.846  10.392 -1.1075 -2.5761 -1.1883
  110OSM    C7S11330   5.118   3.676  10.302  0.0090 -0.0220 -0.0601
  110OSM    H7S11331   5.028   3.610  10.301  0.1260 -0.1755 -1.0929
  110OSM    H7T11332   5.208   3.614  10.321 -0.0007  0.1565  0.6070
  110OSM    C8S11333   5.122   3.740  10.159  0.0527 -0.1699 -0.1350
  110OSM    H8S11334   5.193   3.825  10.153  0.5703 -0.7531 -3.0178
  110OSM    H8T11335   5.025   3.785  10.131 -0.3758 -1.0472 -0.0746
  110OSM    C9S11336   5.167   3.658  10.044  0.2580 -0.3856 -0.3540
  110OSM    H9S11337   5.088   3.581  10.024 -1.8564  1.6744 -0.1114
  110OSM    H9T11338   5.265   3.611  10.066 -0.9711 -2.6502  0.5658
  110OSM   C10S11339   5.188   3.739   9.916 -0.7398 -0.7428  0.2477
  110OSM   H10S11340   5.268   3.813   9.934 -2.0247  0.3641  1.5031
  110OSM   H10T11341   5.095   3.795   9.894  0.6377  0.9373 -1.4519
  110OSM   C11S11342   5.219   3.656   9.796  0.0548  0.0675 -0.0781
  110OSM   H11S11343   5.125   3.609   9.760 -0.3001  0.6217  0.1120
  110OSM   H11T11344   5.287   3.569   9.808 -0.3965 -0.2374  0.3064
  110OSM   C12S11345   5.276   3.744   9.686  0.6537  0.0653 -0.0991
  110OSM   H12S11346   5.374   3.792   9.705  1.8688 -2.8813  1.1694
  110OSM   H12T11347   5.205   3.829   9.677  0.7896  0.3257  1.2726
  110OSM   C13S11348   5.280   3.677   9.543 -0.7346 -1.0329 -1.3469
  110OSM   H13S11349   5.176   3.648   9.519 -1.3477  1.8572 -2.3489
  110OSM   H13T11350   5.328   3.577   9.551  1.6750 -0.0522 -2.6294
  110OSM   C14S11351   5.350   3.761   9.435 -0.3154  0.4718  0.0724
  110OSM   H14S11352   5.454   3.775   9.472  0.6975 -1.0716 -2.1148
  110OSM   H14T11353   5.297   3.858   9.425 -1.6979 -0.4014 -1.2765
  110OSM   C15S11354   5.358   3.692   9.303  1.2109 -0.7352  0.4681
  110OSM   H15S11355   5.391   3.589   9.327 -1.6602 -0.9985  3.6364
  110OSM   H15T11356   5.435   3.746   9.243  1.1834  0.2531  1.3001
  110OSM   C16S11357   5.234   3.679   9.214 -0.0010 -0.3421 -0.0808
  110OSM   H16S11358   5.223   3.770   9.151  2.7493  0.4250  0.4803
  110OSM   H16T11359   5.145   3.663   9.277 -0.0969  0.3142 -0.0419
  110OSM   C17S11360   5.244   3.561   9.121 -0.3056 -0.1162  0.4108
  110OSM   H17S11361   5.143   3.547   9.076  0.3783 -3.4181 -0.1895
  110OSM   H17T11362   5.262   3.469   9.180 -0.5054 -0.7767 -0.5693
  110OSM   C18S11363   5.352   3.576   9.015 -0.7790 -0.1891 -0.7666
  110OSM   H18S11364   5.351   3.489   8.945 -1.4380 -1.7118  1.0904
  110OSM   H18T11365   5.455   3.592   9.053 -1.1810  0.8574 -0.1157
  110OSM   H18U11366   5.330   3.674   8.969  1.4025  0.9498  0.5730
  110OSM    C1F11367   4.657   3.493  10.636 -0.3857 -0.3487  0.8016
  110OSM     OF11368   4.602   3.590  10.685  0.5443  0.7988  0.5494
  110OSM    C2F11369   4.583   3.391  10.560  0.1133 -0.1817 -0.8044
  110OSM    H2F11370   4.611   3.292  10.603 -0.7148 -0.6365 -1.2968
  110OSM    H2G11371   4.618   3.386  10.455  1.2781  2.0973 -0.5632
  110OSM    C3F11372   4.428   3.403  10.583 -0.7838 -0.1530  0.1681
  110OSM    H3F11373   4.391   3.505  10.558  0.3922  0.2583  0.0858
  110OSM    H3G11374   4.423   3.382  10.692 -0.8248 -1.3354 -0.0525
  110OSM    C4F11375   4.342   3.293  10.504 -0.7012  0.8533 -0.0527
  110OSM    H4F11376   4.393   3.195  10.509 -0.9574  0.6821 -0.7956
  110OSM    H4G11377   4.349   3.322  10.397  1.0505 -0.9977 -0.4568
  110OSM    C5F11378   4.194   3.282  10.543 -0.2451 -0.4311 -0.4803
  110OSM    H5F11379   4.158   3.386  10.556 -2.3090 -1.1148 -0.5535
  110OSM    H5G11380   4.180   3.243  10.646 -1.9758 -0.3547 -0.6595
  110OSM    C6F11381   4.096   3.218  10.438 -0.1134  0.0972 -0.3223
  110OSM    H6F11382   4.155   3.129  10.410 -0.2637 -0.0084 -0.3051
  110OSM    H6G11383   4.086   3.283  10.348  0.2247 -1.4165 -1.4637
  110OSM    C7F11384   3.963   3.191  10.500  0.2898  0.0167 -0.7084
  110OSM    H7F11385   3.928   3.277  10.561  2.3845  0.6552 -0.3693
  110OSM    H7G11386   3.987   3.104  10.566 -1.5139 -0.5825 -0.8143
  110OSM    C8F11387   3.858   3.159  10.392 -0.0311  0.2425 -0.1979
  110OSM    H8F11388   3.834   3.245  10.327 -0.9292 -1.3823 -2.0865
  110OSM    H8G11389   3.760   3.126  10.431  0.7003 -1.2839  0.4146
  110OSM    C9F11390   3.915   3.047  10.308  0.2737  0.0719 -0.1745
  110OSM    H9F11391   3.898   2.946  10.348 -0.6078  0.1475 -0.3346
  110OSM   C10F11392   3.970   3.059  10.185  0.0154 -0.1650  0.5046
  110OSM   H10F11393   4.025   2.981  10.131 -0.2077  1.4712 -2.1855
  110OSM   C11F11394   3.987   3.194  10.115  0.6663  0.2147  0.2988
  110OSM   H11F11395   4.096   3.192  10.091  0.2117 -4.5484 -1.8724
  110OSM   H11G11396   3.957   3.288  10.166 -0.6037  0.1445 -0.2959
  110OSM   C12F11397   3.909   3.186   9.981  0.1742  0.0503 -0.1099
  110OSM   H12F11398   3.926   3.284   9.931 -3.7896  1.5999  1.4043
  110OSM   H12G11399   3.798   3.192   9.990  0.1675 -0.1952 -0.0370
  110OSM   C13F11400   3.951   3.076   9.887 -0.3695 -0.0246 -0.3546
  110OSM   H13F11401   3.894   2.987   9.921 -1.1779 -0.8767 -3.7482
  110OSM   H13G11402   4.059   3.060   9.907 -0.4349  2.4962  2.4384
  110OSM   C14F11403   3.926   3.103   9.737 -0.0987  0.7779  0.5246
  110OSM   H14F11404   3.930   3.214   9.726 -2.7520  1.1035  2.5072
  110OSM   H14G11405   3.825   3.069   9.707  0.8066 -0.6513 -1.0447
  110OSM   C15F11406   4.038   3.049   9.641 -0.2808  0.3493  0.0316
  110OSM   H15F11407   4.025   2.939   9.649 -3.9105  0.6619 -0.3940
  110OSM   H15G11408   4.141   3.073   9.674  0.1897 -1.7869  0.1827
  110OSM   C16F11409   4.019   3.076   9.491  0.6271 -0.5346 -1.3271
  110OSM   H16F11410   4.019   3.186   9.475  1.6954 -0.0994  1.3461
  110OSM   H16G11411   3.924   3.039   9.446  1.5237 -2.1701 -1.8874
  110OSM   C17F11412   4.143   3.032   9.414  0.0690  0.1173 -0.6850
  110OSM   H17F11413   4.229   3.086   9.459 -0.0661 -0.2920  0.0715
  110OSM   H17G11414   4.125   3.068   9.310  0.9068  1.1153 -0.4980
  110OSM   C18F11415   4.157   2.877   9.410  0.0764 -0.3662 -0.2387
  110OSM   H18F11416   4.214   2.841   9.322  1.6731  0.5594  0.3966
  110OSM   H18G11417   4.056   2.833   9.404  0.5475 -1.3955 -0.6494
  110OSM   H18H11418   4.195   2.840   9.507 -3.0735 -1.6399  0.5486
  111OSM      N11419   5.281   0.750  10.723 -0.2052  0.1418 -0.2021
  111OSM    C1511420   5.280   0.605  10.702  0.4905 -0.5548  0.1084
  111OSM   H15A11421   5.218   0.563  10.624  2.3677 -1.9079 -0.6937
  111OSM   H15B11422   5.241   0.556  10.790 -3.3705  1.0169 -0.6371
  111OSM   H15C11423   5.376   0.561  10.677  1.0522  1.5536 -1.5152
  111OSM    C1411424   5.147   0.788  10.772 -0.0135  0.5695 -0.4867
  111OSM   H14A11425   5.116   0.730  10.857  1.1856  0.0652 -0.3768
  111OSM   H14B11426   5.073   0.776  10.694 -0.1457 -1.1304 -0.1236
  111OSM   H14C11427   5.151   0.893  10.794  1.1545 -0.0187  2.3612
  111OSM    C1311428   5.384   0.792  10.821  0.1625  0.0458  0.0686
  111OSM   H13A11429   5.344   0.782  10.921  2.4030  0.6290  1.0499
  111OSM   H13B11430   5.390   0.897  10.796 -0.2729 -0.2462 -1.3227
  111OSM   H13C11431   5.478   0.747  10.792 -0.4571 -1.4431  0.3520
  111OSM    C1211432   5.303   0.813  10.589  0.7209  0.3119  1.1517
  111OSM   H12A11433   5.241   0.761  10.517 -0.0722 -1.0924  2.8199
  111OSM   H12B11434   5.406   0.791  10.566  0.2653 -1.2381  0.5560
  111OSM    C1111435   5.289   0.969  10.577  0.1059 -0.2935 -0.4055
  111OSM   H11A11436   5.185   0.998  10.606  0.6417  1.1890  0.1016
  111OSM   H11B11437   5.302   0.988  10.468  0.3580  1.2537 -0.1219
  111OSM      P11438   5.530   1.042  10.601  0.3225 -0.0914  0.0270
  111OSM    O1311439   5.620   1.099  10.707  0.3287 -0.4435  0.0981
  111OSM    O1411440   5.562   0.913  10.549 -0.8644  0.2652  0.2564
  111OSM    O1111441   5.518   1.142  10.483 -0.4324 -0.1291 -0.2046
  111OSM    O1211442   5.381   1.041  10.658  0.3480  0.1590  0.3624
  111OSM    C1S11443   5.454   1.264  10.503  0.2332  0.9707  0.0074
  111OSM    H1S11444   5.517   1.321  10.575  1.6225  0.0326 -0.4597
  111OSM    H1T11445   5.354   1.253  10.551  0.2312  2.6690  0.4446
  111OSM     NF11446   5.394   1.475  10.403  0.0569 -0.9897 -0.1441
  111OSM    HNF11447   5.296   1.493  10.401 -0.6001 -4.2662 -2.4262
  111OSM    C2S11448   5.433   1.346  10.367 -0.4484  0.6558 -0.9239
  111OSM    H2S11449   5.519   1.354  10.298 -1.6922 -0.4444 -2.6541
  111OSM    C3S11450   5.329   1.252  10.284  0.2299 -0.9729 -0.0272
  111OSM    H3S11451   5.231   1.249  10.338  0.5035 -1.3110  0.4598
  111OSM     O311452   5.377   1.119  10.252  0.2654  0.0526  0.4178
  111OSM    HO311453   5.443   1.105  10.320 -1.5671  1.3542  2.5294
  111OSM    C4S11454   5.294   1.323  10.155  0.3064  0.2399  0.2333
  111OSM    H4S11455   5.211   1.394  10.169 -0.1082  0.2272 -2.0376
  111OSM    C5S11456   5.373   1.328  10.042  0.4329 -0.0142  0.7814
  111OSM    H5S11457   5.464   1.266  10.043 -1.1965 -2.5424 -1.0067
  111OSM    C6S11458   5.347   1.397   9.909  0.4944 -0.2674  0.0436
  111OSM    H6S11459   5.436   1.450   9.867  0.6525 -0.4887  0.1000
  111OSM    H6T11460   5.258   1.463   9.901  0.4629 -0.4884 -1.7503
  111OSM    C7S11461   5.318   1.278   9.816 -0.4577 -0.1441  0.6220
  111OSM    H7S11462   5.246   1.200   9.851  0.4364 -1.0479  0.4741
  111OSM    H7T11463   5.409   1.214   9.812 -1.2957 -1.2559 -1.1563
  111OSM    C8S11464   5.289   1.318   9.666 -0.5640 -0.2241  0.6114
  111OSM    H8S11465   5.369   1.386   9.630 -0.5984 -0.6754 -0.3410
  111OSM    H8T11466   5.197   1.379   9.658 -0.9984 -0.8414  0.8471
  111OSM    C9S11467   5.264   1.198   9.576  0.0405 -0.1985 -0.0113
  111OSM    H9S11468   5.182   1.136   9.619  0.4108  1.4386  3.2480
  111OSM    H9T11469   5.349   1.128   9.570  0.2409 -0.1718  2.0044
  111OSM   C10S11470   5.208   1.225   9.431  0.0381  0.3481 -0.2399
  111OSM   H10S11471   5.300   1.249   9.373  1.1675 -1.8875  0.5787
  111OSM   H10T11472   5.136   1.309   9.445  1.4338  1.2810  1.5382
  111OSM   C11S11473   5.136   1.103   9.363 -0.0782 -0.6195  0.0074
  111OSM   H11S11474   5.036   1.085   9.407  0.2689 -0.2326  0.9821
  111OSM   H11T11475   5.204   1.015   9.369 -1.1165 -1.5261 -1.2232
  111OSM   C12S11476   5.125   1.115   9.207 -0.0788 -0.6087 -0.1897
  111OSM   H12S11477   5.223   1.102   9.156 -0.6762 -2.4190 -0.9336
  111OSM   H12T11478   5.086   1.218   9.197  1.5043  0.1389  1.0798
  111OSM   C13S11479   5.025   1.014   9.148  0.1239 -0.8468 -0.1774
  111OSM   H13S11480   4.920   1.028   9.182 -0.3597 -1.8161 -1.2373
  111OSM   H13T11481   5.050   0.910   9.179 -0.9417 -0.4463  2.1315
  111OSM   C14S11482   5.035   1.006   8.992 -0.3504 -0.1767 -0.5617
  111OSM   H14S11483   5.123   0.944   8.965 -1.9750 -2.5819 -0.4653
  111OSM   H14T11484   5.062   1.110   8.963  0.3708 -0.0849  0.3997
  111OSM   C15S11485   4.907   0.945   8.939 -0.2401 -0.0510 -0.0927
  111OSM   H15S11486   4.828   1.021   8.957 -1.3658 -0.5634 -2.6962
  111OSM   H15T11487   4.876   0.847   8.981 -0.4841  0.4279  0.8781
  111OSM   C16S11488   4.918   0.943   8.786  0.2849  0.3034  0.0713
  111OSM   H16S11489   5.004   0.882   8.751  1.1336  1.3613  0.2796
  111OSM   H16T11490   4.946   1.045   8.752  0.6088 -0.1933 -1.1797
  111OSM   C17S11491   4.785   0.904   8.725  0.3949 -0.6897 -0.6520
  111OSM   H17S11492   4.790   0.938   8.620 -0.5589  0.7838 -0.2425
  111OSM   H17T11493   4.704   0.969   8.767  0.7122  0.4649 -1.7926
  111OSM   C18S11494   4.752   0.751   8.726 -0.3078  0.6324  0.4049
  111OSM   H18S11495   4.817   0.708   8.647 -0.1106  1.0079  0.3568
  111OSM   H18T11496   4.644   0.728   8.709  0.0940 -0.2312 -1.0729
  111OSM   H18U11497   4.784   0.713   8.825 -1.6894  1.7585  1.3211
  111OSM    C1F11498   5.477   1.562  10.459 -0.0018  0.4607  0.5746
  111OSM     OF11499   5.586   1.521  10.495  0.3520  0.3613  0.6333
  111OSM    C2F11500   5.418   1.700  10.479 -0.6550  0.1042  0.0058
  111OSM    H2F11501   5.408   1.720  10.588  1.9788  2.0051 -0.0525
  111OSM    H2G11502   5.312   1.692  10.448 -0.3850  1.5025 -1.2760
  111OSM    C3F11503   5.491   1.812  10.402  0.1581 -0.1124  0.1766
  111OSM    H3F11504   5.599   1.812  10.425  0.1380 -1.5709  0.3392
  111OSM    H3G11505   5.445   1.910  10.428  1.8020  0.5146  0.7598
  111OSM    C4F11506   5.474   1.789  10.245 -0.8947  0.0329 -0.0994
  111OSM    H4F11507   5.503   1.684  10.221 -0.8750 -0.8488  3.5298
  111OSM    H4G11508   5.541   1.851  10.182 -0.3437 -2.4355 -2.0003
  111OSM    C5F11509   5.333   1.813  10.194 -0.2445  0.1974 -0.6979
  111OSM    H5F11510   5.312   1.922  10.205 -0.7254  0.0763 -0.4150
  111OSM    H5G11511   5.270   1.753  10.263  2.2987 -0.5048  1.1011
  111OSM    C6F11512   5.313   1.761  10.044 -0.0189 -0.3711 -0.2441
  111OSM    H6F11513   5.203   1.745  10.042 -0.5825  3.0601 -0.2440
  111OSM    H6G11514   5.362   1.662  10.036  0.4508 -0.2421  0.8278
  111OSM    C7F11515   5.357   1.857   9.938  0.1055  0.2465 -0.3685
  111OSM    H7F11516   5.459   1.897   9.955  0.0171  0.8750 -1.2776
  111OSM    H7G11517   5.288   1.944   9.946  1.6433  1.1408  6.0681
  111OSM    C8F11518   5.338   1.797   9.797  0.1937  0.3189  0.4085
  111OSM    H8F11519   5.235   1.756   9.789  0.3661  0.4054 -2.4888
  111OSM    H8G11520   5.403   1.712   9.769 -2.1324 -1.2721 -0.2970
  111OSM    C9F11521   5.353   1.910   9.692 -0.1935 -0.7640 -1.0536
  111OSM    H9F11522   5.341   2.013   9.727  0.1482 -1.0211 -0.1692
  111OSM   C10F11523   5.362   1.890   9.560 -0.4933 -0.2753  0.5180
  111OSM   H10F11524   5.373   1.974   9.490 -0.2486 -0.0654  0.8074
  111OSM   C11F11525   5.360   1.753   9.495 -0.4460  0.3610  0.0278
  111OSM   H11F11526   5.355   1.674   9.573  0.6938  0.4199  0.1656
  111OSM   H11G11527   5.455   1.733   9.440 -0.9923 -0.7252 -0.5343
  111OSM   C12F11528   5.241   1.747   9.393  0.7759  0.1901  0.5503
  111OSM   H12F11529   5.160   1.817   9.424 -1.8208 -2.5918  0.2604
  111OSM   H12G11530   5.205   1.642   9.385  1.7619 -0.1791  0.8457
  111OSM   C13F11531   5.284   1.781   9.248  0.8750  0.2329 -0.0137
  111OSM   H13F11532   5.329   1.688   9.207  0.4750  0.2680 -0.5394
  111OSM   H13G11533   5.347   1.872   9.249 -0.5736  1.2614 -0.1325
  111OSM   C14F11534   5.162   1.809   9.153  0.1910 -0.1364  0.0647
  111OSM   H14F11535   5.104   1.896   9.189 -0.4487  0.1182 -1.5316
  111OSM   H14G11536   5.093   1.722   9.155 -0.7889  0.6204 -0.4316
  111OSM   C15F11537   5.210   1.840   8.996  0.0101  0.3755 -0.1901
  111OSM   H15F11538   5.257   1.747   8.958  0.1625  1.4697 -2.8041
  111OSM   H15G11539   5.286   1.921   8.999  1.2892 -0.7953 -0.3870
  111OSM   C16F11540   5.092   1.881   8.902 -0.9816 -0.6611  0.3765
  111OSM   H16F11541   5.056   1.983   8.929 -0.2889  0.2775 -2.1013
  111OSM   H16G11542   5.014   1.805   8.921 -1.3292 -0.5998 -0.7682
  111OSM   C17F11543   5.141   1.884   8.757  0.0329  0.1898  1.2799
  111OSM   H17F11544   5.171   1.778   8.745 -0.6850 -0.1064  2.0656
  111OSM   H17G11545   5.226   1.955   8.747 -0.5610  0.7688  0.2828
  111OSM   C18F11546   5.031   1.924   8.662 -0.5059  0.0507 -0.2357
  111OSM   H18F11547   5.064   1.940   8.557 -1.4404  0.9991 -0.3930
  111OSM   H18G11548   4.985   2.021   8.688  0.8754  1.6202 -3.3817
  111OSM   H18H11549   4.941   1.859   8.668 -1.0043  0.6622 -1.1036
  112OSM      N11550   4.608   6.763  10.881  0.0777 -0.0365  0.7062
  112OSM    C1511551   4.741   6.737  10.826  0.0412  0.4014  0.4113
  112OSM   H15A11552   4.815   6.800  10.872  1.1179 -0.8497  0.4255
  112OSM   H15B11553   4.745   6.759  10.720  0.6170 -1.9802 -0.0888
  112OSM   H15C11554   4.767   6.633  10.837  0.9012  0.4045 -1.3880
  112OSM    C1411555   4.610   6.711  11.023 -0.4205  0.2694  0.5572
  112OSM   H14A11556   4.626   6.605  11.030 -1.2325  0.0281 -1.1111
  112OSM   H14B11557   4.514   6.735  11.067 -0.7992  1.3664 -0.8243
  112OSM   H14C11558   4.686   6.769  11.073  0.7662  1.1684 -2.2108
  112OSM    C1311559   4.586   6.916  10.887 -0.1437 -0.2245 -0.2139
  112OSM   H13A11560   4.619   6.971  10.800  0.0717  1.4420  0.9166
  112OSM   H13B11561   4.629   6.959  10.976 -1.6867  2.4024 -0.6943
  112OSM   H13C11562   4.480   6.929  10.898  0.0262  0.3495  0.8101
  112OSM    C1211563   4.488   6.717  10.797  0.9762 -0.9167  0.3510
  112OSM   H12A11564   4.517   6.626  10.748 -0.4316 -1.1852  0.0029
  112OSM   H12B11565   4.483   6.792  10.719 -3.3293 -0.0284  1.3493
  112OSM    C1111566   4.346   6.693  10.858  0.2478  0.1441 -0.1506
  112OSM   H11A11567   4.271   6.668  10.780 -0.4637  0.0427  0.5503
  112OSM   H11B11568   4.317   6.792  10.899  1.3791  1.7365 -3.0786
  112OSM      P11569   4.357   6.436  10.896  0.9344  0.2863  0.5628
  112OSM    O1311570   4.454   6.370  10.982  0.4635 -0.0288  0.1442
  112OSM    O1411571   4.227   6.368  10.892 -0.3470 -0.2775 -0.2151
  112OSM    O1111572   4.418   6.444  10.747 -0.0025 -0.6690  0.7015
  112OSM    O1211573   4.343   6.589  10.953  0.5327  0.0528 -0.1867
  112OSM    C1S11574   4.370   6.363  10.641 -0.5894  0.2015 -0.1647
  112OSM    H1S11575   4.283   6.408  10.589 -1.5514 -3.5750 -1.9833
  112OSM    H1T11576   4.325   6.267  10.672  1.7314 -0.9974 -0.3997
  112OSM     NF11577   4.419   6.252  10.432 -0.7992 -0.3088  0.4279
  112OSM    HNF11578   4.424   6.155  10.409 -3.0390 -0.1412 -0.9231
  112OSM    C2S11579   4.481   6.318  10.544  0.4161 -0.4324  0.2829
  112OSM    H2S11580   4.535   6.409  10.509  1.8650 -0.3083  2.7754
  112OSM    C3S11581   4.588   6.229  10.619  1.3148  0.4217 -0.2741
  112OSM    H3S11582   4.533   6.141  10.658 -0.4183  2.0032  0.9156
  112OSM     O311583   4.648   6.291  10.732 -0.3165 -0.5120 -0.2337
  112OSM    HO311584   4.584   6.361  10.746 -1.0197 -1.1950 -0.0082
  112OSM    C4S11585   4.692   6.181  10.519 -0.5461 -0.3417 -0.1304
  112OSM    H4S11586   4.664   6.084  10.477 -2.2287 -0.4650  1.2349
  112OSM    C5S11587   4.795   6.247  10.468 -0.2228 -0.1435 -0.3912
  112OSM    H5S11588   4.798   6.354  10.493 -1.3525  0.1217 -1.3162
  112OSM    C6S11589   4.902   6.210  10.366  0.1817  0.2811 -0.1017
  112OSM    H6S11590   4.983   6.160  10.423 -0.3450  2.5302  2.7347
  112OSM    H6T11591   4.946   6.302  10.323 -0.3661  1.1916  1.2624
  112OSM    C7S11592   4.852   6.122  10.251 -0.6072  0.4360 -0.2245
  112OSM    H7S11593   4.814   6.026  10.294  0.6269  1.2033  2.6954
  112OSM    H7T11594   4.944   6.096  10.193  0.0203  1.3214  0.3669
  112OSM    C8S11595   4.753   6.192  10.161  0.1374 -0.6216  0.5418
  112OSM    H8S11596   4.818   6.270  10.114 -1.3293 -0.0551 -0.5747
  112OSM    H8T11597   4.669   6.233  10.221  1.9558  1.8725  1.5073
  112OSM    C9S11598   4.688   6.106  10.055 -0.4085  0.1146 -0.6393
  112OSM    H9S11599   4.617   6.173  10.002 -0.9140 -0.6145 -0.8851
  112OSM    H9T11600   4.640   6.017  10.101  0.3245 -0.0631 -0.2085
  112OSM   C10S11601   4.788   6.067   9.947 -0.2401 -0.6966  0.1053
  112OSM   H10S11602   4.882   6.019   9.983  0.5206 -0.9876 -2.2157
  112OSM   H10T11603   4.826   6.162   9.905 -0.7876  0.1264  1.4333
  112OSM   C11S11604   4.722   5.976   9.850  0.3063  1.0107  0.3141
  112OSM   H11S11605   4.623   6.011   9.815  0.1583 -1.9482 -2.4009
  112OSM   H11T11606   4.710   5.879   9.902 -0.0645  2.0320  2.1954
  112OSM   C12S11607   4.813   5.969   9.728 -0.2845 -0.8093  0.2854
  112OSM   H12S11608   4.912   5.928   9.757 -0.4373 -0.9973  0.5362
  112OSM   H12T11609   4.830   6.071   9.686  0.4185 -0.5856  1.1087
  112OSM   C13S11610   4.751   5.881   9.616 -0.1517 -0.0190 -0.3110
  112OSM   H13S11611   4.663   5.938   9.578  0.8117  1.7819  0.1371
  112OSM   H13T11612   4.707   5.796   9.672 -0.2541 -0.4121 -0.9745
  112OSM   C14S11613   4.844   5.836   9.511 -0.3407  0.0615  0.4390
  112OSM   H14S11614   4.800   5.745   9.464 -1.4325  0.2052  1.1552
  112OSM   H14T11615   4.944   5.816   9.554  0.7566  2.9053 -0.7011
  112OSM   C15S11616   4.866   5.943   9.397  0.7075 -0.3302  0.0655
  112OSM   H15S11617   4.911   6.039   9.430 -1.4007  1.2987 -1.6305
  112OSM   H15T11618   4.770   5.953   9.342  1.0651  0.5999 -0.3981
  112OSM   C16S11619   4.974   5.885   9.296  0.1477  0.3405 -0.4823
  112OSM   H16S11620   5.074   5.889   9.345 -0.8180  0.3050  1.5590
  112OSM   H16T11621   4.980   5.953   9.208 -2.4750  1.0230 -0.1516
  112OSM   C17S11622   4.943   5.743   9.242  0.1678  0.4110 -0.2538
  112OSM   H17S11623   4.836   5.735   9.215 -0.4510  2.4436  1.3863
  112OSM   H17T11624   4.967   5.681   9.331  0.5916  0.2964 -0.4475
  112OSM   C18S11625   5.031   5.697   9.125  0.0444  0.4714 -0.6108
  112OSM   H18S11626   5.004   5.753   9.033 -0.6420 -0.5584 -1.0399
  112OSM   H18T11627   5.022   5.589   9.102 -1.1625  0.8195 -1.8508
  112OSM   H18U11628   5.133   5.738   9.140  0.1170  0.2965 -0.6185
  112OSM    C1F11629   4.349   6.329  10.347  0.0560  0.4661 -0.4115
  112OSM     OF11630   4.352   6.453  10.352  0.1237 -0.1973  0.1742
  112OSM    C2F11631   4.268   6.262  10.244  0.5129 -0.2539 -0.3668
  112OSM    H2F11632   4.169   6.247  10.291 -0.2767 -2.0767 -2.5393
  112OSM    H2G11633   4.317   6.165  10.224 -0.5739 -0.5859 -1.4528
  112OSM    C3F11634   4.258   6.350  10.119  0.0033  0.6672  0.2533
  112OSM    H3F11635   4.358   6.377  10.079 -0.4810 -0.0613 -1.4865
  112OSM    H3G11636   4.216   6.449  10.150 -0.9179  0.1040  0.8400
  112OSM    C4F11637   4.168   6.286  10.009 -0.2607 -0.0236 -0.0146
  112OSM    H4F11638   4.134   6.354   9.928  0.7530  0.4677 -0.0255
  112OSM    H4G11639   4.076   6.243  10.056 -0.2215  1.7082  1.7090
  112OSM    C5F11640   4.235   6.159   9.945 -0.5289  0.0253  0.4734
  112OSM    H5F11641   4.154   6.107   9.890 -0.5830 -0.0932  0.6644
  112OSM    H5G11642   4.263   6.095  10.031  2.5113  0.6464 -0.0012
  112OSM    C6F11643   4.356   6.191   9.846 -0.2761 -0.1129 -0.0518
  112OSM    H6F11644   4.433   6.114   9.867 -0.0549  0.6077  1.9050
  112OSM    H6G11645   4.414   6.286   9.854 -0.2684 -0.1170 -0.0645
  112OSM    C7F11646   4.322   6.177   9.697 -0.1403 -0.3784 -0.2893
  112OSM    H7F11647   4.261   6.087   9.677  0.3231 -0.6195 -0.6196
  112OSM    H7G11648   4.418   6.156   9.645 -1.7202 -1.5011 -2.8704
  112OSM    C8F11649   4.237   6.297   9.642  0.0605 -0.9014 -0.1184
  112OSM    H8F11650   4.155   6.333   9.708  1.0020  0.1663  0.4904
  112OSM    H8G11651   4.179   6.255   9.557  0.5486 -0.8387 -0.4866
  112OSM    C9F11652   4.324   6.407   9.587 -0.2531  0.0978 -0.2490
  112OSM    H9F11653   4.337   6.496   9.649  0.2402  1.3169 -2.0521
  112OSM   C10F11654   4.400   6.392   9.479 -0.4524  0.7731  0.1599
  112OSM   H10F11655   4.464   6.476   9.447  1.8146 -0.6904  0.7808
  112OSM   C11F11656   4.404   6.278   9.384 -0.4542  0.7009  0.0714
  112OSM   H11F11657   4.349   6.189   9.422  1.7696 -0.6343  0.3071
  112OSM   H11G11658   4.506   6.233   9.380 -0.2989  1.2181 -2.6543
  112OSM   C12F11659   4.357   6.297   9.238  0.0661  0.7605 -0.9006
  112OSM   H12F11660   4.247   6.293   9.252  0.2101  2.5163  0.9088
  112OSM   H12G11661   4.385   6.212   9.171 -0.9479 -0.3736  0.0902
  112OSM   C13F11662   4.385   6.429   9.174 -0.5615 -0.3192  0.5708
  112OSM   H13F11663   4.495   6.447   9.168 -0.6256 -0.6517 -2.5179
  112OSM   H13G11664   4.336   6.504   9.240 -0.0374 -1.7464  2.6254
  112OSM   C14F11665   4.314   6.437   9.035 -0.5110 -0.9041  0.3007
  112OSM   H14F11666   4.206   6.418   9.052 -0.7091  1.2208  1.5544
  112OSM   H14G11667   4.368   6.356   8.982  1.3209 -0.2352  1.1007
  112OSM   C15F11668   4.342   6.581   8.981 -0.4460  0.0679  0.3209
  112OSM   H15F11669   4.449   6.594   8.954  0.5916 -1.2625  3.5783
  112OSM   H15G11670   4.310   6.660   9.052  2.0848 -0.5786  2.2648
  112OSM   C16F11671   4.260   6.614   8.855 -0.4675  0.9866 -0.2732
  112OSM   H16F11672   4.162   6.566   8.876  0.3001 -1.1865 -1.5318
  112OSM   H16G11673   4.305   6.562   8.767 -2.0786  0.2592 -0.6740
  112OSM   C17F11674   4.258   6.769   8.833  0.4442  0.0095 -0.1670
  112OSM   H17F11675   4.220   6.818   8.926  3.6413  0.6672  0.8555
  112OSM   H17G11676   4.182   6.788   8.755  0.5716  0.8523 -0.0966
  112OSM   C18F11677   4.391   6.835   8.799 -0.8843 -0.2066 -0.0561
  112OSM   H18F11678   4.467   6.826   8.880  1.0602 -0.4284 -1.8560
  112OSM   H18G11679   4.378   6.945   8.792  1.7088  0.1258 -0.1128
  112OSM   H18H11680   4.444   6.785   8.715 -0.1133 -0.9222  0.8499
  113OSM      N11681   5.155   5.762  11.115  0.1574  0.3315 -0.2457
  113OSM    C1511682   5.243   5.847  11.201 -0.8309  0.3539 -0.6200
  113OSM   H15A11683   5.245   5.953  11.179 -0.4687  0.7247  1.1355
  113OSM   H15B11684   5.343   5.809  11.189  0.1853  2.8976 -0.5204
  113OSM   H15C11685   5.215   5.835  11.305  3.7480  0.0490  0.6580
  113OSM    C1411686   5.155   5.625  11.167 -0.0405  0.3068  0.3722
  113OSM   H14A11687   5.245   5.569  11.145 -1.1444 -0.6940 -1.8066
  113OSM   H14B11688   5.086   5.558  11.117 -0.1082 -0.6171  1.6928
  113OSM   H14C11689   5.128   5.626  11.271 -0.3027 -0.0798  0.3138
  113OSM    C1311690   5.018   5.822  11.124 -0.3523  0.3557 -0.9071
  113OSM   H13A11691   5.019   5.928  11.109 -1.8121  0.1972 -2.1869
  113OSM   H13B11692   4.970   5.801  11.219  0.4847 -0.3258 -0.6266
  113OSM   H13C11693   4.957   5.777  11.047  0.0849 -1.2627 -0.3375
  113OSM    C1211694   5.199   5.769  10.968  0.2095  0.2530 -0.0285
  113OSM   H12A11695   5.303   5.749  10.948  0.0400  2.2060 -3.3801
  113OSM   H12B11696   5.187   5.871  10.935 -1.3643  0.1347  0.1067
  113OSM    C1111697   5.114   5.676  10.873  0.3801  0.2843 -0.0743
  113OSM   H11A11698   5.091   5.578  10.919 -3.1437  1.0051 -0.1495
  113OSM   H11B11699   5.178   5.657  10.784  1.1989 -1.5497  0.8836
  113OSM      P11700   4.968   5.871  10.759 -0.2099  0.0126 -0.1519
  113OSM    O1311701   4.826   5.899  10.724  0.3629 -0.7358 -0.3709
  113OSM    O1411702   5.034   5.982  10.829  0.0609  0.2467  0.0553
  113OSM    O1111703   5.048   5.841  10.632  0.2707  0.5758 -0.0122
  113OSM    O1211704   4.987   5.732  10.839 -0.1658 -0.2778  0.1868
  113OSM    C1S11705   5.009   5.733  10.549 -0.1852  0.6833 -0.1180
  113OSM    H1S11706   4.899   5.720  10.556  0.1846 -1.9333  1.4104
  113OSM    H1T11707   5.055   5.633  10.567 -1.2715  0.1482 -0.2862
  113OSM     NF11708   4.957   5.662  10.319 -0.5996  0.0001  0.5693
  113OSM    HNF11709   5.018   5.600  10.270  0.6544 -0.0053  2.1159
  113OSM    C2S11710   5.028   5.765  10.398  0.1478 -0.4748 -0.3574
  113OSM    H2S11711   4.986   5.867  10.388  1.5537 -0.0272 -1.8875
  113OSM    C3S11712   5.179   5.781  10.364 -0.1582 -0.5396  0.0028
  113OSM    H3S11713   5.214   5.676  10.374  0.9921 -0.1406  0.2333
  113OSM     O311714   5.260   5.859  10.452  0.0387 -0.9125 -0.1886
  113OSM    HO311715   5.231   5.840  10.541  1.7918  0.3825  0.6743
  113OSM    C4S11716   5.189   5.828  10.220 -0.2451 -0.4903  0.4815
  113OSM    H4S11717   5.217   5.750  10.148  0.6834  1.1970 -1.0287
  113OSM    C5S11718   5.182   5.958  10.186 -0.0973 -0.4440  0.6242
  113OSM    H5S11719   5.163   6.027  10.269 -2.4668  1.1398 -1.1591
  113OSM    C6S11720   5.206   6.003  10.049  0.0210  0.4405  0.4304
  113OSM    H6S11721   5.281   6.085  10.052 -0.2888  0.7738 -0.7681
  113OSM    H6T11722   5.110   6.038  10.004  0.3283  2.3726  1.2358
  113OSM    C7S11723   5.259   5.898   9.952  0.1373  0.7731  0.3537
  113OSM    H7S11724   5.181   5.820   9.941 -0.1497  1.2805 -1.3010
  113OSM    H7T11725   5.356   5.852   9.980 -1.0586 -2.1309 -0.1243
  113OSM    C8S11726   5.287   5.946   9.809 -0.4404 -0.3545  0.7873
  113OSM    H8S11727   5.385   5.999   9.806  0.4452 -1.9930  0.1286
  113OSM    H8T11728   5.208   6.014   9.770  0.1758  0.1366  0.3796
  113OSM    C9S11729   5.294   5.836   9.698 -0.7871 -0.2907 -0.1169
  113OSM    H9S11730   5.306   5.894   9.604 -2.3743 -0.4420 -0.4223
  113OSM    H9T11731   5.202   5.775   9.689 -0.2359 -2.1151  4.7771
  113OSM   C10S11732   5.407   5.736   9.709 -0.6639  0.2732  0.1035
  113OSM   H10S11733   5.393   5.675   9.801  3.3016 -0.2874  0.4255
  113OSM   H10T11734   5.507   5.783   9.702 -0.8050  0.2805 -2.4772
  113OSM   C11S11735   5.405   5.641   9.587 -0.6000 -1.1360 -0.1865
  113OSM   H11S11736   5.304   5.596   9.576 -1.0192  0.2013 -1.9847
  113OSM   H11T11737   5.482   5.561   9.600  2.2699  1.2429 -1.9577
  113OSM   C12S11738   5.454   5.712   9.459 -0.2106  0.7029 -0.1287
  113OSM   H12S11739   5.542   5.778   9.470 -0.4615  1.4311 -2.1435
  113OSM   H12T11740   5.381   5.784   9.416 -0.2655  0.0931 -1.0890
  113OSM   C13S11741   5.463   5.617   9.342 -0.2057  0.7928  0.8832
  113OSM   H13S11742   5.378   5.546   9.346  0.1174  0.3640  0.2728
  113OSM   H13T11743   5.555   5.556   9.355 -0.9715  0.0543  2.9279
  113OSM   C14S11744   5.459   5.680   9.200  0.7386  0.2884 -0.4236
  113OSM   H14S11745   5.560   5.716   9.172  1.3471 -0.3361  0.9137
  113OSM   H14T11746   5.393   5.768   9.214  1.9830  1.4331 -1.6338
  113OSM   C15S11747   5.410   5.589   9.090  0.3339 -0.0513 -0.4240
  113OSM   H15S11748   5.309   5.550   9.118 -0.5003  1.9417 -0.5885
  113OSM   H15T11749   5.471   5.496   9.092  1.0630  0.4338  1.4430
  113OSM   C16S11750   5.399   5.653   8.950 -0.1128  0.1977 -0.3749
  113OSM   H16S11751   5.505   5.657   8.915 -0.0632  0.3231 -0.2138
  113OSM   H16T11752   5.370   5.759   8.969 -0.4380  0.3640 -1.7559
  113OSM   C17S11753   5.296   5.582   8.856  0.4337 -0.0019 -0.4317
  113OSM   H17S11754   5.196   5.613   8.895  0.7133  0.8719 -0.4054
  113OSM   H17T11755   5.305   5.471   8.858  2.0563  0.1373  1.0739
  113OSM   C18S11756   5.318   5.618   8.704  0.2625 -0.3924  0.0000
  113OSM   H18S11757   5.263   5.555   8.630  0.4000 -2.5118  1.6750
  113OSM   H18T11758   5.427   5.610   8.685  0.3988  0.2068  0.5385
  113OSM   H18U11759   5.292   5.725   8.691  0.1372 -0.6826 -2.4022
  113OSM    C1F11760   4.831   5.674  10.296 -0.0746 -0.4943  0.0720
  113OSM     OF11761   4.758   5.761  10.343  0.0116 -0.4473  0.3716
  113OSM    C2F11762   4.782   5.574  10.194 -0.5147 -0.3505 -0.2972
  113OSM    H2F11763   4.680   5.536  10.217 -1.8020  3.1161 -0.0720
  113OSM    H2G11764   4.844   5.482  10.204  1.9331  1.2179 -0.5258
  113OSM    C3F11765   4.795   5.616  10.048  0.2038  0.0356  0.3252
  113OSM    H3F11766   4.763   5.722  10.036  0.6786  0.0164 -1.2180
  113OSM    H3G11767   4.729   5.561   9.977  1.8238 -0.4244 -0.8569
  113OSM    C4F11768   4.927   5.595   9.983  0.5921 -0.4140 -0.1255
  113OSM    H4F11769   5.000   5.671  10.018 -0.8982  1.7190 -1.6031
  113OSM    H4G11770   4.906   5.625   9.878  1.0762  0.2747 -0.0267
  113OSM    C5F11771   4.978   5.449   9.975 -0.0557 -0.1713  0.0655
  113OSM    H5F11772   4.898   5.378   9.944  0.5223  0.1025 -2.1184
  113OSM    H5G11773   5.006   5.420  10.079  1.7682  3.0799  0.5314
  113OSM    C6F11774   5.103   5.420   9.889  0.0345 -0.5596  0.0356
  113OSM    H6F11775   5.065   5.450   9.789  0.2417 -0.8670 -0.1377
  113OSM    H6G11776   5.128   5.312   9.883 -0.4667 -0.6313 -0.8433
  113OSM    C7F11777   5.234   5.501   9.916  0.4493 -0.5519  0.6697
  113OSM    H7F11778   5.202   5.601   9.953  0.6881 -0.1994 -0.0717
  113OSM    H7G11779   5.307   5.499   9.832  1.2643  1.9144  1.2663
  113OSM    C8F11780   5.315   5.445  10.040  0.1968  0.7350 -0.4569
  113OSM    H8F11781   5.315   5.335  10.028  1.7741  0.7833 -1.0099
  113OSM    H8G11782   5.261   5.469  10.135  1.2927 -1.5259  0.7746
  113OSM    C9F11783   5.456   5.496  10.057 -0.2238 -0.2012  0.7133
  113OSM    H9F11784   5.477   5.588  10.113  0.3163  0.5038 -0.6147
  113OSM   C10F11785   5.565   5.435  10.008 -0.4114 -0.0394  0.7964
  113OSM   H10F11786   5.662   5.483  10.026 -0.9026  0.6692  1.6016
  113OSM   C11F11787   5.570   5.315   9.923 -0.4495 -0.4767  0.2068
  113OSM   H11F11788   5.472   5.297   9.874 -0.8403  2.1143 -0.0448
  113OSM   H11G11789   5.595   5.230   9.990 -0.4304 -0.1339  0.6342
  113OSM   C12F11790   5.676   5.315   9.808 -0.0503  0.0186 -0.5044
  113OSM   H12F11791   5.660   5.398   9.736  1.5414 -1.0834 -2.1673
  113OSM   H12G11792   5.663   5.226   9.743 -1.7014  0.7952 -1.2474
  113OSM   C13F11793   5.825   5.317   9.856  0.3575 -0.4517 -0.6348
  113OSM   H13F11794   5.833   5.374   9.951  3.4590  0.2119 -1.2507
  113OSM   H13G11795   5.888   5.358   9.774  0.9343  0.4491  0.2443
  113OSM   C14F11796   5.890   5.176   9.900  0.6618 -0.0509  0.5346
  113OSM   H14F11797   5.859   5.159  10.005 -0.3424  2.7518  0.7185
  113OSM   H14G11798   6.001   5.188   9.894  0.6956 -0.2121  0.8463
  113OSM   C15F11799   5.861   5.056   9.809  0.0116 -0.4563  0.4080
  113OSM   H15F11800   5.751   5.054   9.791  0.1348  2.0000 -0.7827
  113OSM   H15G11801   5.896   4.961   9.854 -0.2875 -0.7347  0.0634
  113OSM   C16F11802   5.920   5.078   9.674 -0.1403  0.1690  0.0216
  113OSM   H16F11803   5.875   5.167   9.623 -1.7756 -0.7116 -0.0879
  113OSM   H16G11804   5.896   4.990   9.611  1.4944 -0.1600 -0.1564
  113OSM   C17F11805   6.077   5.090   9.665 -0.0339 -0.3732 -0.2728
  113OSM   H17F11806   6.103   4.999   9.723  0.8309 -0.5157 -0.8796
  113OSM   H17G11807   6.116   5.175   9.726 -0.9182  0.6441 -1.0932
  113OSM   C18F11808   6.134   5.071   9.524  0.5914 -0.2120 -0.0150
  113OSM   H18F11809   6.128   5.165   9.464  3.3956 -0.8787 -1.3843
  113OSM   H18G11810   6.092   4.983   9.472 -1.8004 -0.4430  2.1760
  113OSM   H18H11811   6.242   5.054   9.542  0.5343 -0.6352 -0.0718
  114OSM      N11812   6.110   3.456  11.311  0.0762  0.4104 -0.1072
  114OSM    C1511813   6.028   3.574  11.290 -0.1452 -0.1507 -0.1171
  114OSM   H15A11814   6.013   3.617  11.388 -0.0604 -2.7012  1.0573
  114OSM   H15B11815   5.934   3.556  11.241 -2.1195  1.2252  3.0163
  114OSM   H15C11816   6.094   3.642  11.238  1.4314  1.3352  3.6278
  114OSM    C1411817   6.051   3.364  11.416 -0.7667  0.5595 -0.2485
  114OSM   H14A11818   6.112   3.276  11.429  0.0773  1.4585  1.9466
  114OSM   H14B11819   5.951   3.330  11.391 -0.1629 -0.2345 -1.6683
  114OSM   H14C11820   6.051   3.407  11.515 -0.6777  0.1828 -0.0847
  114OSM    C1311821   6.100   3.380  11.170 -0.4197 -0.2399  0.4055
  114OSM   H13A11822   6.108   3.452  11.090 -0.5196 -0.3249  0.3198
  114OSM   H13B11823   5.999   3.343  11.157 -0.6181  0.9952 -1.8539
  114OSM   H13C11824   6.159   3.290  11.179  0.1356  0.3076  2.4473
  114OSM    C1211825   6.249   3.496  11.355 -1.1761 -0.3309 -0.6740
  114OSM   H12A11826   6.314   3.414  11.380  1.4273  2.0692  0.6743
  114OSM   H12B11827   6.239   3.544  11.451 -0.9811 -1.9671  0.1767
  114OSM    C1111828   6.338   3.584  11.270  0.5407 -0.5916  0.5206
  114OSM   H11A11829   6.267   3.662  11.236  1.1220  0.0295  0.7074
  114OSM   H11B11830   6.381   3.523  11.188  1.1766  1.1649 -0.4733
  114OSM      P11831   6.474   3.779  11.383  0.6206 -0.0244  0.6912
  114OSM    O1311832   6.377   3.816  11.492 -0.1482  0.6428 -0.4654
  114OSM    O1411833   6.614   3.796  11.407  0.6617 -0.3470  0.5287
  114OSM    O1111834   6.442   3.858  11.247 -0.1275  0.2345  0.3361
  114OSM    O1211835   6.446   3.629  11.343  0.0317 -0.2510 -0.5094
  114OSM    C1S11836   6.512   3.821  11.128 -0.2585  0.1713 -0.0544
  114OSM    H1S11837   6.532   3.713  11.110 -0.5190 -0.1696  1.6786
  114OSM    H1T11838   6.612   3.870  11.132 -1.1391  1.9101  1.3151
  114OSM     NF11839   6.528   3.834  10.863 -0.1326 -0.4682  0.6037
  114OSM    HNF11840   6.558   3.910  10.806 -1.7785  1.0248  1.7183
  114OSM    C2S11841   6.455   3.878  10.991 -0.0380  0.2428  0.2810
  114OSM    H2S11842   6.351   3.841  10.976 -0.3591  1.4597 -0.5599
  114OSM    C3S11843   6.446   4.031  11.004 -0.2007  0.1270  0.0760
  114OSM    H3S11844   6.547   4.075  11.012 -0.5175  0.7560  0.6813
  114OSM     O311845   6.372   4.069  11.120  0.4029  0.3245 -0.2143
  114OSM    HO311846   6.351   3.985  11.161  0.7338 -0.1457 -1.0101
  114OSM    C4S11847   6.384   4.099  10.876 -0.0615  0.0037  0.3488
  114OSM    H4S11848   6.464   4.115  10.803 -1.2016  0.2305 -0.8832
  114OSM    C5S11849   6.262   4.133  10.849  0.2161  0.5649 -0.1668
  114OSM    H5S11850   6.190   4.109  10.928  2.1747  0.9414  1.7898
  114OSM    C6S11851   6.208   4.185  10.715 -0.0042  0.0268 -0.6568
  114OSM    H6S11852   6.166   4.288  10.711  1.2411  0.6151  0.7845
  114OSM    H6T11853   6.125   4.118  10.684  0.7274 -0.7268 -0.9857
  114OSM    C7S11854   6.299   4.179  10.593 -0.3539 -0.2588 -0.0238
  114OSM    H7S11855   6.365   4.089  10.598 -0.5154 -0.3669  0.1923
  114OSM    H7T11856   6.364   4.267  10.611  0.9294 -1.3088  0.6333
  114OSM    C8S11857   6.232   4.186  10.458  0.0143 -0.0669  0.1043
  114OSM    H8S11858   6.181   4.284  10.446 -0.6892 -0.3065  1.1257
  114OSM    H8T11859   6.147   4.116  10.449  0.7417 -0.8245 -0.9180
  114OSM    C9S11860   6.322   4.169  10.339 -0.0174  0.2381  0.3495
  114OSM    H9S11861   6.370   4.069  10.345  0.5623  0.5762  1.6351
  114OSM    H9T11862   6.405   4.241  10.354 -1.0288  1.1155  1.8145
  114OSM   C10S11863   6.273   4.216  10.203 -0.1042 -0.2431  0.4448
  114OSM   H10S11864   6.234   4.319  10.213 -1.3500 -0.6259 -0.3904
  114OSM   H10T11865   6.195   4.156  10.152 -1.1302  0.5242  1.0837
  114OSM   C11S11866   6.387   4.227  10.106  0.5731 -0.0984  0.5554
  114OSM   H11S11867   6.444   4.134  10.081  1.0134  0.2253  0.3511
  114OSM   H11T11868   6.455   4.299  10.155  0.7852  1.4070 -1.8611
  114OSM   C12S11869   6.333   4.295   9.978 -0.1375 -0.5006  0.4492
  114OSM   H12S11870   6.414   4.350   9.926  0.0947  1.4626  2.7925
  114OSM   H12T11871   6.266   4.380  10.004  0.2469 -0.3370  0.9007
  114OSM   C13S11872   6.262   4.199   9.878 -0.2272  0.8615  0.0732
  114OSM   H13S11873   6.163   4.171   9.921 -0.0481  1.1476  0.6877
  114OSM   H13T11874   6.328   4.110   9.881  0.9764  1.6632 -1.9555
  114OSM   C14S11875   6.248   4.255   9.735 -0.2338 -0.7115  0.0150
  114OSM   H14S11876   6.348   4.286   9.699 -1.8259  0.3512 -3.7067
  114OSM   H14T11877   6.187   4.346   9.752  2.0226  0.8040  0.2374
  114OSM   C15S11878   6.190   4.163   9.628 -0.1050 -0.0840 -0.1367
  114OSM   H15S11879   6.101   4.110   9.668 -0.1630 -1.4460 -2.0278
  114OSM   H15T11880   6.257   4.075   9.619 -1.5484 -0.9290 -3.0134
  114OSM   C16S11881   6.157   4.233   9.495 -0.4377  0.8546  0.4832
  114OSM   H16S11882   6.128   4.339   9.512  0.5046  1.5285 -1.8969
  114OSM   H16T11883   6.073   4.175   9.451 -2.6626  3.3781  1.2930
  114OSM   C17S11884   6.273   4.229   9.401  1.1303  0.1088 -0.1808
  114OSM   H17S11885   6.306   4.123   9.394  2.2011  0.3148  1.3951
  114OSM   H17T11886   6.360   4.284   9.443  0.6428  1.4753 -0.9283
  114OSM   C18S11887   6.241   4.293   9.263  0.0318  0.0377  0.5327
  114OSM   H18S11888   6.144   4.251   9.229 -0.4940 -0.1398  2.2073
  114OSM   H18T11889   6.319   4.279   9.185  1.1732 -0.5105  1.7492
  114OSM   H18U11890   6.235   4.401   9.289  1.9805  1.2983 -3.8708
  114OSM    C1F11891   6.529   3.712  10.819 -0.0305  0.2367  0.1586
  114OSM     OF11892   6.476   3.626  10.892  0.3286  0.7243  0.3340
  114OSM    C2F11893   6.587   3.683  10.682 -0.2337  0.3569  0.0814
  114OSM    H2F11894   6.500   3.636  10.632 -1.1247  0.9021  1.1048
  114OSM    H2G11895   6.660   3.599  10.676 -2.2118 -1.5054  1.3890
  114OSM    C3F11896   6.629   3.812  10.611 -0.3213  0.4370 -0.5646
  114OSM    H3F11897   6.724   3.853  10.651  0.4572  0.8189 -2.6942
  114OSM    H3G11898   6.543   3.880  10.630  0.8313  1.2986  1.7977
  114OSM    C4F11899   6.642   3.795  10.461  0.1611  0.4144 -0.0262
  114OSM    H4F11900   6.566   3.730  10.412  1.0041 -1.4852  1.1581
  114OSM    H4G11901   6.741   3.747  10.450  1.2180  2.2176  1.3586
  114OSM    C5F11902   6.654   3.919  10.381  0.6321  0.1445  0.3419
  114OSM    H5F11903   6.731   3.987  10.424 -1.2898  2.0280  0.8736
  114OSM    H5G11904   6.555   3.968  10.380 -1.1539 -3.2876  1.8141
  114OSM    C6F11905   6.698   3.887  10.240  0.6383 -0.1780 -0.3297
  114OSM    H6F11906   6.619   3.830  10.187  0.2925  0.5080 -0.5568
  114OSM    H6G11907   6.791   3.826  10.237  0.0919 -0.9826 -1.0077
  114OSM    C7F11908   6.708   4.020  10.164  0.0052  0.2934  0.1998
  114OSM    H7F11909   6.781   4.092  10.207 -0.6024  0.8414  0.3203
  114OSM    H7G11910   6.609   4.068  10.163 -0.2685 -0.2328  1.7228
  114OSM    C8F11911   6.755   3.992  10.017 -0.8950 -0.0393  0.3522
  114OSM    H8F11912   6.838   3.920  10.032  1.1562  2.5554  1.7136
  114OSM    H8G11913   6.804   4.084   9.980  2.3494 -1.2068  1.5621
  114OSM    C9F11914   6.641   3.938   9.930  0.4398 -0.2203  0.1013
  114OSM    H9F11915   6.581   3.849   9.955 -2.1311  1.2017 -0.7673
  114OSM   C10F11916   6.599   4.005   9.820  0.3258 -1.0496 -0.2541
  114OSM   H10F11917   6.529   3.949   9.756 -3.0974  1.4335  1.1966
  114OSM   C11F11918   6.639   4.145   9.775 -0.0436  0.1579 -0.2324
  114OSM   H11F11919   6.695   4.210   9.845  0.4153 -1.3475  0.8249
  114OSM   H11G11920   6.544   4.201   9.762 -0.2298  0.2723  1.4450
  114OSM   C12F11921   6.714   4.152   9.639  0.5829 -0.0746  0.1583
  114OSM   H12F11922   6.780   4.063   9.647  0.6623  0.2069  3.2373
  114OSM   H12G11923   6.762   4.252   9.638  2.8432 -1.1147  0.9422
  114OSM   C13F11924   6.621   4.149   9.514 -0.0917  0.0248 -0.0826
  114OSM   H13F11925   6.577   4.248   9.489  1.0508  0.9427  1.4680
  114OSM   H13G11926   6.538   4.076   9.527  0.1462 -0.4060 -0.9319
  114OSM   C14F11927   6.700   4.096   9.386 -0.0576  0.0138  0.7223
  114OSM   H14F11928   6.745   3.996   9.408  0.9258 -0.5836 -3.5292
  114OSM   H14G11929   6.784   4.167   9.369 -0.8916  0.6606 -0.8115
  114OSM   C15F11930   6.613   4.077   9.260  0.6334 -0.0159  0.0173
  114OSM   H15F11931   6.560   4.174   9.247 -1.1546 -0.9880 -0.0451
  114OSM   H15G11932   6.537   4.001   9.287  0.4438 -0.4160 -1.6143
  114OSM   C16F11933   6.687   4.034   9.139  0.0793  0.1872  0.0252
  114OSM   H16F11934   6.728   3.933   9.159 -1.6713 -0.7107 -0.8173
  114OSM   H16G11935   6.775   4.101   9.130 -1.9778  3.3123  1.9569
  114OSM   C17F11936   6.609   4.063   9.006  0.2171  0.4363 -0.5748
  114OSM   H17F11937   6.653   4.021   8.913  0.5369  0.8268 -0.6005
  114OSM   H17G11938   6.606   4.173   8.991 -1.1975  0.2078 -2.1388
  114OSM   C18F11939   6.459   4.019   9.010 -0.0868  0.6213  0.0466
  114OSM   H18F11940   6.460   3.924   9.068  1.2649  0.0176 -0.9419
  114OSM   H18G11941   6.418   4.007   8.907 -1.3284 -0.2064  0.6292
  114OSM   H18H11942   6.394   4.091   9.064 -0.3357  0.0418  0.5355
  115OSM      N11943   0.145   1.479   6.120  0.1641  0.0354 -0.0522
  115OSM    C1511944   0.011   1.552   6.105  0.2819  0.0397 -0.7697
  115OSM   H15A11945  -0.020   1.546   6.002  1.0450 -1.5656 -0.9186
  115OSM   H15B11946   0.020   1.657   6.131  1.0105  0.3296 -2.1126
  115OSM   H15C11947  -0.058   1.493   6.162 -1.1743 -0.8490 -3.3640
  115OSM    C1411948   0.122   1.353   6.042 -0.4441  0.1590 -0.4438
  115OSM   H14A11949   0.048   1.305   6.105  1.9333  0.9990  3.1532
  115OSM   H14B11950   0.213   1.295   6.037 -0.3780  0.3267 -1.2126
  115OSM   H14C11951   0.100   1.373   5.938  1.7692 -1.6519 -1.2976
  115OSM    C1311952   0.251   1.567   6.067  0.3434  0.0810 -0.5343
  115OSM   H13A11953   0.234   1.580   5.961 -2.2165 -1.7314 -0.3719
  115OSM   H13B11954   0.353   1.533   6.078 -0.1082 -0.8726  0.7970
  115OSM   H13C11955   0.244   1.663   6.117  0.2779  0.2968 -0.9575
  115OSM    C1211956   0.171   1.436   6.263  0.3474  0.6070  0.0676
  115OSM   H12A11957   0.195   1.527   6.316  2.0703 -0.3268  0.9204
  115OSM   H12B11958   0.256   1.369   6.259  1.9806  2.6428 -0.2934
  115OSM    C1111959   0.073   1.354   6.348 -1.0326  0.9687 -0.0087
  115OSM   H11A11960  -0.024   1.404   6.366 -0.2655  1.5068  2.9107
  115OSM   H11B11961   0.104   1.342   6.454 -0.5607 -0.8602 -0.3312
  115OSM      P11962  -0.070   1.135   6.313 -0.0103 -0.1456  0.0314
  115OSM    O1311963  -0.190   1.225   6.302 -0.2332 -0.4182  0.3071
  115OSM    O1411964  -0.059   1.019   6.219  0.4918 -0.2824 -0.1643
  115OSM    O1111965  -0.072   1.084   6.464 -0.0421 -0.1898  0.4209
  115OSM    O1211966   0.063   1.223   6.288  1.0169  0.1674 -0.2916
  115OSM    C1S11967   0.050   1.050   6.538 -0.2236  0.3905 -0.3740
  115OSM    H1S11968   0.145   1.056   6.479 -0.1149 -0.7179 -0.3293
  115OSM    H1T11969   0.050   0.943   6.570  0.3745  0.8762  1.3106
  115OSM     NF11970   0.181   1.105   6.738 -0.9127  0.0146  0.0368
  115OSM    HNF11971   0.187   1.025   6.797 -1.1248  0.2908  0.4342
  115OSM    C2S11972   0.055   1.120   6.676  0.1393  0.7104  0.0470
  115OSM    H2S11973   0.041   1.228   6.653 -1.7490 -0.1714 -3.1691
  115OSM    C3S11974  -0.058   1.073   6.777 -0.1576  0.4439  0.0109
  115OSM    H3S11975  -0.028   0.971   6.811  1.2772  0.9538  0.2807
  115OSM     O311976  -0.187   1.064   6.716  0.4211  0.3576 -0.4582
  115OSM    HO311977  -0.166   1.062   6.622  0.9218  0.9477 -0.3630
  115OSM    C4S11978  -0.066   1.155   6.911 -0.2195 -0.6098  0.0860
  115OSM    H4S11979  -0.026   1.095   6.994  3.3899 -0.0464 -1.1480
  115OSM    C5S11980  -0.115   1.280   6.925 -0.5262 -0.2612 -0.4005
  115OSM    H5S11981  -0.151   1.333   6.836 -0.7099  1.0206  0.4279
  115OSM    C6S11982  -0.124   1.354   7.053 -0.6013  0.3060 -0.0222
  115OSM    H6S11983  -0.226   1.397   7.059  0.6402  3.1381  2.0329
  115OSM    H6T11984  -0.057   1.441   7.037 -1.0872  0.3788 -1.6679
  115OSM    C7S11985  -0.099   1.279   7.179 -0.2788 -0.4902  0.2094
  115OSM    H7S11986   0.008   1.250   7.188  0.1102  0.7645 -0.1936
  115OSM    H7T11987  -0.175   1.198   7.186  0.5236 -1.1486  1.3289
  115OSM    C8S11988  -0.126   1.376   7.294  0.4397  0.4612 -0.3303
  115OSM    H8S11989  -0.230   1.413   7.279  0.2328  1.0745  2.4565
  115OSM    H8T11990  -0.053   1.460   7.294  2.1877 -1.0299  1.8850
  115OSM    C9S11991  -0.112   1.306   7.435 -0.4621  0.3210  0.3532
  115OSM    H9S11992  -0.006   1.277   7.448 -0.2219  0.0259 -1.9893
  115OSM    H9T11993  -0.177   1.215   7.428  1.2507 -0.8353 -0.8627
  115OSM   C10S11994  -0.155   1.378   7.565 -0.2257  0.5340  0.0264
  115OSM   H10S11995  -0.265   1.367   7.577 -0.2337  0.3396 -0.2347
  115OSM   H10T11996  -0.126   1.485   7.553  0.0049  0.5611  0.7461
  115OSM   C11S11997  -0.098   1.322   7.692  0.0688  0.4051  0.2623
  115OSM   H11S11998   0.009   1.346   7.711  0.1319  2.0859 -2.0264
  115OSM   H11T11999  -0.101   1.212   7.674 -1.7713  0.4106  0.5296
  115OSM   C12S12000  -0.193   1.343   7.810 -0.0714 -0.7991  0.3884
  115OSM   H12S12001  -0.295   1.323   7.771 -0.8207  1.8942  0.8468
  115OSM   H12T12002  -0.207   1.452   7.826  0.6494 -0.8201  1.1813
  115OSM   C13S12003  -0.153   1.281   7.936 -0.0219  0.0121 -0.0693
  115OSM   H13S12004  -0.244   1.296   7.998 -1.2015  1.9221 -2.2044
  115OSM   H13T12005  -0.069   1.345   7.972 -0.9611  0.8220  0.7201
  115OSM   C14S12006  -0.119   1.131   7.930 -0.4387  0.2136 -0.0980
  115OSM   H14S12007  -0.027   1.116   7.870 -0.6180  0.6124 -0.4769
  115OSM   H14T12008  -0.208   1.076   7.890  1.1667 -0.8505 -2.3114
  115OSM   C15S12009  -0.088   1.077   8.069 -0.3612 -0.4765  0.3143
  115OSM   H15S12010   0.006   1.123   8.105  0.8878 -1.2389 -1.9101
  115OSM   H15T12011  -0.064   0.972   8.043 -2.8441 -0.7759 -0.9185
  115OSM   C16S12012  -0.207   1.081   8.167 -0.2472 -0.3102  0.1613
  115OSM   H16S12013  -0.291   1.026   8.120  1.0558 -1.8849 -0.3811
  115OSM   H16T12014  -0.241   1.183   8.194 -0.9166 -0.3251 -0.6460
  115OSM   C17S12015  -0.176   1.000   8.297 -0.0387  0.0645 -0.7265
  115OSM   H17S12016  -0.103   1.057   8.358 -0.4970 -0.0272 -0.0896
  115OSM   H17T12017  -0.135   0.898   8.281 -0.4948 -0.1950 -0.2565
  115OSM   C18S12018  -0.303   0.988   8.382 -0.3086 -0.3332  0.2119
  115OSM   H18S12019  -0.289   0.953   8.487  2.1855  0.7891  0.2836
  115OSM   H18T12020  -0.385   0.938   8.327 -1.3556 -0.3023  1.7081
  115OSM   H18U12021  -0.334   1.094   8.391 -1.3032 -0.6324  0.4164
  115OSM    C1F12022   0.299   1.166   6.703 -1.2114 -0.2658  0.0605
  115OSM     OF12023   0.300   1.247   6.617 -0.1854 -0.6469  0.7107
  115OSM    C2F12024   0.429   1.124   6.775 -0.4128  0.3388  0.1817
  115OSM    H2F12025   0.514   1.144   6.706  1.5496 -0.1268  2.4032
  115OSM    H2G12026   0.425   1.016   6.797  2.1509  0.4951  1.6139
  115OSM    C3F12027   0.443   1.202   6.902  0.2321  0.0711  0.1693
  115OSM    H3F12028   0.364   1.175   6.975  0.7048  1.1927  1.1162
  115OSM    H3G12029   0.423   1.309   6.878 -0.3781  0.0543  0.5815
  115OSM    C4F12030   0.576   1.163   6.969  0.0070 -0.2802 -0.2505
  115OSM    H4F12031   0.666   1.162   6.904 -0.4586 -0.2546 -0.8964
  115OSM    H4G12032   0.562   1.062   7.014  0.0613  0.4717  1.5124
  115OSM    C5F12033   0.614   1.241   7.090  0.3582  0.2839 -0.2575
  115OSM    H5F12034   0.532   1.233   7.165 -0.9060 -0.6961 -1.7182
  115OSM    H5G12035   0.598   1.347   7.062 -0.1790  0.5667  1.0569
  115OSM    C6F12036   0.746   1.218   7.162  0.2206 -0.0371 -0.7569
  115OSM    H6F12037   0.835   1.216   7.096  1.3027 -3.2196  0.7018
  115OSM    H6G12038   0.739   1.114   7.202 -1.5128 -0.3109 -1.7247
  115OSM    C7F12039   0.772   1.321   7.284 -0.3202  0.2936  0.1501
  115OSM    H7F12040   0.767   1.417   7.230 -1.6223  0.6695  0.9099
  115OSM    H7G12041   0.877   1.295   7.308 -1.0487 -1.4044  1.6475
  115OSM    C8F12042   0.680   1.322   7.403 -0.3637 -0.1520 -0.4133
  115OSM    H8F12043   0.574   1.312   7.372 -0.7377  0.2847  0.6748
  115OSM    H8G12044   0.697   1.422   7.449  0.1005  0.0521 -1.0168
  115OSM    C9F12045   0.713   1.214   7.501 -0.3879 -0.1204  0.3822
  115OSM    H9F12046   0.704   1.111   7.465 -0.6058  0.1779 -0.4375
  115OSM   C10F12047   0.738   1.231   7.633 -0.6006  0.3899 -0.2707
  115OSM   H10F12048   0.751   1.138   7.691 -0.5691 -0.0801 -1.0231
  115OSM   C11F12049   0.744   1.353   7.725 -0.4185  0.1392  0.4437
  115OSM   H11F12050   0.686   1.442   7.691 -1.2167 -0.7940 -0.6839
  115OSM   H11G12051   0.850   1.387   7.729 -0.5076  0.6632 -1.1301
  115OSM   C12F12052   0.698   1.333   7.865  0.2733 -0.2986 -0.3571
  115OSM   H12F12053   0.599   1.284   7.857  0.1749 -0.5193  1.9176
  115OSM   H12G12054   0.678   1.432   7.912  2.4816  0.0712 -0.1445
  115OSM   C13F12055   0.789   1.248   7.956  0.1962  0.1505  0.2905
  115OSM   H13F12056   0.853   1.321   8.012  2.1013 -0.3060 -1.2208
  115OSM   H13G12057   0.847   1.172   7.900 -2.0956 -0.3124 -1.5066
  115OSM   C14F12058   0.704   1.180   8.067 -0.2118 -0.6485  0.1120
  115OSM   H14F12059   0.625   1.110   8.031 -1.1763  2.2422 -3.7763
  115OSM   H14G12060   0.654   1.264   8.121  2.0453  1.3819 -0.8796
  115OSM   C15F12061   0.796   1.104   8.165 -0.4179 -0.2709  0.3175
  115OSM   H15F12062   0.888   1.162   8.187 -0.9201  0.9511 -0.7685
  115OSM   H15G12063   0.819   1.005   8.121 -1.8779 -1.0897  1.3402
  115OSM   C16F12064   0.746   1.092   8.305 -0.2807  0.3221 -0.0898
  115OSM   H16F12065   0.657   1.026   8.309  0.6128 -0.8640  0.3843
  115OSM   H16G12066   0.714   1.195   8.334  0.2917  0.5155 -0.1368
  115OSM   C17F12067   0.847   1.036   8.408 -0.2253 -0.0981  0.1066
  115OSM   H17F12068   0.795   0.998   8.498  0.1989 -0.6332  0.1314
  115OSM   H17G12069   0.922   1.111   8.439  2.4910 -2.6961  0.0990
  115OSM   C18F12070   0.934   0.917   8.365 -0.4155 -0.5004  0.3983
  115OSM   H18F12071   0.877   0.833   8.319 -0.3551 -0.1430 -0.3217
  115OSM   H18G12072   0.987   0.883   8.457 -1.5323  1.9319  2.0073
  115OSM   H18H12073   1.014   0.947   8.294 -1.6490  1.3123 -0.2389
  116OSM      N12074   5.985   5.849   6.166 -0.4486  0.0247 -0.1654
  116OSM    C1512075   5.927   5.970   6.099 -0.1673 -0.1399  0.1535
  116OSM   H15A12076   5.892   6.044   6.169 -1.3475 -1.5221  1.0499
  116OSM   H15B12077   5.841   5.942   6.040  0.3899 -0.2931 -0.6059
  116OSM   H15C12078   5.995   6.017   6.029 -0.1704 -0.9360 -0.3922
  116OSM    C1412079   5.997   5.749   6.054 -0.6308  0.4807 -0.0289
  116OSM   H14A12080   6.056   5.795   5.976 -0.5748 -0.0070 -0.2766
  116OSM   H14B12081   5.908   5.715   6.004 -0.6489  0.0028  0.3130
  116OSM   H14C12082   6.042   5.655   6.084 -0.5248  1.1640  2.0479
  116OSM    C1312083   6.119   5.883   6.226 -0.2818  0.4388  0.1546
  116OSM   H13A12084   6.184   5.929   6.153  1.4922 -1.2859  0.5876
  116OSM   H13B12085   6.159   5.790   6.265 -1.1299 -1.0956 -2.4716
  116OSM   H13C12086   6.104   5.952   6.308 -1.3321 -2.2944  2.3702
  116OSM    C1212087   5.886   5.796   6.269 -0.8410 -0.2926 -0.6930
  116OSM   H12A12088   5.798   5.757   6.222 -1.7577  1.8665 -0.8365
  116OSM   H12B12089   5.843   5.873   6.332 -1.7294  0.1248 -1.8082
  116OSM    C1112090   5.946   5.699   6.365  0.2012  0.1407 -0.7705
  116OSM   H11A12091   5.874   5.680   6.448  2.8415 -2.4540  1.0703
  116OSM   H11B12092   6.037   5.733   6.419 -0.1192 -1.9627  1.2220
  116OSM      P12093   5.891   5.454   6.291  0.2770 -0.3775  0.6641
  116OSM    O1312094   5.780   5.504   6.200 -0.3177  0.0890 -0.2954
  116OSM    O1412095   5.969   5.334   6.247  0.7465 -0.4162 -0.4937
  116OSM    O1112096   5.834   5.426   6.435 -0.0319 -0.1857 -0.2782
  116OSM    O1212097   5.993   5.572   6.308  0.0806 -0.3749  0.6808
  116OSM    C1S12098   5.918   5.366   6.537  0.7104  0.3388 -0.4271
  116OSM    H1S12099   6.018   5.415   6.528 -0.2460  2.0353 -2.2721
  116OSM    H1T12100   5.924   5.256   6.523  2.7634  0.5301 -1.2622
  116OSM     NF12101   5.920   5.320   6.778  0.5683 -0.0341  0.2637
  116OSM    HNF12102   5.858   5.262   6.830 -0.8244  0.5063 -0.7722
  116OSM    C2S12103   5.866   5.405   6.672  0.3260 -0.0942 -0.2910
  116OSM    H2S12104   5.914   5.505   6.682  0.1399 -0.0348  0.0125
  116OSM    C3S12105   5.709   5.420   6.687  0.4683 -0.3310  0.0063
  116OSM    H3S12106   5.655   5.334   6.641 -0.2058  0.7436 -1.2541
  116OSM     O312107   5.666   5.529   6.607 -0.8434 -0.2259  0.6554
  116OSM    HO312108   5.730   5.521   6.536 -2.5131  0.9100 -1.0462
  116OSM    C4S12109   5.679   5.452   6.821 -0.3669  0.0921 -0.1398
  116OSM    H4S12110   5.699   5.554   6.859  0.6539 -0.5850  1.1827
  116OSM    C5S12111   5.611   5.380   6.908  0.0068  0.1786 -0.2903
  116OSM    H5S12112   5.565   5.289   6.867 -2.0292  0.4551  1.2576
  116OSM    C6S12113   5.560   5.408   7.048 -1.1618 -0.0695  0.0080
  116OSM    H6S12114   5.581   5.326   7.120 -0.8793  0.0882  0.1044
  116OSM    H6T12115   5.450   5.409   7.030 -1.2257  2.2112  0.2653
  116OSM    C7S12116   5.598   5.543   7.114 -0.1436  0.2072  0.0566
  116OSM    H7S12117   5.530   5.576   7.195 -0.4777 -2.4894  0.9259
  116OSM    H7T12118   5.594   5.633   7.049 -0.4612 -0.5780 -1.0398
  116OSM    C8S12119   5.734   5.552   7.176 -0.0972 -0.8614 -0.1358
  116OSM    H8S12120   5.750   5.647   7.231 -0.4764  0.0471 -1.5729
  116OSM    H8T12121   5.803   5.556   7.089 -0.3772 -2.5832 -0.4547
  116OSM    C9S12122   5.768   5.449   7.283  0.0867  0.1497  0.0803
  116OSM    H9S12123   5.780   5.352   7.231 -1.8510  0.5669 -1.2243
  116OSM    H9T12124   5.679   5.434   7.347  0.2590 -0.9216  0.0807
  116OSM   C10S12125   5.893   5.473   7.365  0.4880 -0.0324 -0.2943
  116OSM   H10S12126   5.871   5.561   7.429 -1.4103 -1.5879  1.2741
  116OSM   H10T12127   5.977   5.496   7.297 -0.5331  0.0485 -1.5386
  116OSM   C11S12128   5.918   5.359   7.462 -0.1963  0.4785 -0.6620
  116OSM   H11S12129   6.026   5.362   7.489  0.4807 -2.3868 -2.8382
  116OSM   H11T12130   5.913   5.264   7.406 -1.0032 -2.0954  3.6070
  116OSM   C12S12131   5.823   5.361   7.575  0.5452  0.3706  0.4043
  116OSM   H12S12132   5.852   5.281   7.646  0.9304 -2.5831 -2.9454
  116OSM   H12T12133   5.724   5.330   7.537  1.1724 -0.2277 -0.7604
  116OSM   C13S12134   5.805   5.490   7.657 -0.9322 -0.1517 -0.4989
  116OSM   H13S12135   5.748   5.571   7.606  2.0251  1.9175 -0.6816
  116OSM   H13T12136   5.909   5.526   7.674 -0.8612 -0.7158  0.3280
  116OSM   C14S12137   5.744   5.473   7.797  0.0194 -0.3574  0.3718
  116OSM   H14S12138   5.648   5.418   7.784 -0.0011 -0.3578  0.5249
  116OSM   H14T12139   5.727   5.574   7.839 -0.2691  0.5917 -1.9713
  116OSM   C15S12140   5.839   5.390   7.890 -0.1396 -0.2330  0.4775
  116OSM   H15S12141   5.928   5.454   7.904  0.9268 -1.3307 -1.1234
  116OSM   H15T12142   5.857   5.289   7.846 -2.7047  0.5605 -2.6321
  116OSM   C16S12143   5.791   5.379   8.040  0.2187  0.3059 -0.1024
  116OSM   H16S12144   5.687   5.339   8.043  0.4965 -0.3837  0.7187
  116OSM   H16T12145   5.786   5.484   8.074  0.7528  0.1695  0.4053
  116OSM   C17S12146   5.881   5.301   8.136 -0.3674  0.2625 -0.5050
  116OSM   H17S12147   5.984   5.343   8.137  0.0660 -0.8159  0.3247
  116OSM   H17T12148   5.898   5.199   8.095  1.1708  0.6565 -0.8866
  116OSM   C18S12149   5.822   5.295   8.277  0.6399  0.3064  0.3918
  116OSM   H18S12150   5.786   5.398   8.296  1.3416  0.5083  0.6278
  116OSM   H18T12151   5.901   5.259   8.346  0.6722 -0.8816 -0.2461
  116OSM   H18U12152   5.734   5.227   8.283  1.6624 -0.9962  0.8477
  116OSM    C1F12153   6.044   5.296   6.811  0.2721  0.0227 -0.5752
  116OSM     OF12154   6.141   5.343   6.750  0.4977 -0.0894  0.2216
  116OSM    C2F12155   6.057   5.208   6.929  0.4829 -0.0654  0.2970
  116OSM    H2F12156   6.048   5.101   6.899 -0.2289 -0.2721  1.2187
  116OSM    H2G12157   5.977   5.237   7.000  0.3626 -0.7816  0.4592
  116OSM    C3F12158   6.193   5.209   7.016  0.0998  0.6522 -0.8239
  116OSM    H3F12159   6.266   5.188   6.935  1.5456 -0.1632  0.6652
  116OSM    H3G12160   6.190   5.120   7.081 -1.6315 -0.6551 -2.6598
  116OSM    C4F12161   6.216   5.341   7.076  0.1077 -0.0620 -0.4629
  116OSM    H4F12162   6.125   5.375   7.131  1.9980  2.4122  1.2810
  116OSM    H4G12163   6.252   5.410   6.997  2.3813  1.2657  1.6514
  116OSM    C5F12164   6.325   5.345   7.185  0.1495  0.0257  0.2274
  116OSM    H5F12165   6.349   5.449   7.215 -0.0541 -0.0070  0.5056
  116OSM    H5G12166   6.423   5.306   7.148  0.2130 -1.2293  1.6745
  116OSM    C6F12167   6.287   5.282   7.321 -0.1017 -0.4490 -0.3197
  116OSM    H6F12168   6.300   5.172   7.334  0.2498 -0.1752  1.8273
  116OSM    H6G12169   6.182   5.303   7.349  0.2088  1.7282 -0.7569
  116OSM    C7F12170   6.376   5.339   7.430  0.2715  0.2074  0.2194
  116OSM    H7F12171   6.364   5.449   7.442  0.2780  0.1002  1.2722
  116OSM    H7G12172   6.481   5.321   7.399  0.2012  0.6604 -0.2983
  116OSM    C8F12173   6.338   5.269   7.563  0.4591  0.7878  1.2443
  116OSM    H8F12174   6.359   5.162   7.543 -0.5105  0.8018  0.0683
  116OSM    H8G12175   6.229   5.281   7.578 -0.4652 -1.5073 -2.8180
  116OSM    C9F12176   6.421   5.328   7.672 -0.5489 -0.1548  0.3396
  116OSM    H9F12177   6.529   5.337   7.652 -1.0888 -0.4020 -2.9017
  116OSM   C10F12178   6.379   5.370   7.787  0.2677 -0.4075  0.4503
  116OSM   H10F12179   6.451   5.421   7.852  0.7809  0.0685 -0.4669
  116OSM   C11F12180   6.232   5.369   7.839  0.6383 -0.2109  0.0778
  116OSM   H11F12181   6.160   5.376   7.755  3.0896 -2.1031 -2.2660
  116OSM   H11G12182   6.219   5.465   7.894 -0.2182 -0.3951  0.1976
  116OSM   C12F12183   6.210   5.239   7.925 -0.2117 -0.3200 -0.4915
  116OSM   H12F12184   6.254   5.147   7.880  1.4460 -1.3959  3.1345
  116OSM   H12G12185   6.102   5.217   7.934 -0.3962  0.9043  0.3838
  116OSM   C13F12186   6.269   5.251   8.064 -0.4168  0.3391 -0.0704
  116OSM   H13F12187   6.232   5.339   8.121 -2.0248  0.9680 -2.0738
  116OSM   H13G12188   6.378   5.268   8.048 -0.3511 -0.2191 -0.2311
  116OSM   C14F12189   6.245   5.119   8.142 -0.0373 -0.1795  0.1660
  116OSM   H14F12190   6.257   5.035   8.070  1.4500  1.7335 -1.8778
  116OSM   H14G12191   6.136   5.117   8.167 -0.3632 -0.7574 -1.2805
  116OSM   C15F12192   6.335   5.101   8.268  0.3143 -0.1691 -0.4824
  116OSM   H15F12193   6.443   5.112   8.241  1.0839 -0.0207  2.4862
  116OSM   H15G12194   6.332   4.992   8.293  0.6467 -0.1909 -0.5340
  116OSM   C16F12195   6.301   5.190   8.386 -0.0277  0.5065 -0.2985
  116OSM   H16F12196   6.199   5.168   8.426 -0.3765  0.3802 -1.2513
  116OSM   H16G12197   6.311   5.295   8.352  0.6617  0.7613  0.6524
  116OSM   C17F12198   6.390   5.146   8.511 -0.4382  0.2845 -0.2882
  116OSM   H17F12199   6.496   5.154   8.480 -0.0086  0.5097  1.1829
  116OSM   H17G12200   6.366   5.039   8.527  4.9595 -0.9962  0.1966
  116OSM   C18F12201   6.372   5.230   8.639 -0.2498  0.0994  0.5819
  116OSM   H18F12202   6.265   5.252   8.657 -0.1212  0.5401  0.8097
  116OSM   H18G12203   6.420   5.330   8.631  1.0326 -0.4318  1.4907
  116OSM   H18H12204   6.408   5.171   8.726 -4.6109  0.4189  2.7067
  117OSM      N12205   3.514   1.096   6.539 -0.3290 -0.0267 -0.1005
  117OSM    C1512206   3.448   1.125   6.408  0.1862  0.5962  0.1475
  117OSM   H15A12207   3.449   1.233   6.396  2.3068  0.7632  1.5519
  117OSM   H15B12208   3.343   1.103   6.407  1.0673 -4.1058 -0.6994
  117OSM   H15C12209   3.495   1.081   6.321 -1.9158  1.2658 -1.3797
  117OSM    C1412210   3.439   1.178   6.641 -0.0281 -0.1339 -0.3243
  117OSM   H14A12211   3.442   1.284   6.621  0.0542  0.1599  1.1809
  117OSM   H14B12212   3.478   1.155   6.740  0.6517 -1.0046 -0.7854
  117OSM   H14C12213   3.338   1.142   6.625 -0.5580  1.0964  0.1776
  117OSM    C1312214   3.489   0.950   6.569  0.4732  0.0667 -0.0573
  117OSM   H13A12215   3.556   0.898   6.502  1.4261 -1.4689  1.9938
  117OSM   H13B12216   3.385   0.924   6.566  0.3087  0.8325 -1.3262
  117OSM   H13C12217   3.531   0.919   6.664  0.9399  0.7889 -0.0199
  117OSM    C1212218   3.664   1.128   6.536 -0.2120 -0.9716  0.1799
  117OSM   H12A12219   3.713   1.089   6.624  1.7146 -2.2210 -1.3725
  117OSM   H12B12220   3.687   1.233   6.539  0.8474 -1.2081  0.7300
  117OSM    C1112221   3.749   1.079   6.419  0.2590  0.0108  0.7417
  117OSM   H11A12222   3.857   1.101   6.436  0.6754 -0.4703 -1.1566
  117OSM   H11B12223   3.713   1.136   6.331 -0.5821 -2.5603 -0.6281
  117OSM      P12224   3.755   0.847   6.275  0.1183  0.0805 -0.3510
  117OSM    O1312225   3.624   0.787   6.230  0.1211  0.8094  0.3324
  117OSM    O1412226   3.836   0.915   6.173  0.3871  0.6368 -0.2637
  117OSM    O1112227   3.841   0.734   6.336  0.0075 -0.1513 -0.5722
  117OSM    O1212228   3.734   0.939   6.402  0.5796 -0.4846  0.8988
  117OSM    C1S12229   3.957   0.755   6.419  0.0096  0.4068 -0.0864
  117OSM    H1S12230   3.939   0.818   6.509 -0.5782  0.1113  0.0034
  117OSM    H1T12231   4.038   0.806   6.362 -0.5466 -0.9163 -2.1023
  117OSM     NF12232   4.107   0.630   6.580 -0.4049  0.6191 -0.3679
  117OSM    HNF12233   4.203   0.612   6.560 -0.2042  0.2396  0.8810
  117OSM    C2S12234   4.009   0.620   6.471  0.7934  0.3799  0.2375
  117OSM    H2S12235   3.922   0.565   6.514  1.3662 -0.0468  0.8598
  117OSM    C3S12236   4.063   0.535   6.352 -0.0584  0.0521 -1.2087
  117OSM    H3S12237   4.136   0.592   6.290 -0.9019  2.7348  0.1969
  117OSM     O312238   3.962   0.497   6.254 -0.2808  0.3434 -0.1268
  117OSM    HO312239   3.884   0.550   6.271 -0.5014  0.1971 -0.6706
  117OSM    C4S12240   4.127   0.413   6.407 -0.0768  0.0350 -0.4316
  117OSM    H4S12241   4.234   0.437   6.418 -0.5330  2.4399 -0.8367
  117OSM    C5S12242   4.072   0.293   6.437 -0.0737  0.2422  0.1090
  117OSM    H5S12243   3.963   0.296   6.418  0.0102  0.2995 -0.3773
  117OSM    C6S12244   4.150   0.168   6.473 -0.1817  0.0496 -0.3584
  117OSM    H6S12245   4.137   0.103   6.384 -2.1982  0.7605 -0.6053
  117OSM    H6T12246   4.093   0.108   6.548  0.4506 -0.4498 -0.2717
  117OSM    C7S12247   4.303   0.183   6.503  0.6630  0.0749 -0.4092
  117OSM    H7S12248   4.350   0.225   6.412  2.1893 -1.3280 -0.3004
  117OSM    H7T12249   4.348   0.081   6.507  0.1121 -0.2265 -1.6689
  117OSM    C8S12250   4.333   0.253   6.638 -0.0214  0.3056 -0.2921
  117OSM    H8S12251   4.255   0.223   6.711  1.2621 -0.0929  0.9341
  117OSM    H8T12252   4.329   0.362   6.613  1.5973  0.2537 -0.8535
  117OSM    C9S12253   4.471   0.212   6.688 -0.3349  0.8185  0.2569
  117OSM    H9S12254   4.549   0.220   6.609  0.0047  0.8035  0.5828
  117OSM    H9T12255   4.460   0.106   6.720  1.3362  0.6489  0.3300
  117OSM   C10S12256   4.504   0.289   6.814  0.2388  0.2579 -1.0554
  117OSM   H10S12257   4.486   0.398   6.799  1.9288  1.0050  1.9317
  117OSM   H10T12258   4.610   0.270   6.842 -0.2356 -0.5342  0.2324
  117OSM   C11S12259   4.416   0.249   6.932  0.8082 -0.2208  0.2774
  117OSM   H11S12260   4.420   0.138   6.930  0.1133 -0.2703  1.2275
  117OSM   H11T12261   4.307   0.266   6.924  0.8679  0.4766  0.9260
  117OSM   C12S12262   4.472   0.306   7.060  0.3494 -0.6386  0.3501
  117OSM   H12S12263   4.456   0.416   7.059 -1.0728 -0.8312  0.0025
  117OSM   H12T12264   4.579   0.281   7.075  0.1883 -2.3257 -1.1119
  117OSM   C13S12265   4.389   0.262   7.186  0.5275  0.1432  0.0871
  117OSM   H13S12266   4.347   0.163   7.158  0.9806  0.4820 -1.8264
  117OSM   H13T12267   4.298   0.327   7.189  0.5518  0.1531  0.5876
  117OSM   C14S12268   4.467   0.257   7.320 -0.4798  0.4357 -0.1330
  117OSM   H14S12269   4.548   0.182   7.333  0.0670  0.8461 -1.1163
  117OSM   H14T12270   4.390   0.226   7.393 -1.2383  2.6042  0.0176
  117OSM   C15S12271   4.516   0.399   7.371 -0.5695  1.1395  0.1250
  117OSM   H15S12272   4.429   0.466   7.387 -0.9133  0.4720  1.1170
  117OSM   H15T12273   4.593   0.442   7.304  1.2889 -0.3475  1.2214
  117OSM   C16S12274   4.568   0.391   7.520  0.7388  0.6179  0.3013
  117OSM   H16S12275   4.656   0.323   7.523  0.3662  0.0196 -1.6432
  117OSM   H16T12276   4.488   0.353   7.586 -0.2943  0.3650 -1.0939
  117OSM   C17S12277   4.607   0.524   7.591 -0.2655  0.5250  1.1053
  117OSM   H17S12278   4.521   0.592   7.574 -0.1961  0.5491  0.8550
  117OSM   H17T12279   4.693   0.573   7.541 -0.0791 -1.6009 -0.6809
  117OSM   C18S12280   4.637   0.514   7.742  0.2954 -0.0087  0.1789
  117OSM   H18S12281   4.666   0.615   7.778  1.4441 -0.1766 -0.2559
  117OSM   H18T12282   4.713   0.438   7.771 -0.1850 -0.1446  1.1013
  117OSM   H18U12283   4.546   0.498   7.803  2.3547 -0.3988  3.2339
  117OSM    C1F12284   4.075   0.669   6.707  0.5338  0.9306 -0.4542
  117OSM     OF12285   3.961   0.716   6.721 -0.4180  0.2377  0.0020
  117OSM    C2F12286   4.189   0.660   6.809 -0.5819  0.0801  0.5177
  117OSM    H2F12287   4.278   0.719   6.778 -1.0994 -0.2539 -1.7484
  117OSM    H2G12288   4.225   0.558   6.781 -0.4578  0.5365 -1.0559
  117OSM    C3F12289   4.152   0.689   6.957 -0.0376 -0.6434 -0.0473
  117OSM    H3F12290   4.086   0.602   6.978 -0.4571 -0.5381 -0.9158
  117OSM    H3G12291   4.096   0.784   6.970  2.1769  0.5632  0.9992
  117OSM    C4F12292   4.266   0.691   7.060  0.4886 -0.1289  0.1335
  117OSM    H4F12293   4.344   0.764   7.029  1.7188 -1.8578 -0.8970
  117OSM    H4G12294   4.312   0.590   7.063  0.2516 -0.2184  0.8326
  117OSM    C5F12295   4.216   0.726   7.202 -1.0728  0.1806  0.2739
  117OSM    H5F12296   4.142   0.653   7.242 -0.5109 -0.0006  0.9923
  117OSM    H5G12297   4.173   0.828   7.215 -0.5602  0.4125  0.1512
  117OSM    C6F12298   4.324   0.732   7.322 -0.1759 -0.3236  0.2108
  117OSM    H6F12299   4.395   0.812   7.290  0.1586 -1.7560 -2.8266
  117OSM    H6G12300   4.387   0.641   7.317 -0.9777 -0.8562 -0.3550
  117OSM    C7F12301   4.271   0.763   7.462  0.0924 -0.1225 -0.2529
  117OSM    H7F12302   4.342   0.782   7.545 -0.3287  2.6072 -0.4809
  117OSM    H7G12303   4.216   0.670   7.488 -1.1329  0.4787 -0.6954
  117OSM    C8F12304   4.179   0.887   7.480  0.1386  0.2417 -0.6045
  117OSM    H8F12305   4.096   0.884   7.407  1.2103 -0.6085 -1.8191
  117OSM    H8G12306   4.237   0.981   7.464  1.2041 -0.5132 -1.2507
  117OSM    C9F12307   4.122   0.904   7.611 -0.0782  0.4860 -1.0800
  117OSM    H9F12308   4.113   0.812   7.672 -0.5636  2.8491  2.5863
  117OSM   C10F12309   4.118   1.019   7.681  0.6308  0.4190 -0.0098
  117OSM   H10F12310   4.080   1.025   7.784  0.6442  2.7210 -0.1143
  117OSM   C11F12311   4.155   1.155   7.640  0.0008  0.2086 -0.1978
  117OSM   H11F12312   4.081   1.225   7.683 -0.6593 -0.1156 -0.8003
  117OSM   H11G12313   4.135   1.172   7.532 -0.4285 -0.4713 -0.2292
  117OSM   C12F12314   4.290   1.210   7.690  0.0061 -0.1948 -0.0163
  117OSM   H12F12315   4.295   1.302   7.627  0.4818 -0.5520 -0.5052
  117OSM   H12G12316   4.375   1.145   7.659  0.7833  0.1482  1.3623
  117OSM   C13F12317   4.298   1.247   7.839 -0.0157 -0.2947  0.1084
  117OSM   H13F12318   4.314   1.152   7.894  2.2550 -0.0777 -0.1178
  117OSM   H13G12319   4.203   1.295   7.870 -1.4039 -1.2596 -2.4822
  117OSM   C14F12320   4.416   1.346   7.871 -0.1171  0.6471 -0.5699
  117OSM   H14F12321   4.439   1.414   7.786  0.5308 -1.4313 -2.0998
  117OSM   H14G12322   4.501   1.276   7.889 -0.2620  0.8424  0.9142
  117OSM   C15F12323   4.410   1.430   7.998 -0.2160  0.0724  0.6544
  117OSM   H15F12324   4.352   1.523   7.987 -0.3966 -0.3251 -1.9369
  117OSM   H15G12325   4.514   1.462   8.022  0.0377 -0.5550  0.4150
  117OSM   C16F12326   4.347   1.352   8.117  0.4286  0.4303  0.1049
  117OSM   H16F12327   4.261   1.288   8.088  1.0737 -0.3570 -0.1038
  117OSM   H16G12328   4.303   1.421   8.192  0.3375  1.0485 -0.5202
  117OSM   C17F12329   4.450   1.269   8.191  0.2336 -0.4871 -0.1661
  117OSM   H17F12330   4.453   1.172   8.138  1.1811  0.5440 -2.0840
  117OSM   H17G12331   4.555   1.305   8.182  0.3396 -0.3706  1.3833
  117OSM   C18F12332   4.416   1.255   8.343  0.0362  0.5272  0.1379
  117OSM   H18F12333   4.412   1.359   8.383  0.6176  0.8841 -0.6848
  117OSM   H18G12334   4.497   1.202   8.397 -0.7108 -1.5447 -0.7494
  117OSM   H18H12335   4.316   1.213   8.364  0.2409  0.2581  0.5661
  118OSM      N12336   0.364   2.843   6.074 -0.1598 -0.3696  0.5547
  118OSM    C1512337   0.216   2.827   6.071  0.1542  0.6001 -1.0346
  118OSM   H15A12338   0.180   2.856   6.169  0.3041  0.7692 -1.0292
  118OSM   H15B12339   0.204   2.721   6.057 -1.8594  0.8709 -1.5077
  118OSM   H15C12340   0.159   2.873   5.992 -0.1173  1.0262 -0.5974
  118OSM    C1412341   0.425   2.793   5.945 -0.5556 -0.2526 -0.0114
  118OSM   H14A12342   0.376   2.848   5.866  1.1355  1.0430 -0.1773
  118OSM   H14B12343   0.421   2.686   5.927 -1.7886  0.0855 -1.9092
  118OSM   H14C12344   0.529   2.820   5.948 -0.0857 -1.9560 -0.3930
  118OSM    C1312345   0.379   2.993   6.087 -0.3855  0.6299  0.2994
  118OSM   H13A12346   0.484   3.020   6.094  0.0360 -0.6978 -0.6853
  118OSM   H13B12347   0.334   3.023   6.181 -1.0738  2.2468 -0.5346
  118OSM   H13C12348   0.328   3.049   6.011  0.5571 -1.4114 -1.8929
  118OSM    C1212349   0.437   2.767   6.183 -0.0565  0.1324 -0.3937
  118OSM   H12A12350   0.543   2.766   6.162 -0.1560  1.9880 -1.0953
  118OSM   H12B12351   0.393   2.668   6.179 -0.9680  0.5339 -0.4939
  118OSM    C1112352   0.412   2.796   6.330  0.8726  0.7805  0.2266
  118OSM   H11A12353   0.443   2.901   6.351  1.4916  0.7965 -0.7402
  118OSM   H11B12354   0.470   2.727   6.395 -0.7389  1.3989  2.3915
  118OSM      P12355   0.211   2.647   6.384 -0.1152 -0.3014  0.3435
  118OSM    O1312356   0.073   2.657   6.334 -0.2174  0.0213 -0.5836
  118OSM    O1412357   0.295   2.532   6.333 -0.2694 -0.1404 -0.1674
  118OSM    O1112358   0.213   2.635   6.548  0.4176 -0.7404  0.4699
  118OSM    O1212359   0.279   2.791   6.364 -0.1430 -0.4063  0.0999
  118OSM    C1S12360   0.322   2.599   6.616  0.2723  0.1941 -0.9937
  118OSM    H1S12361   0.416   2.591   6.557  1.1917  0.5149  0.3829
  118OSM    H1T12362   0.311   2.495   6.651  1.1466  0.9954  1.8162
  118OSM     NF12363   0.466   2.624   6.814  0.4529 -0.0822 -0.1285
  118OSM    HNF12364   0.465   2.578   6.902  0.1228 -1.8230 -1.0172
  118OSM    C2S12365   0.345   2.680   6.754  0.2891  0.3542  0.4618
  118OSM    H2S12366   0.354   2.787   6.724  1.8822 -0.1241 -0.8562
  118OSM    C3S12367   0.216   2.669   6.840 -0.6729  0.0994 -0.0407
  118OSM    H3S12368   0.208   2.560   6.861 -0.4179  0.1681  0.4199
  118OSM     O312369   0.098   2.709   6.774  0.2140  0.1716  0.1262
  118OSM    HO312370   0.125   2.701   6.682  1.1844 -1.1518  0.5007
  118OSM    C4S12371   0.242   2.751   6.965 -0.1339  0.2233  1.1548
  118OSM    H4S12372   0.306   2.692   7.030 -1.5241 -2.3234  0.2825
  118OSM    C5S12373   0.225   2.883   6.987 -1.4132 -0.9427  0.5629
  118OSM    H5S12374   0.186   2.944   6.904 -0.5257  0.1276  0.9197
  118OSM    C6S12375   0.263   2.957   7.118  0.5410 -0.1687  0.5502
  118OSM    H6S12376   0.208   3.053   7.132 -0.9562 -0.5824 -2.0788
  118OSM    H6T12377   0.367   2.994   7.104  0.2973 -0.1951 -1.5308
  118OSM    C7S12378   0.243   2.858   7.237 -0.6339  0.5037 -0.3587
  118OSM    H7S12379   0.301   2.764   7.220  2.5614  2.2599  0.4153
  118OSM    H7T12380   0.137   2.832   7.257  0.5837 -3.2919  1.6818
  118OSM    C8S12381   0.279   2.932   7.361 -0.0050 -0.3251 -0.3238
  118OSM    H8S12382   0.189   2.996   7.381  0.5002 -0.2277  1.7938
  118OSM    H8T12383   0.367   2.999   7.357 -1.0425  0.9533 -2.2684
  118OSM    C9S12384   0.285   2.850   7.496 -0.0598  0.0110  0.5462
  118OSM    H9S12385   0.388   2.809   7.495 -0.7153 -1.6995 -0.2391
  118OSM    H9T12386   0.212   2.768   7.478  0.3568 -0.0213 -1.1268
  118OSM   C10S12387   0.259   2.943   7.618  0.6911 -0.2242 -0.2175
  118OSM   H10S12388   0.153   2.974   7.626 -0.0678 -2.7585  0.0307
  118OSM   H10T12389   0.323   3.034   7.619  0.6653 -0.1809 -1.2982
  118OSM   C11S12390   0.296   2.857   7.742  0.4125 -0.4545  0.4433
  118OSM   H11S12391   0.400   2.818   7.740  0.9425  0.9010  0.6635
  118OSM   H11T12392   0.232   2.767   7.753  1.4473 -1.2513 -0.0613
  118OSM   C12S12393   0.273   2.928   7.873 -0.1599  0.1528 -0.1211
  118OSM   H12S12394   0.167   2.962   7.872 -0.1449  0.1718 -0.9658
  118OSM   H12T12395   0.345   3.012   7.879  0.9909 -0.9107  1.3621
  118OSM   C13S12396   0.284   2.831   7.990 -0.4631  0.2561 -0.3711
  118OSM   H13S12397   0.366   2.755   7.983 -0.7896 -0.0954 -0.3994
  118OSM   H13T12398   0.202   2.756   7.985  1.2657 -1.6879 -0.2149
  118OSM   C14S12399   0.277   2.909   8.123  0.6115 -0.1928  0.3951
  118OSM   H14S12400   0.176   2.956   8.121 -0.0799 -1.5928  1.4728
  118OSM   H14T12401   0.352   2.991   8.123  0.5062 -0.0504 -1.9958
  118OSM   C15S12402   0.298   2.823   8.246  0.4090  0.3756  0.3785
  118OSM   H15S12403   0.399   2.777   8.238 -0.5180 -1.5768 -0.6403
  118OSM   H15T12404   0.228   2.736   8.249  1.3605 -0.3817  0.7987
  118OSM   C16S12405   0.269   2.894   8.371 -0.1034  0.0339  0.2696
  118OSM   H16S12406   0.271   2.828   8.461 -0.9101  1.1389  1.1095
  118OSM   H16T12407   0.164   2.930   8.371 -0.1306 -0.0471  0.0187
  118OSM   C17S12408   0.360   3.018   8.393  0.0542 -0.3825  0.0966
  118OSM   H17S12409   0.331   3.089   8.313  0.9359 -0.4619 -0.3019
  118OSM   H17T12410   0.463   2.980   8.374  0.0815  0.2624 -1.1266
  118OSM   C18S12411   0.362   3.084   8.532  0.5485 -0.4576 -0.1180
  118OSM   H18S12412   0.257   3.101   8.566  0.5146  1.4222 -1.0485
  118OSM   H18T12413   0.421   3.177   8.521 -1.6968  0.9410 -0.8742
  118OSM   H18U12414   0.402   3.024   8.615  0.1075 -0.8982 -0.2229
  118OSM    C1F12415   0.587   2.662   6.770 -0.5031  0.3708  0.7156
  118OSM     OF12416   0.600   2.717   6.664  0.7134  0.6776  0.0957
  118OSM    C2F12417   0.708   2.634   6.851 -0.5394  0.2350 -0.2230
  118OSM    H2F12418   0.679   2.551   6.919  2.0698 -1.0450 -0.6047
  118OSM    H2G12419   0.728   2.721   6.917 -1.6231  0.3325 -0.0224
  118OSM    C3F12420   0.838   2.597   6.772  0.8676 -0.1266 -0.0409
  118OSM    H3F12421   0.821   2.528   6.686 -0.2601  0.8072 -0.5890
  118OSM    H3G12422   0.894   2.539   6.848  1.7491  1.5786  0.6377
  118OSM    C4F12423   0.921   2.722   6.730 -0.7035 -0.2370 -0.4917
  118OSM    H4F12424   0.902   2.809   6.796 -2.6932 -1.7073  0.9393
  118OSM    H4G12425   0.882   2.754   6.631  0.7932  0.8303 -0.7563
  118OSM    C5F12426   1.067   2.696   6.722 -0.5278 -0.0102 -0.5939
  118OSM    H5F12427   1.118   2.776   6.665  1.3628 -1.2948 -0.7511
  118OSM    H5G12428   1.080   2.613   6.650 -2.7918  2.1239 -3.6133
  118OSM    C6F12429   1.129   2.678   6.859  0.7409 -0.7897 -0.3998
  118OSM    H6F12430   1.086   2.596   6.921 -2.2850  1.4755  0.6241
  118OSM    H6G12431   1.107   2.777   6.904  1.2745 -0.3180 -1.1886
  118OSM    C7F12432   1.282   2.648   6.838  0.0809 -0.1439  0.6808
  118OSM    H7F12433   1.328   2.724   6.773 -3.3075  2.6224  1.3755
  118OSM    H7G12434   1.283   2.544   6.799  0.9616  0.3291 -0.5815
  118OSM    C8F12435   1.349   2.662   6.973 -0.5177 -0.2864 -0.5754
  118OSM    H8F12436   1.311   2.754   7.021 -0.2204 -0.9362  0.9455
  118OSM    H8G12437   1.458   2.685   6.963 -0.5582  0.1680  0.0492
  118OSM    C9F12438   1.322   2.550   7.063  0.0302  0.2659 -0.9952
  118OSM    H9F12439   1.267   2.461   7.029 -1.4903  0.7042  0.2576
  118OSM   C10F12440   1.344   2.562   7.194  0.5736  0.3493  0.2759
  118OSM   H10F12441   1.319   2.478   7.260  0.5578 -0.8674 -1.2687
  118OSM   C11F12442   1.399   2.680   7.271 -0.1672  0.0110  0.2420
  118OSM   H11F12443   1.310   2.747   7.279 -0.4148 -0.2276 -0.4765
  118OSM   H11G12444   1.480   2.728   7.213 -1.9386  0.2080 -2.1712
  118OSM   C12F12445   1.448   2.644   7.408  0.2103  0.3805 -0.1543
  118OSM   H12F12446   1.545   2.590   7.404  0.1961  0.3315  0.1010
  118OSM   H12G12447   1.375   2.577   7.459  1.9213  0.3697  2.3445
  118OSM   C13F12448   1.444   2.771   7.497 -0.3225 -0.6491  0.2121
  118OSM   H13F12449   1.338   2.800   7.487 -0.0124  0.2108 -0.6016
  118OSM   H13G12450   1.506   2.847   7.445 -0.2814  0.2751  1.5911
  118OSM   C14F12451   1.490   2.757   7.651 -0.7198  0.1715  0.5178
  118OSM   H14F12452   1.594   2.718   7.649 -1.2617 -1.3122  1.0039
  118OSM   H14G12453   1.426   2.676   7.692 -0.7097  1.0913  2.4142
  118OSM   C15F12454   1.482   2.873   7.751 -0.6340 -0.8009 -0.1815
  118OSM   H15F12455   1.500   2.966   7.692 -0.7215 -0.3733  0.4569
  118OSM   H15G12456   1.570   2.863   7.818  0.3383 -0.3045 -1.3568
  118OSM   C16F12457   1.352   2.889   7.827  0.5223  0.5640  0.4684
  118OSM   H16F12458   1.360   2.806   7.901  2.0556  1.2444  1.0870
  118OSM   H16G12459   1.259   2.877   7.767  1.6482 -0.6904 -1.0673
  118OSM   C17F12460   1.343   3.017   7.908 -0.3668  0.1248  0.2392
  118OSM   H17F12461   1.341   3.107   7.843 -0.9668 -0.6151 -0.7789
  118OSM   H17G12462   1.437   3.026   7.966 -0.0467 -1.6292  0.0233
  118OSM   C18F12463   1.234   3.022   8.021  0.0706  0.0814  0.0036
  118OSM   H18F12464   1.134   2.993   7.983  0.1481  0.2420 -0.3320
  118OSM   H18G12465   1.238   3.126   8.061 -0.6197  0.2192 -0.2804
  118OSM   H18H12466   1.260   2.954   8.104  2.2465 -0.8239 -1.3835
  119OSM      N12467   2.005   1.517   5.744  0.0981  0.2416  0.3980
  119OSM    C1512468   2.079   1.472   5.628  0.8271 -0.2113  0.2199
  119OSM   H15A12469   2.140   1.546   5.578 -2.5322  0.8929 -2.5324
  119OSM   H15B12470   2.013   1.452   5.545  0.5145  0.1071  0.3870
  119OSM   H15C12471   2.128   1.377   5.638 -0.5677 -0.9314  0.3125
  119OSM    C1412472   1.907   1.636   5.710  0.3696  0.5471 -0.2221
  119OSM   H14A12473   1.866   1.665   5.806 -1.7264  0.4100 -1.0520
  119OSM   H14B12474   1.820   1.610   5.652  0.2267 -1.9167  1.0275
  119OSM   H14C12475   1.959   1.719   5.665 -1.6873  1.3621 -1.1604
  119OSM    C1312476   1.924   1.407   5.803 -0.1364 -0.5651  0.0486
  119OSM   H13A12477   1.868   1.446   5.887 -0.7123 -0.3988 -0.4073
  119OSM   H13B12478   1.988   1.330   5.843 -1.9388 -2.1083 -0.0287
  119OSM   H13C12479   1.857   1.361   5.732  0.5364 -1.2344 -0.1671
  119OSM    C1212480   2.107   1.573   5.843  0.3039 -0.0895  0.2060
  119OSM   H12A12481   2.171   1.650   5.803  0.4173 -0.1686  0.2370
  119OSM   H12B12482   2.176   1.496   5.872  2.7676  0.9301 -2.6794
  119OSM    C1112483   2.063   1.638   5.972 -0.1737  0.2038 -0.0054
  119OSM   H11A12484   2.144   1.649   6.047 -0.8406  2.6583  0.3912
  119OSM   H11B12485   1.996   1.564   6.020 -0.9520  0.3595 -0.8300
  119OSM      P12486   2.091   1.895   5.913 -0.2984  0.4981  0.5572
  119OSM    O1312487   2.218   1.842   5.853  0.0170 -0.3956 -0.0293
  119OSM    O1412488   2.009   1.990   5.833  0.4703 -0.0516  0.1938
  119OSM    O1112489   2.123   1.965   6.043  0.1251  1.0478  0.3391
  119OSM    O1212490   2.003   1.770   5.949  0.7511 -0.6005 -0.5251
  119OSM    C1S12491   2.046   1.924   6.159 -0.7799 -0.1624 -0.6979
  119OSM    H1S12492   2.062   1.818   6.188 -5.4743 -0.1153  2.5735
  119OSM    H1T12493   1.936   1.930   6.145 -1.0312 -0.9961  0.8971
  119OSM     NF12494   1.998   1.980   6.385 -0.2919 -0.3793 -0.4511
  119OSM    HNF12495   1.906   2.017   6.377  0.0349  0.6195  0.2955
  119OSM    C2S12496   2.091   2.014   6.277 -0.6253 -0.1946 -0.2321
  119OSM    H2S12497   2.192   1.980   6.307 -1.0406 -3.2049 -2.0035
  119OSM    C3S12498   2.087   2.162   6.249 -0.2397 -0.0767  0.3808
  119OSM    H3S12499   1.988   2.188   6.207 -0.6912 -2.4307 -0.1128
  119OSM     O312500   2.195   2.195   6.162  0.5820 -0.0105  0.5891
  119OSM    HO312501   2.233   2.110   6.139  1.7590  1.6409 -4.3228
  119OSM    C4S12502   2.102   2.248   6.377  0.1116  0.2715 -0.4223
  119OSM    H4S12503   2.183   2.210   6.441 -0.3753 -1.2234 -0.6767
  119OSM    C5S12504   2.022   2.343   6.429  0.5406  0.0029  0.0246
  119OSM    H5S12505   1.940   2.385   6.369 -0.6455  0.9357  2.2608
  119OSM    C6S12506   2.044   2.419   6.556  0.8626 -0.1798 -0.3965
  119OSM    H6S12507   2.025   2.526   6.533 -1.8682 -0.5362  0.1139
  119OSM    H6T12508   2.145   2.399   6.598  0.5412 -2.0670 -0.5051
  119OSM    C7S12509   1.953   2.380   6.672 -0.6278 -0.1363  0.1112
  119OSM    H7S12510   1.847   2.399   6.643 -0.6675 -2.0361 -1.0669
  119OSM    H7T12511   1.969   2.457   6.751 -2.0367  0.4582 -0.1623
  119OSM    C8S12512   1.973   2.233   6.723 -0.8015 -0.2068 -0.8394
  119OSM    H8S12513   2.079   2.221   6.755 -1.0909  0.4180  0.3682
  119OSM    H8T12514   1.948   2.164   6.639  0.3959 -0.1250 -1.2748
  119OSM    C9S12515   1.887   2.189   6.846  0.7628  0.2499  0.0794
  119OSM    H9S12516   1.889   2.081   6.871 -4.7485  0.4528  2.2099
  119OSM    H9T12517   1.783   2.208   6.811  0.4513 -3.0586 -0.9898
  119OSM   C10S12518   1.913   2.278   6.970 -0.0288 -0.1672  0.4210
  119OSM   H10S12519   1.911   2.388   6.955  3.6060 -0.0320  0.3556
  119OSM   H10T12520   2.020   2.264   6.996 -0.2808 -0.1766  1.4877
  119OSM   C11S12521   1.832   2.251   7.094 -0.3033 -0.5002 -0.5837
  119OSM   H11S12522   1.881   2.307   7.176 -1.0511  0.6211 -0.8855
  119OSM   H11T12523   1.849   2.143   7.116 -2.5739 -1.0538 -1.4040
  119OSM   C12S12524   1.681   2.284   7.078 -0.8100 -0.4697  0.3616
  119OSM   H12S12525   1.648   2.225   6.990 -1.4075 -1.4650  1.2482
  119OSM   H12T12526   1.674   2.393   7.060 -0.1282 -0.4248  0.3268
  119OSM   C13S12527   1.597   2.246   7.200 -0.3895  0.1211 -0.0642
  119OSM   H13S12528   1.569   2.138   7.202 -1.4805  0.2801 -3.7249
  119OSM   H13T12529   1.507   2.306   7.177 -0.6846  0.0204  0.8281
  119OSM   C14S12530   1.657   2.286   7.333  0.0927  0.2438 -0.4433
  119OSM   H14S12531   1.674   2.395   7.318  1.7241 -0.3504 -3.3036
  119OSM   H14T12532   1.752   2.235   7.361 -1.0436 -0.6603  1.9388
  119OSM   C15S12533   1.553   2.282   7.448 -0.4389 -0.0316  0.3641
  119OSM   H15S12534   1.507   2.181   7.460 -1.1884  0.1891 -0.5772
  119OSM   H15T12535   1.461   2.336   7.419  1.5619  2.3800 -1.7449
  119OSM   C16S12536   1.606   2.319   7.582 -0.1251  0.0841 -0.5687
  119OSM   H16S12537   1.658   2.415   7.565  0.3738 -0.4057 -1.8917
  119OSM   H16T12538   1.676   2.240   7.616  0.6725  0.9878 -0.1140
  119OSM   C17S12539   1.504   2.338   7.691 -0.0043 -0.6795  0.5714
  119OSM   H17S12540   1.444   2.244   7.701  1.9744 -2.0417 -0.0672
  119OSM   H17T12541   1.439   2.417   7.648  1.0007  0.4231  1.0813
  119OSM   C18S12542   1.571   2.373   7.828 -0.3566 -0.0593 -0.3679
  119OSM   H18S12543   1.647   2.454   7.824  0.0746 -0.4307  0.1184
  119OSM   H18T12544   1.618   2.275   7.854  0.2859 -0.2621 -2.2386
  119OSM   H18U12545   1.505   2.409   7.909  1.0508  2.4243 -0.2648
  119OSM    C1F12546   2.019   1.889   6.476  0.2322  0.3039  0.0919
  119OSM     OF12547   2.114   1.812   6.465 -0.2931  0.0622  0.2332
  119OSM    C2F12548   1.909   1.874   6.576 -0.3103 -0.0132  0.5525
  119OSM    H2F12549   1.823   1.815   6.539 -0.5715  1.2787 -0.9776
  119OSM    H2G12550   1.859   1.969   6.605  0.0190  0.2041  0.4230
  119OSM    C3F12551   1.961   1.807   6.707  0.2311  1.0829 -0.1999
  119OSM    H3F12552   2.048   1.866   6.742  1.0719 -0.1870 -0.1306
  119OSM    H3G12553   2.003   1.707   6.682  0.8805  1.2148  0.3390
  119OSM    C4F12554   1.837   1.799   6.799 -0.5317 -0.1091  0.0330
  119OSM    H4F12555   1.767   1.719   6.766  0.5108 -0.5161 -1.2437
  119OSM    H4G12556   1.787   1.897   6.812  1.2524  0.9700 -1.1468
  119OSM    C5F12557   1.877   1.756   6.948  0.1602  0.1756  0.3937
  119OSM    H5F12558   1.937   1.839   6.991 -2.7852  1.5891  1.9930
  119OSM    H5G12559   1.947   1.671   6.935 -0.2037 -0.1681  0.6500
  119OSM    C6F12560   1.751   1.716   7.025 -0.0658 -0.0283  0.4803
  119OSM    H6F12561   1.784   1.676   7.124 -0.7392  0.1669  0.7860
  119OSM    H6G12562   1.707   1.637   6.961 -0.0987  0.5843 -0.2646
  119OSM    C7F12563   1.660   1.833   7.062 -0.1870  0.0080 -0.3574
  119OSM    H7F12564   1.633   1.886   6.968 -2.1622 -1.3060 -0.5595
  119OSM    H7G12565   1.715   1.907   7.124  1.1441 -0.0207 -1.4721
  119OSM    C8F12566   1.528   1.780   7.125  0.2377  0.1750 -0.3344
  119OSM    H8F12567   1.547   1.693   7.191 -0.6595 -0.5205 -0.9743
  119OSM    H8G12568   1.472   1.728   7.044  1.3994 -1.1724 -0.2928
  119OSM    C9F12569   1.449   1.886   7.198 -0.4999  0.2989  0.1564
  119OSM    H9F12570   1.375   1.945   7.141  1.0866  2.1161 -0.0549
  119OSM   C10F12571   1.460   1.908   7.329 -0.0054 -0.0213 -0.3472
  119OSM   H10F12572   1.390   1.979   7.375  0.8461 -0.3662  1.5172
  119OSM   C11F12573   1.549   1.836   7.429 -0.5226  0.1012 -0.1578
  119OSM   H11F12574   1.628   1.907   7.461  0.5001 -1.0242 -0.2106
  119OSM   H11G12575   1.598   1.741   7.400  2.0615  1.3518 -0.0423
  119OSM   C12F12576   1.464   1.812   7.562 -0.1296 -0.6017  0.3798
  119OSM   H12F12577   1.380   1.743   7.541  1.1043 -2.2337  0.7176
  119OSM   H12G12578   1.430   1.909   7.605  0.3680 -0.2944  0.0983
  119OSM   C13F12579   1.561   1.750   7.666 -0.4247  0.0683  0.1611
  119OSM   H13F12580   1.650   1.817   7.674 -0.4503  0.1259 -0.0129
  119OSM   H13G12581   1.588   1.651   7.623 -1.8138  0.5220 -1.8642
  119OSM   C14F12582   1.498   1.727   7.807 -0.6522  0.2760  0.5999
  119OSM   H14F12583   1.426   1.644   7.790 -0.2835  0.2402 -0.8034
  119OSM   H14G12584   1.436   1.816   7.831 -1.3848 -0.2541  0.7149
  119OSM   C15F12585   1.613   1.692   7.900 -0.3559 -0.7011  0.0532
  119OSM   H15F12586   1.677   1.782   7.895  0.8695 -1.6689 -2.1971
  119OSM   H15G12587   1.675   1.608   7.862  0.0893 -0.6353  0.6255
  119OSM   C16F12588   1.572   1.642   8.037 -0.9774  1.3997 -1.0189
  119OSM   H16F12589   1.661   1.588   8.077 -0.9584  1.3566 -1.1195
  119OSM   H16G12590   1.498   1.562   8.013 -0.2104  0.9649 -1.9516
  119OSM   C17F12591   1.523   1.738   8.137  0.0301  0.2360 -1.0812
  119OSM   H17F12592   1.439   1.793   8.090 -0.6885 -1.2802 -1.5940
  119OSM   H17G12593   1.601   1.815   8.153  0.5853 -0.6158  0.4934
  119OSM   C18F12594   1.486   1.663   8.263 -0.2556  0.2194 -0.4452
  119OSM   H18F12595   1.409   1.727   8.311  0.6792  0.9414  0.0819
  119OSM   H18G12596   1.572   1.647   8.330 -1.0092  2.5904  1.1276
  119OSM   H18H12597   1.432   1.568   8.241 -0.2699  0.1524 -0.1100
  120OSM      N12598   5.584   6.436   6.655  0.2017 -0.2234 -0.4215
  120OSM    C1512599   5.693   6.461   6.557 -0.3577  0.6525 -0.1539
  120OSM   H15A12600   5.712   6.363   6.516 -0.0870  0.5157  0.2878
  120OSM   H15B12601   5.787   6.485   6.606 -0.8693  1.3148  0.5024
  120OSM   H15C12602   5.663   6.532   6.482 -2.1645 -0.7650 -0.8086
  120OSM    C1412603   5.578   6.551   6.751 -0.5694  0.7710  0.1075
  120OSM   H14A12604   5.673   6.570   6.799 -1.0922  0.0662  1.4291
  120OSM   H14B12605   5.497   6.536   6.820 -0.5371  0.3954  0.0615
  120OSM   H14C12606   5.565   6.642   6.693 -1.7877  0.0612 -0.7593
  120OSM    C1312607   5.448   6.424   6.583 -0.0773  0.5808  0.0318
  120OSM   H13A12608   5.435   6.340   6.517 -1.5048  0.9835 -0.2146
  120OSM   H13B12609   5.427   6.515   6.528  3.2174  0.1380 -2.1247
  120OSM   H13C12610   5.369   6.409   6.654 -0.2240 -0.0711 -0.2693
  120OSM    C1212611   5.618   6.306   6.729 -0.5099 -0.1367 -0.2290
  120OSM   H12A12612   5.567   6.302   6.824 -0.3754 -2.3439 -0.2337
  120OSM   H12B12613   5.717   6.317   6.771 -1.0630  4.0092  0.2355
  120OSM    C1112614   5.626   6.174   6.648 -0.4922  0.0455 -0.3473
  120OSM   H11A12615   5.521   6.156   6.616 -0.6923  1.3363 -0.4805
  120OSM   H11B12616   5.656   6.091   6.715  1.8607  0.1534 -1.2331
  120OSM      P12617   5.813   6.050   6.517 -0.0062  0.1055 -0.2375
  120OSM    O1312618   5.735   5.932   6.465 -0.2104  0.1739  0.3576
  120OSM    O1412619   5.925   6.105   6.442  0.1530 -0.2178 -0.2628
  120OSM    O1112620   5.867   6.013   6.653 -0.1347  0.3207 -0.2387
  120OSM    O1212621   5.710   6.173   6.535 -0.4807 -0.1439 -0.0606
  120OSM    C1S12622   5.973   6.074   6.727 -0.1164  0.1166 -0.1245
  120OSM    H1S12623   5.962   6.185   6.732  1.6379  0.2925  0.2886
  120OSM    H1T12624   6.072   6.063   6.678 -0.2301  3.7362 -1.3430
  120OSM     NF12625   6.074   6.092   6.953 -0.2411  0.3364 -0.2818
  120OSM    HNF12626   6.159   6.044   6.975 -1.5035 -2.3436 -1.0874
  120OSM    C2S12627   5.981   6.017   6.876 -0.4740 -0.3872 -0.1357
  120OSM    H2S12628   5.878   6.022   6.916 -0.4632 -1.5952  0.0806
  120OSM    C3S12629   6.029   5.869   6.878 -0.4428  0.0461  0.8195
  120OSM    H3S12630   6.129   5.865   6.830 -0.8082  0.5643  0.0079
  120OSM     O312631   5.939   5.783   6.805 -0.0946 -0.1007  0.1269
  120OSM    HO312632   5.868   5.844   6.784  0.5554  0.7104  0.2575
  120OSM    C4S12633   6.028   5.819   7.016 -1.1632 -0.1523 -0.1899
  120OSM    H4S12634   5.928   5.803   7.057 -0.4297 -1.7581  1.0105
  120OSM    C5S12635   6.130   5.765   7.085 -0.4407  0.2924 -0.3245
  120OSM    H5S12636   6.225   5.761   7.030  0.0988 -0.6691  0.6681
  120OSM    C6S12637   6.129   5.699   7.223 -0.4707  0.2444  0.9816
  120OSM    H6S12638   6.180   5.600   7.231  0.5019  0.4321 -2.3303
  120OSM    H6T12639   6.026   5.688   7.262 -0.8393  0.2934  0.0138
  120OSM    C7S12640   6.202   5.800   7.317 -0.2022 -0.1971  0.5361
  120OSM    H7S12641   6.140   5.892   7.310 -2.7220 -1.9552 -1.2987
  120OSM    H7T12642   6.302   5.826   7.276  0.1171  0.1577  1.5197
  120OSM    C8S12643   6.203   5.734   7.454  0.4281  0.3225  0.0611
  120OSM    H8S12644   6.269   5.644   7.454  0.9288  0.6470  3.0956
  120OSM    H8T12645   6.099   5.698   7.470  0.9115 -1.9984 -1.7772
  120OSM    C9S12646   6.254   5.804   7.577 -0.3998 -0.4018  0.4292
  120OSM    H9S12647   6.201   5.901   7.586  0.0879 -0.1391  0.4368
  120OSM    H9T12648   6.361   5.828   7.562  0.2842 -2.3339  1.9963
  120OSM   C10S12649   6.231   5.726   7.704  0.0429 -0.0115 -0.1622
  120OSM   H10S12650   6.296   5.636   7.712  2.0486  1.5658  1.8935
  120OSM   H10T12651   6.126   5.688   7.702  0.2335 -0.5297 -0.3242
  120OSM   C11S12652   6.251   5.815   7.830 -0.2673  0.4609  0.4062
  120OSM   H11S12653   6.184   5.903   7.817  0.9981  1.3702 -0.0389
  120OSM   H11T12654   6.350   5.863   7.813 -0.9259  1.5017 -0.5815
  120OSM   C12S12655   6.240   5.753   7.974  0.2971 -0.0719  0.1013
  120OSM   H12S12656   6.286   5.820   8.048 -3.6950  0.5070  2.1805
  120OSM   H12T12657   6.291   5.654   7.974 -1.1297 -0.8168 -0.4113
  120OSM   C13S12658   6.097   5.722   8.021 -0.3898  0.4607  0.0619
  120OSM   H13S12659   6.039   5.682   7.935 -1.4130 -0.2163  1.0637
  120OSM   H13T12660   6.039   5.815   8.043  0.8242  0.8135  1.8004
  120OSM   C14S12661   6.093   5.622   8.139  0.0322  0.7326 -0.4670
  120OSM   H14S12662   6.145   5.531   8.101 -0.8194  0.4171 -0.8763
  120OSM   H14T12663   5.991   5.594   8.172 -0.5933  1.5764 -1.6600
  120OSM   C15S12664   6.187   5.673   8.246 -0.2209  0.0343 -0.2467
  120OSM   H15S12665   6.182   5.784   8.249  1.4505  0.1994 -2.0399
  120OSM   H15T12666   6.289   5.634   8.224  0.4431  1.2681  0.5888
  120OSM   C16S12667   6.164   5.616   8.391  0.1413 -0.3890 -0.5145
  120OSM   H16S12668   6.170   5.506   8.401 -0.8754 -0.3315  0.8245
  120OSM   H16T12669   6.059   5.644   8.416  0.6839  0.8494  0.4195
  120OSM   C17S12670   6.245   5.682   8.496  0.2615 -0.0694 -0.0903
  120OSM   H17S12671   6.228   5.791   8.489  0.3844 -0.1991 -2.7427
  120OSM   H17T12672   6.353   5.668   8.478  0.1731 -1.9906  0.6799
  120OSM   C18S12673   6.212   5.629   8.644  0.5614 -0.1722 -0.3074
  120OSM   H18S12674   6.113   5.669   8.676  0.4761 -0.7312  0.1278
  120OSM   H18T12675   6.295   5.666   8.708 -0.8492  1.1245  0.8396
  120OSM   H18U12676   6.202   5.519   8.644 -2.5033  0.0183 -2.6325
  120OSM    C1F12677   6.067   6.224   6.980 -0.2604 -0.2356  0.2840
  120OSM     OF12678   5.969   6.291   6.956 -0.1558 -0.2552 -0.0526
  120OSM    C2F12679   6.202   6.277   7.029  0.3751 -0.0584  0.4953
  120OSM    H2F12680   6.245   6.318   6.935  0.2300 -0.5738  0.2011
  120OSM    H2G12681   6.268   6.194   7.061  2.1401  0.0707 -2.5830
  120OSM    C3F12682   6.177   6.387   7.128  0.6900 -0.7166 -0.1203
  120OSM    H3F12683   6.123   6.359   7.221 -2.3113 -1.1422 -1.9198
  120OSM    H3G12684   6.116   6.459   7.070  1.7511  0.1854 -0.1334
  120OSM    C4F12685   6.304   6.464   7.165  0.8447  0.3851 -0.0745
  120OSM    H4F12686   6.284   6.565   7.207  0.0879 -0.2064  1.0089
  120OSM    H4G12687   6.348   6.495   7.068  1.4424 -0.9803 -0.2475
  120OSM    C5F12688   6.415   6.389   7.243  0.1578  0.5962  0.6081
  120OSM    H5F12689   6.508   6.449   7.252 -0.1933  1.5946 -2.0134
  120OSM    H5G12690   6.454   6.300   7.188  0.3606 -0.1183  1.8783
  120OSM    C6F12691   6.375   6.339   7.384 -0.9442  0.4121 -0.0577
  120OSM    H6F12692   6.322   6.242   7.377  1.5192 -1.0436  0.7402
  120OSM    H6G12693   6.319   6.418   7.438 -0.6972  0.2124  0.4934
  120OSM    C7F12694   6.506   6.301   7.463  0.3629  0.4415  0.3159
  120OSM    H7F12695   6.565   6.393   7.483  2.3946 -0.9133  0.7220
  120OSM    H7G12696   6.562   6.227   7.403 -1.3087 -1.5934  1.2130
  120OSM    C8F12697   6.470   6.243   7.610  0.3398 -0.6977 -0.0309
  120OSM    H8F12698   6.559   6.218   7.672  1.0391  2.1332  0.2024
  120OSM    H8G12699   6.408   6.154   7.589 -0.1208 -0.7626  1.5519
  120OSM    C9F12700   6.385   6.344   7.686 -0.3101  0.0382 -0.6059
  120OSM    H9F12701   6.327   6.413   7.622 -0.1710  1.3534  0.6384
  120OSM   C10F12702   6.388   6.364   7.822  0.1648 -0.3512  0.5533
  120OSM   H10F12703   6.316   6.427   7.876  0.7401 -1.0042  2.1033
  120OSM   C11F12704   6.479   6.292   7.917  0.4364 -0.3499  0.3481
  120OSM   H11F12705   6.568   6.356   7.937 -0.3002  1.6026 -2.2492
  120OSM   H11G12706   6.510   6.194   7.876 -0.3477  0.2809 -1.8514
  120OSM   C12F12707   6.404   6.247   8.043  0.0897 -0.2454 -0.3927
  120OSM   H12F12708   6.355   6.338   8.084  0.2091 -0.3075 -0.1103
  120OSM   H12G12709   6.492   6.234   8.110  0.0792  1.4511 -0.0196
  120OSM   C13F12710   6.314   6.135   8.042 -0.3013 -0.4807  0.2624
  120OSM   H13F12711   6.366   6.038   8.027  0.5191 -0.0107  0.0804
  120OSM   H13G12712   6.249   6.146   7.953  2.0143 -0.9450 -1.5174
  120OSM   C14F12713   6.208   6.116   8.153  0.5272  0.3760  0.7005
  120OSM   H14F12714   6.259   6.108   8.251 -0.7725  0.9717  1.4473
  120OSM   H14G12715   6.156   6.022   8.127 -0.9602  1.6562 -1.1572
  120OSM   C15F12716   6.100   6.228   8.152 -0.1476  0.6033  0.3215
  120OSM   H15F12717   6.015   6.176   8.103 -0.3747 -0.9197  2.2512
  120OSM   H15G12718   6.134   6.315   8.092 -0.4001  0.7764  0.4246
  120OSM   C16F12719   6.069   6.291   8.289  0.1452 -0.2345 -0.5716
  120OSM   H16F12720   6.065   6.208   8.362 -1.1422  2.8096  2.9918
  120OSM   H16G12721   5.973   6.346   8.287  0.6360  0.7535  1.3153
  120OSM   C17F12722   6.178   6.383   8.335  0.7452  0.2295  0.0217
  120OSM   H17F12723   6.197   6.449   8.248  0.0288 -0.8462 -0.9565
  120OSM   H17G12724   6.269   6.324   8.362  0.5406 -0.1297 -0.0807
  120OSM   C18F12725   6.127   6.459   8.451  0.0354 -0.1297  0.9867
  120OSM   H18F12726   6.216   6.498   8.505  0.6489  0.4328 -0.4019
  120OSM   H18G12727   6.071   6.399   8.526  0.1495  0.6622  1.7135
  120OSM   H18H12728   6.058   6.542   8.423  0.4972  0.3143  1.1514
  121OSM      N12729   0.620   0.476   6.449  0.2013 -0.3136 -0.4974
  121OSM    C1512730   0.620   0.406   6.581 -0.3355 -0.1465 -0.2216
  121OSM   H15A12731   0.713   0.410   6.635 -0.0040 -2.8833 -0.5398
  121OSM   H15B12732   0.610   0.300   6.564  2.9293 -0.4046 -0.8283
  121OSM   H15C12733   0.546   0.453   6.645  0.2449  0.2769  0.1372
  121OSM    C1412734   0.479   0.469   6.383  0.4714 -0.6573  0.2096
  121OSM   H14A12735   0.449   0.366   6.379  0.3460 -0.5827 -1.0232
  121OSM   H14B12736   0.493   0.511   6.284  0.6936  0.0635  0.5419
  121OSM   H14C12737   0.407   0.534   6.430  2.1244 -0.8009  3.0683
  121OSM    C1312738   0.652   0.620   6.466 -0.2342 -0.5575  0.3137
  121OSM   H13A12739   0.656   0.657   6.365 -2.6229 -2.5667 -0.5593
  121OSM   H13B12740   0.745   0.635   6.519 -1.1365  0.5303  1.6179
  121OSM   H13C12741   0.575   0.672   6.521 -1.9093 -2.6698  0.0613
  121OSM    C1212742   0.718   0.396   6.355  0.2441 -0.2728  0.4309
  121OSM   H12A12743   0.679   0.297   6.338  0.1262 -0.0293 -0.7090
  121OSM   H12B12744   0.814   0.393   6.405  0.2449 -0.1082  0.4405
  121OSM    C1112745   0.748   0.463   6.215  0.5025 -0.3715  0.3054
  121OSM   H11A12746   0.651   0.499   6.175  1.2645 -1.0701 -2.2131
  121OSM   H11B12747   0.790   0.378   6.158 -2.4512 -0.0369 -2.4738
  121OSM      P12748   0.995   0.561   6.254  0.4236 -0.1315 -0.2063
  121OSM    O1312749   1.006   0.421   6.297 -0.2707 -0.2515 -0.2035
  121OSM    O1412750   1.078   0.603   6.137  0.1903  0.4753  0.1518
  121OSM    O1112751   1.014   0.663   6.368 -0.3732 -0.4060 -0.2336
  121OSM    O1212752   0.840   0.578   6.223  0.3376  0.2975  0.1771
  121OSM    C1S12753   1.123   0.636   6.458  0.1958 -0.6318 -0.0553
  121OSM    H1S12754   1.220   0.639   6.404  0.0149  2.4480 -0.3166
  121OSM    H1T12755   1.110   0.533   6.497  0.0381 -0.4905  0.2731
  121OSM     NF12756   1.246   0.718   6.657 -0.0070  0.6453  0.7500
  121OSM    HNF12757   1.224   0.676   6.745  2.8102  2.1675  2.2399
  121OSM    C2S12758   1.130   0.745   6.573  0.3035  0.5365 -0.0254
  121OSM    H2S12759   1.137   0.846   6.527  0.0678  0.3664 -0.4412
  121OSM    C3S12760   0.994   0.748   6.651 -0.6437 -0.3948 -0.5102
  121OSM    H3S12761   0.967   0.650   6.696 -3.1887  0.4987 -0.0396
  121OSM     O312762   0.881   0.797   6.576 -0.0519 -0.8213  0.2678
  121OSM    HO312763   0.907   0.818   6.486 -2.6004  1.4411 -0.0098
  121OSM    C4S12764   1.009   0.855   6.758  0.3117  0.7911 -0.1926
  121OSM    H4S12765   0.986   0.956   6.720  0.0233  1.4480  1.6691
  121OSM    C5S12766   1.021   0.837   6.890  0.3292  0.3943 -0.8050
  121OSM    H5S12767   1.012   0.734   6.929 -0.5481  0.5146 -0.6792
  121OSM    C6S12768   1.025   0.954   6.986  1.0011  0.0930 -0.4408
  121OSM    H6S12769   0.923   0.973   7.023  0.2142 -1.1953 -1.8666
  121OSM    H6T12770   1.054   1.040   6.922 -1.2261 -0.2062 -1.9028
  121OSM    C7S12771   1.116   0.939   7.109  0.1794  0.1123  0.1551
  121OSM    H7S12772   1.221   0.948   7.075 -0.8378  1.9186 -2.6995
  121OSM    H7T12773   1.094   0.842   7.158 -2.8732  0.8576  0.3681
  121OSM    C8S12774   1.082   1.049   7.215 -0.5047  0.8396  0.4358
  121OSM    H8S12775   0.972   1.047   7.223 -0.5697 -0.0110 -0.5187
  121OSM    H8T12776   1.107   1.145   7.166  2.3411 -0.2590 -0.3905
  121OSM    C9S12777   1.146   1.033   7.349 -0.6871 -0.4776 -0.2303
  121OSM    H9S12778   1.256   1.031   7.333 -0.7160 -2.0798 -0.2467
  121OSM    H9T12779   1.119   0.932   7.386  1.6813  0.0525  3.1144
  121OSM   C10S12780   1.110   1.137   7.457 -0.0478  0.1651  0.0171
  121OSM   H10S12781   1.009   1.118   7.498 -0.4148 -0.2642 -1.0588
  121OSM   H10T12782   1.114   1.238   7.409 -0.2754  0.5944  0.8851
  121OSM   C11S12783   1.207   1.119   7.585 -1.1818 -0.0823 -0.4892
  121OSM   H11S12784   1.311   1.108   7.549 -0.4307  1.6453  1.0750
  121OSM   H11T12785   1.187   1.019   7.629 -2.3187  0.7602  0.9716
  121OSM   C12S12786   1.197   1.240   7.675  0.1792 -0.2613  0.1491
  121OSM   H12S12787   1.090   1.260   7.695  0.2400  1.3929 -1.0908
  121OSM   H12T12788   1.239   1.330   7.626 -2.4343 -0.6042 -2.8780
  121OSM   C13S12789   1.260   1.222   7.819  0.0143  0.3149 -0.0948
  121OSM   H13S12790   1.370   1.229   7.804  0.3903 -2.0598  1.2351
  121OSM   H13T12791   1.224   1.126   7.861 -0.6115  0.5679 -0.0577
  121OSM   C14S12792   1.218   1.332   7.916  0.3291  0.0132 -0.3407
  121OSM   H14S12793   1.108   1.322   7.927  0.2508  0.2326 -0.9034
  121OSM   H14T12794   1.247   1.429   7.872 -2.5610  2.1402  2.2153
  121OSM   C15S12795   1.275   1.329   8.057  0.8052 -0.3777  0.3451
  121OSM   H15S12796   1.251   1.430   8.098  0.5509  0.1220 -1.0086
  121OSM   H15T12797   1.386   1.324   8.047  0.9557 -0.1231  1.7841
  121OSM   C16S12798   1.222   1.214   8.137  0.2591 -0.7512 -0.0251
  121OSM   H16S12799   1.239   1.124   8.075 -0.8022  2.4456 -5.2125
  121OSM   H16T12800   1.114   1.207   8.163  0.2774 -0.8598  0.0226
  121OSM   C17S12801   1.304   1.190   8.268  0.3848  0.2344 -0.3603
  121OSM   H17S12802   1.271   1.251   8.355  2.1685 -1.8499  1.8522
  121OSM   H17T12803   1.412   1.212   8.252  0.7040 -1.0975 -0.0898
  121OSM   C18S12804   1.295   1.046   8.312  0.0460  0.2797  0.3925
  121OSM   H18S12805   1.192   1.019   8.344  1.2117 -0.8315  3.4272
  121OSM   H18T12806   1.358   1.028   8.402  1.6763  3.1625 -0.1040
  121OSM   H18U12807   1.326   0.982   8.227 -0.8178  0.1146  0.1984
  121OSM    C1F12808   1.369   0.728   6.603 -0.5943 -0.1251  0.6421
  121OSM     OF12809   1.379   0.774   6.491 -0.3299  0.2997 -0.0738
  121OSM    C2F12810   1.478   0.666   6.681 -0.3994 -0.6312 -0.1087
  121OSM    H2F12811   1.555   0.631   6.608  1.0320  0.9599  0.5897
  121OSM    H2G12812   1.440   0.576   6.733 -3.0347 -0.8029 -2.2319
  121OSM    C3F12813   1.533   0.777   6.769 -0.5718 -0.2010 -0.4438
  121OSM    H3F12814   1.451   0.819   6.832 -0.9100 -1.3257 -0.1161
  121OSM    H3G12815   1.562   0.861   6.703  0.7898  0.1804  0.6211
  121OSM    C4F12816   1.652   0.729   6.848  0.5765 -0.2046 -0.0656
  121OSM    H4F12817   1.741   0.735   6.782  0.3043 -2.3040 -0.6488
  121OSM    H4G12818   1.645   0.621   6.872 -1.4198  0.3160  1.8385
  121OSM    C5F12819   1.688   0.804   6.981  0.5167 -0.0160 -0.3504
  121OSM    H5F12820   1.679   0.913   6.966  0.4288  0.1176  0.6913
  121OSM    H5G12821   1.794   0.780   7.003  0.4731  0.2960  0.1869
  121OSM    C6F12822   1.597   0.763   7.096 -0.1736  0.2247 -0.2985
  121OSM    H6F12823   1.621   0.659   7.127 -0.8200 -0.5210 -2.2124
  121OSM    H6G12824   1.495   0.760   7.053 -0.2367 -0.3243 -0.1085
  121OSM    C7F12825   1.596   0.854   7.215 -0.3121  0.4886 -0.6064
  121OSM    H7F12826   1.589   0.962   7.191 -0.1958  0.8452  0.8744
  121OSM    H7G12827   1.684   0.830   7.279 -1.3491 -0.1106  0.6378
  121OSM    C8F12828   1.470   0.812   7.295  0.0588  0.1325 -0.5614
  121OSM    H8F12829   1.472   0.701   7.302 -0.1417  0.1498 -0.2179
  121OSM    H8G12830   1.376   0.833   7.238 -0.8996  1.1507  1.3504
  121OSM    C9F12831   1.455   0.876   7.431  0.1309  1.2641  0.5138
  121OSM    H9F12832   1.428   0.982   7.421  0.4285  1.4251  1.3824
  121OSM   C10F12833   1.454   0.819   7.548  0.2624 -0.4099 -0.3237
  121OSM   H10F12834   1.437   0.877   7.640 -0.1544 -2.4328  0.8916
  121OSM   C11F12835   1.468   0.678   7.584  0.1499  0.7903 -0.4069
  121OSM   H11F12836   1.520   0.668   7.681  1.8923 -2.4965 -1.5764
  121OSM   H11G12837   1.539   0.626   7.515 -1.4304 -0.4949 -1.0964
  121OSM   C12F12838   1.333   0.606   7.573 -0.6124 -0.2790  0.4112
  121OSM   H12F12839   1.294   0.618   7.469  0.0122  0.2829  0.2436
  121OSM   H12G12840   1.266   0.658   7.645  1.0982  0.3626  1.5533
  121OSM   C13F12841   1.332   0.455   7.618 -0.3672  1.2529 -0.3763
  121OSM   H13F12842   1.399   0.393   7.554  0.9598 -1.0400  3.0663
  121OSM   H13G12843   1.228   0.428   7.589 -0.2241 -0.7994  0.8885
  121OSM   C14F12844   1.353   0.437   7.769 -0.4048  0.4606  0.6483
  121OSM   H14F12845   1.275   0.499   7.816 -1.4352  0.6085 -1.2077
  121OSM   H14G12846   1.452   0.472   7.806 -0.2476  0.7306 -0.0264
  121OSM   C15F12847   1.319   0.290   7.809  0.4685 -0.1873  0.2847
  121OSM   H15F12848   1.365   0.279   7.909  0.8617  0.1826  0.1442
  121OSM   H15G12849   1.362   0.219   7.735 -1.9806 -0.4609 -0.9502
  121OSM   C16F12850   1.161   0.253   7.808 -0.0550 -0.0206  0.4610
  121OSM   H16F12851   1.151   0.146   7.835 -0.0590  0.2752  1.6779
  121OSM   H16G12852   1.128   0.257   7.702 -1.1097  2.4248  0.8339
  121OSM   C17F12853   1.082   0.330   7.902  0.5598 -0.6258 -0.0174
  121OSM   H17F12854   0.980   0.288   7.900 -0.0641  0.8972 -1.6596
  121OSM   H17G12855   1.065   0.433   7.864  2.4726 -0.7824 -1.3663
  121OSM   C18F12856   1.139   0.326   8.047  0.4389 -0.6167 -0.2219
  121OSM   H18F12857   1.062   0.338   8.125  1.9313 -0.7582  1.3058
  121OSM   H18G12858   1.212   0.408   8.069  1.0223 -1.0966 -0.3556
  121OSM   H18H12859   1.194   0.232   8.070  0.4842 -0.1269  1.7335
  122OSM      N12860   6.659   3.275   5.810  0.5497 -0.2000 -0.2664
  122OSM    C1512861   6.637   3.378   5.918  0.4751 -0.3622 -0.2236
  122OSM   H15A12862   6.531   3.384   5.939  0.0157  0.2915 -2.6687
  122OSM   H15B12863   6.675   3.475   5.891  0.3971 -0.4062 -0.4837
  122OSM   H15C12864   6.677   3.349   6.015  0.8816  0.5999 -0.1026
  122OSM    C1412865   6.580   3.154   5.852 -0.1536  0.9689 -0.4192
  122OSM   H14A12866   6.635   3.107   5.933  0.9380  0.7274 -1.2861
  122OSM   H14B12867   6.565   3.087   5.768 -0.0629  0.6453 -0.1790
  122OSM   H14C12868   6.483   3.179   5.890  0.3780  1.1843  0.8119
  122OSM    C1312869   6.604   3.335   5.685  0.2546 -0.7469  0.7989
  122OSM   H13A12870   6.496   3.330   5.686  0.2816 -1.2757  1.4603
  122OSM   H13B12871   6.639   3.266   5.610  3.2532 -0.4813  1.8970
  122OSM   H13C12872   6.648   3.425   5.646 -0.3921 -0.3200  1.0377
  122OSM    C1212873   6.803   3.236   5.787 -0.3997 -0.2793  0.6444
  122OSM   H12A12874   6.857   3.326   5.760  1.0972 -0.7890  1.8190
  122OSM   H12B12875   6.808   3.178   5.696  1.5889  1.7603 -0.6273
  122OSM    C1112876   6.879   3.160   5.900  0.5449  0.0477  0.0374
  122OSM   H11A12877   6.983   3.135   5.873  0.3200  1.3469 -2.1369
  122OSM   H11B12878   6.834   3.059   5.908  3.3005 -1.1507  0.6974
  122OSM      P12879   6.992   3.352   6.037 -0.0889 -0.2703  0.0869
  122OSM    O1312880   7.113   3.302   5.983 -0.4312  1.5586 -0.2926
  122OSM    O1412881   6.932   3.481   5.990 -0.3344 -0.1751 -0.0769
  122OSM    O1112882   7.010   3.353   6.190 -0.4565 -0.0305  0.7171
  122OSM    O1212883   6.880   3.239   6.019  0.1453 -0.1953 -0.2622
  122OSM    C1S12884   7.046   3.234   6.269 -0.3203 -0.6084  0.2729
  122OSM    H1S12885   7.150   3.202   6.245  0.2346  0.4627  1.1950
  122OSM    H1T12886   6.988   3.145   6.239 -3.0520  1.2416 -0.0721
  122OSM     NF12887   7.107   3.168   6.491  0.0558 -0.4941 -0.2784
  122OSM    HNF12888   7.052   3.092   6.526 -1.5383  0.3348 -0.9276
  122OSM    C2S12889   7.023   3.267   6.416 -0.3176 -0.2039  0.3855
  122OSM    H2S12890   7.062   3.367   6.442  0.2032  0.2875 -2.1662
  122OSM    C3S12891   6.874   3.265   6.458  0.2018 -0.1479  0.4558
  122OSM    H3S12892   6.832   3.162   6.456  2.0720 -0.9436  0.5220
  122OSM     O312893   6.775   3.342   6.395  0.2478 -0.2379 -0.0692
  122OSM    HO312894   6.826   3.396   6.335  1.4634 -0.5664  0.6531
  122OSM    C4S12895   6.871   3.279   6.603 -0.4136 -0.7395  0.4124
  122OSM    H4S12896   6.866   3.182   6.655 -1.3205 -0.5426  0.7024
  122OSM    C5S12897   6.869   3.391   6.678  0.7015 -0.6052  0.4845
  122OSM    H5S12898   6.871   3.490   6.632 -0.4874 -0.9630 -0.3659
  122OSM    C6S12899   6.865   3.387   6.831  0.8124  0.5660 -0.9037
  122OSM    H6S12900   6.798   3.307   6.867 -0.7800  2.1267 -0.3190
  122OSM    H6T12901   6.828   3.488   6.859 -0.1167 -0.6917  2.6065
  122OSM    C7S12902   6.996   3.360   6.904  0.3183  0.1532  0.5630
  122OSM    H7S12903   7.062   3.441   6.865  0.6631  0.5546  1.9562
  122OSM    H7T12904   7.025   3.255   6.879  0.5567  0.6381 -1.3045
  122OSM    C8S12905   6.994   3.354   7.060 -0.2023 -0.0058 -0.4128
  122OSM    H8S12906   6.937   3.270   7.105  0.8422 -1.3414 -1.5609
  122OSM    H8T12907   6.939   3.446   7.090 -1.3125 -0.5743 -0.6632
  122OSM    C9S12908   7.132   3.360   7.127  0.2960 -0.0377 -0.4439
  122OSM    H9S12909   7.160   3.465   7.104  1.4436 -0.3447 -0.4955
  122OSM    H9T12910   7.207   3.300   7.071 -0.8886 -0.4347 -1.6358
  122OSM   C10S12911   7.117   3.330   7.282  0.4726  0.2059 -0.1875
  122OSM   H10S12912   7.074   3.229   7.297  0.6418  0.1578 -0.0219
  122OSM   H10T12913   7.052   3.410   7.323 -1.1998 -2.3774  2.3083
  122OSM   C11S12914   7.256   3.334   7.337 -0.3949 -0.1237 -0.0959
  122OSM   H11S12915   7.291   3.440   7.345  0.5490 -0.3497 -1.0715
  122OSM   H11T12916   7.333   3.282   7.276 -0.0165  0.4866 -0.1523
  122OSM   C12S12917   7.271   3.283   7.482 -0.3318  0.4085 -0.4188
  122OSM   H12S12918   7.376   3.292   7.520  0.1053 -1.3175 -1.2155
  122OSM   H12T12919   7.246   3.175   7.491 -1.0723  0.5709 -0.4739
  122OSM   C13S12920   7.183   3.351   7.586 -0.1446  0.0096  0.7672
  122OSM   H13S12921   7.075   3.328   7.572 -0.2058  0.6400  0.1797
  122OSM   H13T12922   7.207   3.460   7.582  1.0303 -0.2120  1.5022
  122OSM   C14S12923   7.229   3.305   7.720 -0.0228 -0.3964  0.1065
  122OSM   H14S12924   7.334   3.335   7.737  0.0358 -0.1741 -0.6339
  122OSM   H14T12925   7.224   3.195   7.737 -0.0903 -0.6915 -1.7268
  122OSM   C15S12926   7.137   3.375   7.824  0.3078 -0.2636 -0.4510
  122OSM   H15S12927   7.148   3.335   7.927  1.5874  0.9155 -0.1154
  122OSM   H15T12928   7.033   3.369   7.786 -0.3896  0.4084  1.3055
  122OSM   C16S12929   7.180   3.517   7.854  0.2132 -0.1324 -0.6182
  122OSM   H16S12930   7.144   3.574   7.765  1.7567  1.3052 -0.3558
  122OSM   H16T12931   7.290   3.526   7.867 -0.0058  1.2321  0.4247
  122OSM   C17S12932   7.135   3.568   7.994  0.2825  0.5251 -0.1963
  122OSM   H17S12933   7.032   3.539   8.024  0.2560 -1.3270 -1.9302
  122OSM   H17T12934   7.142   3.678   7.980  0.6259  0.7845  1.8713
  122OSM   C18S12935   7.237   3.536   8.103  0.5097 -0.1868  0.1423
  122OSM   H18S12936   7.336   3.567   8.063 -0.2892 -1.9801 -3.4246
  122OSM   H18T12937   7.237   3.427   8.124  1.2258 -0.2743 -0.3013
  122OSM   H18U12938   7.218   3.591   8.198 -0.7498 -2.1339  1.0352
  122OSM    C1F12939   7.235   3.176   6.514  0.1032  0.1609 -0.0921
  122OSM     OF12940   7.299   3.268   6.463  0.0949 -0.0357 -0.5049
  122OSM    C2F12941   7.286   3.068   6.612 -0.2550  0.0970 -0.5599
  122OSM    H2F12942   7.329   2.989   6.547 -1.8017 -2.0668  0.9985
  122OSM    H2G12943   7.196   3.028   6.663  0.1049 -0.4127 -0.3227
  122OSM    C3F12944   7.384   3.127   6.720 -0.1929 -0.0632  0.1593
  122OSM    H3F12945   7.326   3.203   6.776 -0.1278 -1.3513  2.0162
  122OSM    H3G12946   7.480   3.166   6.679  0.3066 -3.1791 -1.8017
  122OSM    C4F12947   7.428   3.028   6.822  0.1548 -0.7380 -0.8407
  122OSM    H4F12948   7.507   2.974   6.766  0.2998  0.0153 -1.3586
  122OSM    H4G12949   7.349   2.950   6.836 -1.1571  0.7760  0.3645
  122OSM    C5F12950   7.490   3.093   6.951  0.1833 -0.0726 -0.1310
  122OSM    H5F12951   7.408   3.139   7.009 -1.6711  0.5635 -3.1045
  122OSM    H5G12952   7.576   3.159   6.929 -0.4483 -0.1461 -3.0949
  122OSM    C6F12953   7.536   2.984   7.048 -0.6590 -0.5597  0.0944
  122OSM    H6F12954   7.609   2.924   6.990 -0.8118 -0.5721 -0.0866
  122OSM    H6G12955   7.452   2.913   7.061  0.0796 -1.9298 -2.3055
  122OSM    C7F12956   7.604   3.030   7.176  1.0526 -0.4701 -0.2363
  122OSM    H7F12957   7.534   3.105   7.218  0.6312 -0.8147 -0.3166
  122OSM    H7G12958   7.696   3.087   7.151 -0.1261  1.7663  0.4126
  122OSM    C8F12959   7.628   2.919   7.270  0.1608  0.6438  0.0745
  122OSM    H8F12960   7.544   2.846   7.275  1.6623 -1.2845 -1.8992
  122OSM    H8G12961   7.636   2.954   7.375  1.3776 -1.3007  0.6574
  122OSM    C9F12962   7.737   2.822   7.231 -0.4275 -0.4896 -0.1489
  122OSM    H9F12963   7.753   2.819   7.122  1.3812 -0.5981  0.1026
  122OSM   C10F12964   7.820   2.764   7.320 -0.6009  0.7412  0.3925
  122OSM   H10F12965   7.895   2.691   7.288 -1.6426 -0.3350  0.3785
  122OSM   C11F12966   7.808   2.768   7.470  0.3438 -0.8049  0.7572
  122OSM   H11F12967   7.871   2.690   7.519  3.6972  0.0154 -2.0604
  122OSM   H11G12968   7.705   2.751   7.506 -0.1161  0.7377  0.2305
  122OSM   C12F12969   7.855   2.904   7.524 -0.1027 -0.4333  0.3379
  122OSM   H12F12970   7.833   2.994   7.464  0.6363 -1.0922 -0.9576
  122OSM   H12G12971   7.965   2.888   7.517  0.0458  0.9948 -0.9495
  122OSM   C13F12972   7.802   2.924   7.671 -0.4148  0.4761  0.0514
  122OSM   H13F12973   7.866   3.001   7.719  0.6959 -1.0026  1.0163
  122OSM   H13G12974   7.805   2.830   7.730  1.9738 -0.3894 -1.3754
  122OSM   C14F12975   7.651   2.977   7.677  0.1156  0.0250 -0.0531
  122OSM   H14F12976   7.580   2.894   7.656 -0.4450  0.5702 -0.3370
  122OSM   H14G12977   7.629   3.056   7.602 -1.7629 -0.7887 -0.3950
  122OSM   C15F12978   7.615   3.022   7.817 -0.1364  0.0675  0.1932
  122OSM   H15F12979   7.680   3.105   7.852 -1.3107  0.1904  2.1641
  122OSM   H15G12980   7.640   2.935   7.881  3.1198 -0.1136 -1.1759
  122OSM   C16F12981   7.464   3.059   7.839  0.1960 -0.5124  0.3796
  122OSM   H16F12982   7.391   2.981   7.806 -2.7714  2.5094 -0.4189
  122OSM   H16G12983   7.431   3.150   7.784 -0.5283 -0.7415  0.4227
  122OSM   C17F12984   7.436   3.097   7.991 -0.4258 -0.1386  0.4799
  122OSM   H17F12985   7.339   3.150   7.994  1.1645  3.0686 -1.5013
  122OSM   H17G12986   7.498   3.181   8.029  0.0248  0.3130 -1.2044
  122OSM   C18F12987   7.435   2.981   8.100  0.1828 -0.1152 -0.1186
  122OSM   H18F12988   7.390   3.020   8.194 -0.1610  0.1634 -0.4001
  122OSM   H18G12989   7.537   2.938   8.112  0.3378  0.1131 -0.6235
  122OSM   H18H12990   7.382   2.898   8.049  0.3822  0.0487 -0.5891
  123OSM      N12991   5.086   5.319   6.192 -0.1000 -0.8243  0.3830
  123OSM    C1512992   5.043   5.195   6.273 -0.0608 -0.2154 -0.1761
  123OSM   H15A12993   5.015   5.110   6.212  4.0855 -1.3826 -0.6151
  123OSM   H15B12994   4.955   5.223   6.329  0.6727  2.4252 -0.2707
  123OSM   H15C12995   5.125   5.178   6.341  0.5532 -1.0701 -1.1050
  123OSM    C1412996   5.201   5.267   6.119 -0.7384 -0.2190  0.8948
  123OSM   H14A12997   5.270   5.217   6.186 -1.4013 -0.3675  1.4685
  123OSM   H14B12998   5.250   5.347   6.064  0.4418 -1.1910  0.5188
  123OSM   H14C12999   5.166   5.193   6.049 -1.9491  1.8760 -0.7929
  123OSM    C1313000   4.973   5.357   6.105  0.0909  0.7035  0.4922
  123OSM   H13A13001   4.960   5.292   6.021 -1.0303  0.5658  0.7630
  123OSM   H13B13002   4.983   5.459   6.072  1.9444 -0.1834 -1.8298
  123OSM   H13C13003   4.880   5.348   6.160 -1.0898 -0.5191 -1.6725
  123OSM    C1213004   5.133   5.428   6.282  1.0213  0.4705 -0.5839
  123OSM   H12A13005   5.182   5.504   6.222 -0.2300  0.4286 -1.6881
  123OSM   H12B13006   5.216   5.402   6.345  2.9025  1.7932 -2.4379
  123OSM    C1113007   5.028   5.489   6.379  0.3024  0.0067  0.3960
  123OSM   H11A13008   4.946   5.536   6.321  0.0245 -0.0097  0.7707
  123OSM   H11B13009   5.074   5.571   6.440 -0.8462 -0.4945  1.9779
  123OSM      P13010   4.826   5.387   6.509 -0.3666  0.0943 -0.1572
  123OSM    O1313011   4.779   5.525   6.497 -0.4975  0.0775  0.3601
  123OSM    O1413012   4.758   5.300   6.420 -0.0323  0.3497 -0.7685
  123OSM    O1113013   4.810   5.354   6.661 -0.0723 -0.0838 -0.1678
  123OSM    O1213014   4.982   5.389   6.471 -0.1491 -0.5505 -0.2584
  123OSM    C1S13015   4.927   5.388   6.746  0.2959  0.5366  0.1231
  123OSM    H1S13016   5.029   5.400   6.702  0.1150  2.3649  0.1817
  123OSM    H1T13017   4.946   5.305   6.817 -0.1975  3.0364  3.3013
  123OSM     NF13018   4.996   5.574   6.891 -0.5451  0.0915 -0.6461
  123OSM    HNF13019   5.004   5.553   6.988 -2.0229  0.7862 -0.3540
  123OSM    C2S13020   4.886   5.510   6.832  0.5569  0.4181  0.4219
  123OSM    H2S13021   4.841   5.589   6.768 -2.7573 -2.0162 -0.3994
  123OSM    C3S13022   4.780   5.467   6.936 -0.0019  0.4500  1.1561
  123OSM    H3S13023   4.821   5.380   6.992  0.8104 -0.0947 -0.2431
  123OSM     O313024   4.663   5.405   6.884  0.2095 -0.3143 -0.6252
  123OSM    HO313025   4.662   5.424   6.790  1.7327 -0.0566 -0.5932
  123OSM    C4S13026   4.746   5.575   7.033 -0.7773  0.4286 -0.1185
  123OSM    H4S13027   4.836   5.579   7.096 -1.7397 -0.6851  1.3782
  123OSM    C5S13028   4.642   5.658   7.042 -0.0769  0.1513  0.0957
  123OSM    H5S13029   4.557   5.650   6.973  0.0122 -0.3442  0.0434
  123OSM    C6S13030   4.625   5.765   7.146  0.0846  0.6011  0.8055
  123OSM    H6S13031   4.525   5.771   7.195  0.1023  1.5889  0.7334
  123OSM    H6T13032   4.639   5.864   7.097 -4.1375  1.2052  0.6073
  123OSM    C7S13033   4.729   5.766   7.251  0.3433 -0.4674  0.1210
  123OSM    H7S13034   4.826   5.767   7.198  0.0441  0.6959 -0.4316
  123OSM    H7T13035   4.725   5.678   7.318  0.3907  0.2659  1.1024
  123OSM    C8S13036   4.714   5.889   7.335  0.3477  0.3741 -1.0805
  123OSM    H8S13037   4.617   5.882   7.390 -0.0156  1.7180 -1.5409
  123OSM    H8T13038   4.715   5.980   7.272 -1.3766  1.1810  0.0224
  123OSM    C9S13039   4.816   5.908   7.448 -0.8870 -0.5535 -0.1126
  123OSM    H9S13040   4.813   6.019   7.457 -0.7374 -0.5123 -0.5371
  123OSM    H9T13041   4.915   5.869   7.416 -0.3782 -0.0547  0.8474
  123OSM   C10S13042   4.787   5.836   7.578  0.1709 -0.0936 -0.7639
  123OSM   H10S13043   4.753   5.732   7.557 -0.8683 -0.1200  0.9196
  123OSM   H10T13044   4.693   5.873   7.625  0.6854  1.7225 -1.1307
  123OSM   C11S13045   4.895   5.855   7.686 -0.8523 -0.2797 -0.1832
  123OSM   H11S13046   4.895   5.958   7.730  1.6280 -0.7244  0.9751
  123OSM   H11T13047   4.988   5.818   7.638 -2.0097 -3.7434  0.1130
  123OSM   C12S13048   4.869   5.754   7.800 -0.3760 -0.0419  0.1293
  123OSM   H12S13049   4.941   5.779   7.881 -0.5643  2.3825 -0.4102
  123OSM   H12T13050   4.870   5.647   7.767 -0.3488  0.0718 -0.2431
  123OSM   C13S13051   4.737   5.767   7.881 -0.5062 -0.1987 -0.2118
  123OSM   H13S13052   4.744   5.696   7.967 -1.2463 -0.2082 -0.1558
  123OSM   H13T13053   4.656   5.745   7.808  1.3400  0.2405 -2.4463
  123OSM   C14S13054   4.727   5.908   7.946 -0.2731  0.2863  0.4407
  123OSM   H14S13055   4.628   5.934   7.989 -0.6989  0.8091 -0.8440
  123OSM   H14T13056   4.757   5.984   7.871 -1.2516  0.8358  0.6044
  123OSM   C15S13057   4.816   5.915   8.074  0.5033 -0.6734 -0.1240
  123OSM   H15S13058   4.921   5.889   8.049  0.0855 -2.0352 -0.4994
  123OSM   H15T13059   4.792   5.846   8.157 -0.0888  0.4503  0.6509
  123OSM   C16S13060   4.813   6.055   8.137  0.2677  0.2714  0.1771
  123OSM   H16S13061   4.886   6.070   8.220  0.4412 -0.9436  0.2460
  123OSM   H16T13062   4.714   6.085   8.176 -0.2235  0.0195 -0.8660
  123OSM   C17S13063   4.858   6.151   8.031 -0.0947  0.1187 -0.4519
  123OSM   H17S13064   4.780   6.172   7.955 -1.7183  0.3080  1.2519
  123OSM   H17T13065   4.949   6.110   7.981  0.5431  2.2674 -1.1270
  123OSM   C18S13066   4.906   6.291   8.082  0.3205 -0.2948  0.4434
  123OSM   H18S13067   4.831   6.345   8.143 -0.4928  0.7507 -1.4496
  123OSM   H18T13068   4.941   6.353   7.996 -0.9997 -1.1141 -0.7003
  123OSM   H18U13069   4.992   6.273   8.150 -0.2537 -1.0482  0.9689
  123OSM    C1F13070   5.100   5.635   6.832 -0.0095 -0.6058 -0.1435
  123OSM     OF13071   5.108   5.662   6.713  0.2254  0.2494 -0.1882
  123OSM    C2F13072   5.221   5.659   6.918 -0.0036 -0.5226  0.5102
  123OSM    H2F13073   5.276   5.564   6.933 -1.1061 -0.9753  1.7730
  123OSM    H2G13074   5.183   5.688   7.019  4.4315  4.6637  0.9613
  123OSM    C3F13075   5.317   5.770   6.867  0.1545  0.1910 -0.1844
  123OSM    H3F13076   5.266   5.839   6.797 -0.5500  1.5628  1.6394
  123OSM    H3G13077   5.401   5.727   6.809 -0.1812  2.6858 -2.6017
  123OSM    C4F13078   5.386   5.848   6.982  0.2205  0.5292  0.0846
  123OSM    H4F13079   5.416   5.775   7.061  0.4599 -0.1667 -0.6473
  123OSM    H4G13080   5.309   5.917   7.023 -0.5165 -0.0245 -0.3600
  123OSM    C5F13081   5.498   5.929   6.929 -0.9173 -0.0060 -0.0836
  123OSM    H5F13082   5.460   6.002   6.855 -0.9519 -2.3630 -2.4671
  123OSM    H5G13083   5.578   5.865   6.886  0.7885  1.9233  0.1649
  123OSM    C6F13084   5.573   6.011   7.036 -0.2169  0.0781 -0.4433
  123OSM    H6F13085   5.506   6.093   7.068  0.6199  0.2811  0.8509
  123OSM    H6G13086   5.663   6.062   6.995  0.5749  0.1866  1.3804
  123OSM    C7F13087   5.641   5.928   7.147  0.6680 -0.4110 -0.2643
  123OSM    H7F13088   5.682   5.835   7.101 -0.5458 -1.4359  0.6760
  123OSM    H7G13089   5.563   5.884   7.213  1.0771 -0.2597  0.3207
  123OSM    C8F13090   5.738   6.019   7.225  0.3472 -0.0172  0.4630
  123OSM    H8F13091   5.676   6.099   7.270 -0.8047 -0.1320 -0.8890
  123OSM    H8G13092   5.808   6.075   7.159 -1.8149  1.0000 -1.0310
  123OSM    C9F13093   5.806   5.935   7.327  0.6640  0.5443  0.0592
  123OSM    H9F13094   5.873   5.863   7.278  0.2405 -0.0474  0.3482
  123OSM   C10F13095   5.791   5.944   7.461 -0.2818 -0.1936 -0.6368
  123OSM   H10F13096   5.848   5.872   7.522 -0.8953 -1.0908 -1.0999
  123OSM   C11F13097   5.707   6.037   7.539  0.4458 -1.0445 -0.1169
  123OSM   H11F13098   5.608   5.992   7.561 -0.1688 -0.0766 -0.8401
  123OSM   H11G13099   5.680   6.132   7.488 -1.2350 -1.2867  0.3138
  123OSM   C12F13100   5.774   6.080   7.674  0.0347  0.4003  0.9504
  123OSM   H12F13101   5.739   6.183   7.699 -0.8882  0.4129 -0.3256
  123OSM   H12G13102   5.883   6.091   7.660 -0.0650  0.1958 -0.0802
  123OSM   C13F13103   5.743   5.989   7.793 -0.2000  0.0481 -0.2343
  123OSM   H13F13104   5.776   5.886   7.764 -1.0822 -0.2226 -0.2691
  123OSM   H13G13105   5.634   5.991   7.812 -0.2293 -0.4258 -0.3311
  123OSM   C14F13106   5.811   6.021   7.929  0.4338 -0.6326 -0.8614
  123OSM   H14F13107   5.797   6.129   7.953 -0.6369 -0.6722 -1.3173
  123OSM   H14G13108   5.920   6.003   7.916  0.9348  1.9612 -0.5561
  123OSM   C15F13109   5.771   5.923   8.046 -0.0625 -0.1780 -1.1388
  123OSM   H15F13110   5.819   5.823   8.035 -1.0933 -0.8226  0.1205
  123OSM   H15G13111   5.660   5.916   8.045 -0.0056 -1.2107 -2.8062
  123OSM   C16F13112   5.820   5.976   8.180 -0.1562 -0.2756  0.5545
  123OSM   H16F13113   5.791   6.081   8.203 -1.6362 -0.5955  0.1834
  123OSM   H16G13114   5.931   5.984   8.170 -0.0613  0.0786  1.7242
  123OSM   C17F13115   5.780   5.885   8.296 -0.0337 -0.1471 -0.3184
  123OSM   H17F13116   5.812   5.782   8.269 -1.1148  0.1651 -2.9858
  123OSM   H17G13117   5.670   5.896   8.299  0.0651  1.0568 -0.7251
  123OSM   C18F13118   5.856   5.926   8.422  0.4430  0.6725 -0.1235
  123OSM   H18F13119   5.965   5.936   8.404  0.4356  1.8323  0.4472
  123OSM   H18G13120   5.838   5.845   8.495 -1.6352  1.4783  0.2773
  123OSM   H18H13121   5.823   6.022   8.467 -1.5073  0.1708 -0.4272
  124OSM      N13122   6.155   1.571   6.305  0.2634 -0.3950 -0.2991
  124OSM    C1513123   6.012   1.604   6.338  0.2128  0.8521 -0.0756
  124OSM   H15A13124   5.988   1.704   6.304 -0.5788  1.5422  2.3292
  124OSM   H15B13125   5.985   1.595   6.443 -0.8163 -0.3267 -0.4392
  124OSM   H15C13126   5.941   1.539   6.290  1.8232  1.7085 -3.8019
  124OSM    C1413127   6.252   1.614   6.412 -0.4483 -0.0535  1.0592
  124OSM   H14A13128   6.212   1.587   6.509 -2.2989 -0.6141  0.1558
  124OSM   H14B13129   6.268   1.720   6.409  0.2482 -0.1740  0.2180
  124OSM   H14C13130   6.350   1.569   6.403 -0.3972  0.3687 -0.8162
  124OSM    C1313131   6.169   1.422   6.299  0.9075 -0.3836 -0.3388
  124OSM   H13A13132   6.104   1.379   6.224 -0.9336  1.6879  0.0430
  124OSM   H13B13133   6.128   1.385   6.392 -1.3520 -0.4249 -1.3166
  124OSM   H13C13134   6.272   1.395   6.280  0.9023 -0.1712 -0.6764
  124OSM    C1213135   6.196   1.625   6.171  0.7146 -0.1910 -0.5994
  124OSM   H12A13136   6.123   1.593   6.098  0.6448  1.1717 -1.1603
  124OSM   H12B13137   6.293   1.589   6.141  1.4661  0.4379  1.0109
  124OSM    C1113138   6.206   1.787   6.160  0.4639  0.5897 -0.5628
  124OSM   H11A13139   6.111   1.829   6.200  0.4458 -1.6056  1.7935
  124OSM   H11B13140   6.194   1.804   6.051  1.6499  0.6250 -0.6947
  124OSM      P13141   6.461   1.807   6.148  0.0312  0.1117  0.2060
  124OSM    O1313142   6.457   1.668   6.101 -0.2310  0.0485 -0.4936
  124OSM    O1413143   6.503   1.910   6.047 -0.5344 -0.2992  0.0159
  124OSM    O1113144   6.566   1.822   6.266 -0.4634 -0.2289 -0.3217
  124OSM    O1213145   6.323   1.847   6.221 -0.1010 -0.3927 -0.0393
  124OSM    C1S13146   6.553   1.912   6.378 -0.2256 -0.1956 -0.0309
  124OSM    H1S13147   6.447   1.932   6.402 -0.9811 -0.0554 -3.2502
  124OSM    H1T13148   6.610   2.003   6.349 -1.2082 -0.0100 -1.4427
  124OSM     NF13149   6.579   1.914   6.628  0.1335 -0.7100 -0.4008
  124OSM    HNF13150   6.652   1.968   6.670  0.0182 -3.0114  3.0237
  124OSM    C2S13151   6.610   1.835   6.508  0.1928  0.1565  0.9634
  124OSM    H2S13152   6.560   1.735   6.512 -0.1469  0.2628 -0.2141
  124OSM    C3S13153   6.760   1.817   6.484 -0.6027  0.1949 -0.3549
  124OSM    H3S13154   6.796   1.922   6.488  0.7208 -0.2240 -0.8862
  124OSM     O313155   6.805   1.762   6.355  0.0375 -0.0937  0.2214
  124OSM    HO313156   6.732   1.778   6.294 -0.1661  0.4858  0.6092
  124OSM    C4S13157   6.823   1.719   6.589  0.0923  0.0248 -0.1270
  124OSM    H4S13158   6.755   1.633   6.596  1.9948 -1.4026  1.3146
  124OSM    C5S13159   6.940   1.732   6.644  0.6646 -0.1073 -0.2377
  124OSM    H5S13160   6.988   1.829   6.627  1.3549 -0.1351  1.4254
  124OSM    C6S13161   6.998   1.632   6.743  0.5603  0.1258  0.1889
  124OSM    H6S13162   7.074   1.694   6.796  0.0255  1.0083 -0.0657
  124OSM    H6T13163   7.042   1.540   6.698 -0.6844  0.1426 -1.0987
  124OSM    C7S13164   6.909   1.587   6.861 -0.0649  0.5495  0.3827
  124OSM    H7S13165   6.851   1.498   6.828 -0.5793  0.2428  2.0465
  124OSM    H7T13166   6.832   1.664   6.879  1.4794  2.0322  0.7821
  124OSM    C8S13167   6.994   1.566   6.984  0.1300  0.0945 -0.0999
  124OSM    H8S13168   7.101   1.558   6.955 -0.1181  0.3565 -1.1071
  124OSM    H8T13169   6.961   1.479   7.045  0.5759 -0.5881 -0.8310
  124OSM    C9S13170   6.992   1.686   7.083  0.4658 -0.1951  0.2162
  124OSM    H9S13171   6.887   1.683   7.120  0.8928  1.1654  1.5843
  124OSM    H9T13172   7.021   1.780   7.031  1.8975 -0.6488  0.2008
  124OSM   C10S13173   7.096   1.682   7.197 -0.1243 -0.6424 -0.4681
  124OSM   H10S13174   7.092   1.787   7.233  0.7786 -0.6584 -0.3043
  124OSM   H10T13175   7.195   1.655   7.154 -0.3723 -1.8731 -0.2683
  124OSM   C11S13176   7.062   1.586   7.314 -0.2388  0.4775  0.2165
  124OSM   H11S13177   7.032   1.489   7.269 -1.6239  1.2984 -0.6842
  124OSM   H11T13178   6.962   1.612   7.355 -0.3492 -0.3602  0.4872
  124OSM   C12S13179   7.176   1.578   7.418 -0.5192 -0.0541  0.3832
  124OSM   H12S13180   7.168   1.672   7.477  1.6912  1.1577 -1.1795
  124OSM   H12T13181   7.277   1.576   7.372 -1.1058  3.1501 -1.1704
  124OSM   C13S13182   7.186   1.457   7.507  0.1982  0.6396  0.2737
  124OSM   H13S13183   7.284   1.447   7.560  0.0407  1.9338  0.8236
  124OSM   H13T13184   7.170   1.366   7.445  1.9468  1.2258 -1.0762
  124OSM   C14S13185   7.077   1.458   7.616  0.2435  0.8765 -0.1242
  124OSM   H14S13186   7.056   1.351   7.637  0.5038  0.9046  0.2833
  124OSM   H14T13187   6.981   1.499   7.578  0.0594 -2.1533 -3.0685
  124OSM   C15S13188   7.115   1.529   7.744  0.1728  0.0838  0.1320
  124OSM   H15S13189   7.121   1.639   7.729 -3.0287  0.2657 -0.1787
  124OSM   H15T13190   7.208   1.492   7.791  0.6429 -1.0643 -1.6786
  124OSM   C16S13191   7.006   1.511   7.857  0.2881  0.0121 -0.6754
  124OSM   H16S13192   7.009   1.404   7.887 -1.0536 -0.3182 -1.7210
  124OSM   H16T13193   6.906   1.540   7.819  1.0522  0.6783 -2.1940
  124OSM   C17S13194   7.026   1.592   7.987 -0.0124 -0.1245  0.2773
  124OSM   H17S13195   6.936   1.582   8.052 -0.1133 -0.1648  0.1331
  124OSM   H17T13196   7.047   1.692   7.942  0.1236 -1.2194 -2.1686
  124OSM   C18S13197   7.150   1.557   8.072 -0.0869 -0.3103  0.7024
  124OSM   H18S13198   7.241   1.544   8.009 -0.5072 -1.3085  0.2914
  124OSM   H18T13199   7.144   1.460   8.126  0.3754 -0.1209  1.0906
  124OSM   H18U13200   7.174   1.630   8.152 -1.5625  1.1357 -0.1444
  124OSM    C1F13201   6.450   1.928   6.662  0.3920  0.2383 -0.2472
  124OSM     OF13202   6.361   1.864   6.608 -0.7104 -0.3979  0.2236
  124OSM    C2F13203   6.408   2.033   6.763 -0.0640  0.6464 -0.6561
  124OSM    H2F13204   6.334   2.100   6.713  0.3647  1.4310 -0.2538
  124OSM    H2G13205   6.492   2.103   6.778  0.2836  0.2773 -0.8747
  124OSM    C3F13206   6.341   1.990   6.896  0.5244  0.3590  0.0699
  124OSM    H3F13207   6.258   1.921   6.870 -1.2381  3.2667 -2.4114
  124OSM    H3G13208   6.304   2.077   6.954  3.4820  3.4558 -2.4693
  124OSM    C4F13209   6.444   1.899   6.968 -0.1381 -0.0900 -0.2445
  124OSM    H4F13210   6.535   1.963   6.980  1.5081 -2.4928  0.5740
  124OSM    H4G13211   6.469   1.810   6.907  0.4317 -0.7223  0.8951
  124OSM    C5F13212   6.386   1.871   7.105  0.0855 -0.6227 -0.9441
  124OSM    H5F13213   6.284   1.830   7.091  0.0632 -0.6438 -0.7296
  124OSM    H5G13214   6.368   1.963   7.165  0.5146 -1.6054  0.7108
  124OSM    C6F13215   6.474   1.777   7.185 -0.0726 -0.2675  0.1126
  124OSM    H6F13216   6.510   1.697   7.118  0.2447 -1.7119  1.9716
  124OSM    H6G13217   6.398   1.735   7.254  1.3881 -2.4203  0.4548
  124OSM    C7F13218   6.582   1.852   7.275  0.6728 -0.2875 -0.1876
  124OSM    H7F13219   6.535   1.938   7.328 -0.3718 -1.3189  0.5965
  124OSM    H7G13220   6.661   1.894   7.210  0.2297  1.2146  0.2233
  124OSM    C8F13221   6.647   1.752   7.380  0.4127 -0.1008  0.4307
  124OSM    H8F13222   6.739   1.803   7.414  1.1368 -0.3719 -1.0904
  124OSM    H8G13223   6.678   1.662   7.323  0.6278 -0.4449  1.0800
  124OSM    C9F13224   6.547   1.723   7.483 -0.8198 -1.0359  0.4083
  124OSM    H9F13225   6.462   1.668   7.440 -1.5602  1.0785 -0.9439
  124OSM   C10F13226   6.549   1.762   7.607  0.7841  0.2176 -0.3815
  124OSM   H10F13227   6.467   1.725   7.670  0.6549 -1.1143 -1.3116
  124OSM   C11F13228   6.660   1.838   7.671 -0.1390 -0.0391  0.4738
  124OSM   H11F13229   6.626   1.941   7.696 -0.1388  0.4524 -1.5225
  124OSM   H11G13230   6.745   1.863   7.605  1.4603 -0.0122  2.4861
  124OSM   C12F13231   6.712   1.787   7.805  0.4130 -0.6305 -0.4748
  124OSM   H12F13232   6.816   1.825   7.806  0.1964 -0.0336 -0.2271
  124OSM   H12G13233   6.728   1.677   7.805  0.7492 -0.5814  0.0904
  124OSM   C13F13234   6.632   1.822   7.938  0.1688 -0.2897 -0.0200
  124OSM   H13F13235   6.526   1.790   7.927  1.1447 -3.3104 -1.0001
  124OSM   H13G13236   6.621   1.932   7.948 -2.4877 -0.5680  0.5135
  124OSM   C14F13237   6.688   1.760   8.065 -0.5476  0.0054  0.1765
  124OSM   H14F13238   6.740   1.667   8.034  2.4223  1.9540 -0.8684
  124OSM   H14G13239   6.605   1.732   8.133 -1.7346  0.4216 -1.0610
  124OSM   C15F13240   6.793   1.845   8.137 -0.2176  0.0762 -0.3204
  124OSM   H15F13241   6.742   1.941   8.157  1.6655  1.6141 -2.6073
  124OSM   H15G13242   6.888   1.863   8.083 -0.1322  3.5201  0.8828
  124OSM   C16F13243   6.820   1.801   8.284  0.3627  0.4193  0.0107
  124OSM   H16F13244   6.881   1.709   8.273 -1.2862 -0.6582 -0.4024
  124OSM   H16G13245   6.725   1.793   8.343  0.5278 -2.0282  0.0243
  124OSM   C17F13246   6.905   1.912   8.351 -0.1425  0.0827  0.7520
  124OSM   H17F13247   6.857   2.008   8.320  1.5618  0.8608  0.4486
  124OSM   H17G13248   7.004   1.893   8.304 -1.3214 -1.9572 -1.0199
  124OSM   C18F13249   6.916   1.895   8.504 -0.4607 -0.3517  0.1005
  124OSM   H18F13250   6.834   1.957   8.546 -0.9201  2.2214 -4.3362
  124OSM   H18G13251   7.006   1.952   8.536 -1.2020  0.9405 -0.1047
  124OSM   H18H13252   6.916   1.789   8.538  1.4022  0.1117  1.6766
  125OSM      N13253   1.992   0.693   6.008  0.7517  0.0647  0.0222
  125OSM    C1513254   2.074   0.809   5.945 -0.2227  0.3103  0.1706
  125OSM   H15A13255   2.180   0.808   5.966 -0.2548 -0.9986  0.3290
  125OSM   H15B13256   2.030   0.906   5.961 -2.2876 -0.2342 -1.8419
  125OSM   H15C13257   2.071   0.797   5.837 -0.1321  0.5839  0.1384
  125OSM    C1413258   1.984   0.712   6.152 -0.5486  0.4131  0.1012
  125OSM   H14A13259   2.085   0.699   6.188 -0.2458  1.3628 -0.3822
  125OSM   H14B13260   1.921   0.643   6.206  1.1695 -0.6649  0.7544
  125OSM   H14C13261   1.957   0.816   6.168 -0.0547 -0.0383  4.3134
  125OSM    C1313262   1.859   0.700   5.935 -0.1403  0.0313 -0.5545
  125OSM   H13A13263   1.788   0.634   5.981  1.3304 -0.1939  1.4615
  125OSM   H13B13264   1.867   0.663   5.833 -2.1061  0.9406 -1.0727
  125OSM   H13C13265   1.810   0.796   5.924 -1.8357 -0.7616  0.0004
  125OSM    C1213266   2.061   0.563   5.974  0.5863  0.5390  0.0931
  125OSM   H12A13267   2.162   0.565   6.010  0.8022  0.8578 -0.5342
  125OSM   H12B13268   2.081   0.555   5.868 -1.2216  1.5537 -0.3504
  125OSM    C1113269   2.009   0.427   6.016 -0.3583 -0.0684 -0.3248
  125OSM   H11A13270   1.980   0.372   5.924 -1.0549 -0.7376  0.2819
  125OSM   H11B13271   1.916   0.450   6.073 -1.7079  0.2327 -2.5793
  125OSM      P13272   2.067   0.242   6.188 -0.2399 -0.4267  0.3641
  125OSM    O1313273   1.961   0.164   6.123  0.5225 -0.3412 -1.3603
  125OSM    O1413274   2.186   0.167   6.236 -0.2610 -0.2922 -0.3880
  125OSM    O1113275   2.005   0.325   6.310  0.3305 -0.1532 -0.6349
  125OSM    O1213276   2.108   0.348   6.082 -0.4071  0.4792 -0.4210
  125OSM    C1S13277   1.958   0.251   6.421 -0.2721 -0.5476  1.1728
  125OSM    H1S13278   2.003   0.152   6.440  2.2531  0.7938  2.3552
  125OSM    H1T13279   1.848   0.238   6.409 -0.8019  2.1065  2.8222
  125OSM     NF13280   1.953   0.235   6.665  0.1909 -0.3184 -0.0158
  125OSM    HNF13281   1.870   0.245   6.720  0.4282  3.8556 -0.2665
  125OSM    C2S13282   1.985   0.322   6.556  0.1565 -1.0613  0.3943
  125OSM    H2S13283   2.095   0.340   6.553  0.1727 -1.0170  1.0556
  125OSM    C3S13284   1.914   0.460   6.561 -0.3999 -0.4622 -0.1985
  125OSM    H3S13285   1.813   0.439   6.600 -0.4118  3.1243  1.9501
  125OSM     O313286   1.898   0.533   6.440  0.0304 -0.5098  0.4414
  125OSM    HO313287   1.911   0.471   6.367  1.8709 -1.2391  1.3395
  125OSM    C4S13288   1.975   0.543   6.672 -0.0554 -0.0655 -0.1605
  125OSM    H4S13289   1.921   0.551   6.768  1.9686  0.4617  0.9741
  125OSM    C5S13290   2.078   0.624   6.663  0.6632 -0.1106 -0.2667
  125OSM    H5S13291   2.143   0.628   6.574  0.4799 -0.2732 -0.4084
  125OSM    C6S13292   2.131   0.709   6.777  0.3554  0.3578 -0.2262
  125OSM    H6S13293   2.176   0.802   6.738  2.3801 -1.2478 -1.8454
  125OSM    H6T13294   2.208   0.652   6.833  0.3838  0.2641 -0.3586
  125OSM    C7S13295   2.033   0.742   6.889 -0.3132  0.7892 -0.3399
  125OSM    H7S13296   1.985   0.648   6.923  2.8381 -0.8588 -0.1906
  125OSM    H7T13297   1.961   0.819   6.854 -0.9393  0.6752  0.6858
  125OSM    C8S13298   2.109   0.803   7.008 -0.0776  0.3652 -0.1068
  125OSM    H8S13299   2.176   0.887   6.977  0.1809  0.5369  0.8954
  125OSM    H8T13300   2.181   0.728   7.046 -1.3548 -2.2516 -2.7073
  125OSM    C9S13301   2.024   0.844   7.128  0.1070  0.7642  0.6777
  125OSM    H9S13302   1.964   0.757   7.162  2.2257 -0.8087  0.5106
  125OSM    H9T13303   1.950   0.922   7.103  0.5683  0.8238 -0.5011
  125OSM   C10S13304   2.090   0.915   7.245 -0.3633  0.7976  0.1250
  125OSM   H10S13305   2.133   1.010   7.207 -1.1220  0.8618 -0.5842
  125OSM   H10T13306   2.174   0.853   7.281 -1.0583 -0.7928 -0.9347
  125OSM   C11S13307   2.008   0.952   7.373  0.6287 -0.5925 -0.8230
  125OSM   H11S13308   1.972   0.858   7.420 -0.5210  0.7630  1.0528
  125OSM   H11T13309   1.917   1.009   7.344  2.4674  1.8905 -1.9309
  125OSM   C12S13310   2.076   1.046   7.469  0.2286  0.3959  0.0641
  125OSM   H12S13311   2.089   1.146   7.425  0.3556  0.3781  0.0640
  125OSM   H12T13312   2.180   1.017   7.494 -0.9056 -1.0454  3.5499
  125OSM   C13S13313   1.993   1.055   7.604  0.6930 -0.1948 -0.2734
  125OSM   H13S13314   1.898   1.093   7.561  0.5232  0.9927  1.1419
  125OSM   H13T13315   2.028   1.142   7.663  0.4012  0.1411 -0.5914
  125OSM   C14S13316   1.957   0.926   7.679 -0.1287  0.1397  1.0000
  125OSM   H14S13317   1.954   0.835   7.616 -0.8899  0.1479  1.0292
  125OSM   H14T13318   1.861   0.938   7.732 -1.0819 -2.1808 -0.1264
  125OSM   C15S13319   2.068   0.894   7.780  0.6248  0.3375 -0.6673
  125OSM   H15S13320   2.108   0.992   7.813 -2.7557  0.9716  1.7670
  125OSM   H15T13321   2.148   0.847   7.718 -0.3648 -2.7578  0.3203
  125OSM   C16S13322   2.036   0.827   7.914 -0.2557  0.1999  0.5855
  125OSM   H16S13323   2.045   0.718   7.897  3.8248  0.2488  1.9283
  125OSM   H16T13324   1.930   0.833   7.947 -0.3242  1.6335  0.1364
  125OSM   C17S13325   2.132   0.876   8.024 -0.5709  0.1113 -0.0782
  125OSM   H17S13326   2.233   0.864   7.979 -0.3519 -1.8347  0.8893
  125OSM   H17T13327   2.106   0.808   8.108 -4.2550  1.8663  0.2933
  125OSM   C18S13328   2.122   1.019   8.082 -0.0523  0.8441 -0.0185
  125OSM   H18S13329   2.133   1.100   8.007 -2.6656  0.8038 -0.4956
  125OSM   H18T13330   2.197   1.015   8.164 -0.2585 -1.3199  0.0991
  125OSM   H18U13331   2.027   1.037   8.136  0.3077 -1.9022  1.6223
  125OSM    C1F13332   2.025   0.134   6.696  0.4298  0.7286  0.4063
  125OSM     OF13333   2.136   0.110   6.645 -0.5425 -0.3730  0.3856
  125OSM    C2F13334   1.962   0.028   6.785  0.2558  0.1620  0.0135
  125OSM    H2F13335   1.948  -0.068   6.731 -0.8443 -0.1153  0.7854
  125OSM    H2G13336   1.869   0.075   6.821 -0.0412 -0.2308 -0.2361
  125OSM    C3F13337   2.041  -0.021   6.907  0.2088 -0.6911 -0.2489
  125OSM    H3F13338   2.080   0.063   6.968 -0.0881 -1.5292  1.1137
  125OSM    H3G13339   2.116  -0.099   6.881 -0.4596 -1.6887  0.7141
  125OSM    C4F13340   1.961  -0.103   7.007  0.4226  0.3723  0.7993
  125OSM    H4F13341   1.931  -0.198   6.959  2.7492  0.0112 -0.0335
  125OSM    H4G13342   1.868  -0.053   7.042 -0.3555 -0.7636  0.3726
  125OSM    C5F13343   2.033  -0.130   7.137 -0.1811  0.9868 -0.2029
  125OSM    H5F13344   2.066  -0.041   7.194 -1.0737  1.4717 -0.4319
  125OSM    H5G13345   2.124  -0.190   7.116  0.4731  1.2570  1.8327
  125OSM    C6F13346   1.950  -0.212   7.238 -0.2825  0.9450 -0.0148
  125OSM    H6F13347   1.890  -0.281   7.175  3.2763 -0.2681 -2.1913
  125OSM    H6G13348   1.875  -0.140   7.279  2.0244  2.7025  1.2155
  125OSM    C7F13349   2.031  -0.288   7.347 -0.1759  0.3828 -0.8225
  125OSM    H7F13350   2.131  -0.304   7.300 -0.6161  3.8769 -3.1563
  125OSM    H7G13351   1.976  -0.385   7.346 -3.3853  2.1154 -0.3785
  125OSM    C8F13352   2.030  -0.214   7.481  0.2965  0.2968  0.1081
  125OSM    H8F13353   1.927  -0.201   7.521 -1.1628 -1.0077 -3.0606
  125OSM    H8G13354   2.074  -0.113   7.473  1.7174 -0.1943  1.4207
  125OSM    C9F13355   2.106  -0.302   7.580  0.1487  0.5864 -0.0585
  125OSM    H9F13356   2.207  -0.330   7.547 -0.6197 -1.9900 -0.2979
  125OSM   C10F13357   2.055  -0.369   7.688  0.2089 -0.2477  0.5363
  125OSM   H10F13358   2.119  -0.440   7.744  0.5432 -2.0980 -2.1225
  125OSM   C11F13359   1.912  -0.364   7.731  0.8534  0.1475 -0.1771
  125OSM   H11F13360   1.845  -0.433   7.676 -0.5616 -0.4564  2.2587
  125OSM   H11G13361   1.877  -0.260   7.715 -1.8330 -0.6846  0.0555
  125OSM   C12F13362   1.898  -0.420   7.869 -0.5049  0.5818 -0.5484
  125OSM   H12F13363   1.942  -0.521   7.879 -2.3369 -0.2703 -0.8108
  125OSM   H12G13364   1.788  -0.438   7.867 -0.2221 -1.1052 -3.4688
  125OSM   C13F13365   1.950  -0.339   7.979  0.6217 -0.3450 -0.2007
  125OSM   H13F13366   1.911  -0.236   7.995  2.6590  0.4858 -0.4591
  125OSM   H13G13367   2.059  -0.323   7.966  0.3244  1.2119 -0.9663
  125OSM   C14F13368   1.925  -0.420   8.106  0.3756  0.7073  0.7499
  125OSM   H14F13369   1.951  -0.527   8.090 -1.7564  0.4276 -1.1201
  125OSM   H14G13370   1.814  -0.426   8.115  0.3358 -2.0065 -1.1233
  125OSM   C15F13371   1.987  -0.375   8.240  0.0798 -0.3342  0.4669
  125OSM   H15F13372   1.951  -0.270   8.254 -0.8434 -0.5468 -0.3072
  125OSM   H15G13373   2.098  -0.374   8.231  0.1501 -0.6934  1.1948
  125OSM   C16F13374   1.936  -0.449   8.367  0.4908  0.5910 -0.0977
  125OSM   H16F13375   1.964  -0.556   8.353  0.9121  0.6774  0.0732
  125OSM   H16G13376   1.828  -0.455   8.390  0.7335 -0.4163  0.8113
  125OSM   C17F13377   1.990  -0.400   8.502  0.7005  0.0594 -0.1539
  125OSM   H17F13378   1.949  -0.298   8.517  2.1672  0.3058  2.4284
  125OSM   H17G13379   2.100  -0.389   8.514  0.7454 -0.6738  0.0970
  125OSM   C18F13380   1.956  -0.495   8.615  0.7635  0.2526  0.4065
  125OSM   H18F13381   1.995  -0.461   8.713 -0.5198 -0.7705  1.2927
  125OSM   H18G13382   2.006  -0.592   8.597 -0.7069 -0.6371  1.0374
  125OSM   H18H13383   1.845  -0.501   8.627  1.0248 -2.0198  2.1078
  126OSM      N13384   6.149   4.717   6.324  0.1046 -0.2479 -0.1956
  126OSM    C1513385   6.249   4.724   6.224 -0.0043 -0.4902  0.2732
  126OSM   H15A13386   6.315   4.638   6.217 -1.2310 -1.3056 -1.5686
  126OSM   H15B13387   6.312   4.812   6.233  2.2910 -1.9921 -0.4582
  126OSM   H15C13388   6.205   4.731   6.126 -0.9963  3.0037  0.9140
  126OSM    C1413389   6.049   4.822   6.303  0.2589  0.0638  0.3440
  126OSM   H14A13390   6.018   4.828   6.200  2.1607 -1.7236 -0.3599
  126OSM   H14B13391   6.091   4.919   6.326 -2.2390  1.9295 -2.5662
  126OSM   H14C13392   5.967   4.792   6.365  0.1498 -0.5420 -0.0948
  126OSM    C1313393   6.074   4.591   6.310  0.8444 -0.0121 -0.2443
  126OSM   H13A13394   5.999   4.588   6.388  0.9914  0.1041 -0.0975
  126OSM   H13B13395   6.138   4.504   6.303 -0.2760 -1.0417  1.7280
  126OSM   H13C13396   6.017   4.600   6.219  2.5785  1.4752 -1.2106
  126OSM    C1213397   6.219   4.727   6.459 -0.7383  0.6088 -0.5976
  126OSM   H12A13398   6.260   4.826   6.476  0.2249  0.0766  0.2896
  126OSM   H12B13399   6.293   4.648   6.463 -1.8080 -0.3316  1.1817
  126OSM    C1113400   6.132   4.702   6.584  0.2387 -0.7301 -0.2044
  126OSM   H11A13401   6.198   4.712   6.673 -1.7946  0.8298  1.1933
  126OSM   H11B13402   6.090   4.599   6.576 -1.2077 -0.1948  0.3231
  126OSM      P13403   6.022   4.932   6.628 -0.0545  0.0132 -0.0451
  126OSM    O1313404   6.157   4.952   6.682  0.4657  0.7170  0.2997
  126OSM    O1413405   5.979   5.009   6.512  0.7792 -0.9571  0.0403
  126OSM    O1113406   5.925   4.945   6.748  0.3073 -0.1645  0.5818
  126OSM    O1213407   6.019   4.782   6.588  0.5079 -0.4256  0.0383
  126OSM    C1S13408   5.879   4.823   6.816  0.1813  0.3073 -0.9867
  126OSM    H1S13409   5.966   4.758   6.841 -0.1870  1.1704  2.8197
  126OSM    H1T13410   5.799   4.775   6.756 -0.2397  0.3004 -0.4221
  126OSM     NF13411   5.764   4.732   7.007 -0.6271 -0.0277  0.0387
  126OSM    HNF13412   5.677   4.700   6.972 -0.7465 -0.0997  0.4081
  126OSM    C2S13413   5.809   4.856   6.946  0.0854 -0.1113 -0.2755
  126OSM    H2S13414   5.885   4.902   7.012  0.7741 -0.4037 -0.8535
  126OSM    C3S13415   5.695   4.958   6.921  0.6459  0.4040  0.7236
  126OSM    H3S13416   5.621   4.921   6.846  2.3023 -0.7896 -0.3665
  126OSM     O313417   5.749   5.069   6.860  0.0582 -0.1548  0.4721
  126OSM    HO313418   5.817   5.031   6.805  0.2901 -0.4742  0.9710
  126OSM    C4S13419   5.622   4.988   7.048  0.0443  0.4941  0.0036
  126OSM    H4S13420   5.683   5.044   7.122  0.7613  0.2165 -0.3745
  126OSM    C5S13421   5.493   4.978   7.071  0.6400 -1.4923 -0.4881
  126OSM    H5S13422   5.432   4.943   6.988 -2.2356  0.4290  0.7380
  126OSM    C6S13423   5.429   5.012   7.207 -0.3815  0.3614 -0.5785
  126OSM    H6S13424   5.358   4.931   7.231 -0.3230  0.6917  0.7368
  126OSM    H6T13425   5.362   5.100   7.195  1.4564  1.6059 -2.1263
  126OSM    C7S13426   5.535   5.038   7.319 -0.1662  0.5599 -0.4207
  126OSM    H7S13427   5.590   5.128   7.284 -1.5649  1.0901 -1.3135
  126OSM    H7T13428   5.602   4.951   7.332 -2.8913 -1.5515  0.0836
  126OSM    C8S13429   5.463   5.070   7.452 -0.1734  0.1443  0.0542
  126OSM    H8S13430   5.391   4.993   7.489  0.3956  0.3914  1.6994
  126OSM    H8T13431   5.413   5.167   7.433 -1.2917 -0.6473 -1.2192
  126OSM    C9S13432   5.553   5.077   7.570 -0.5914  0.5001  0.0600
  126OSM    H9S13433   5.639   5.138   7.535  1.4158 -2.7731 -0.9821
  126OSM    H9T13434   5.581   4.972   7.596  2.3514  1.0607 -0.6474
  126OSM   C10S13435   5.469   5.136   7.685 -0.2774  0.2760 -0.3925
  126OSM   H10S13436   5.370   5.088   7.674  0.5048 -0.7884 -3.2531
  126OSM   H10T13437   5.460   5.246   7.675  0.0858  0.0958 -2.9898
  126OSM   C11S13438   5.511   5.103   7.829  0.6877  0.1326  0.3623
  126OSM   H11S13439   5.614   5.137   7.850  0.7561 -0.5151  1.1110
  126OSM   H11T13440   5.503   4.992   7.832 -0.7529  0.2041 -0.0973
  126OSM   C12S13441   5.415   5.165   7.931  0.4951 -0.6064  0.5974
  126OSM   H12S13442   5.316   5.116   7.923 -0.4731  0.8941  2.8529
  126OSM   H12T13443   5.424   5.275   7.914  0.1108 -0.5509  0.7530
  126OSM   C13S13444   5.469   5.132   8.070  0.8404  0.4395  0.2887
  126OSM   H13S13445   5.575   5.166   8.070  0.9192  0.1966  0.5056
  126OSM   H13T13446   5.473   5.022   8.088  0.3429  0.9210  3.6483
  126OSM   C14S13447   5.387   5.191   8.178  0.5337  0.0987  0.1793
  126OSM   H14S13448   5.281   5.163   8.161  0.8693 -1.0102 -0.1507
  126OSM   H14T13449   5.396   5.302   8.177 -2.6571  0.4016  0.5640
  126OSM   C15S13450   5.436   5.141   8.317  0.7311  0.6071 -0.0805
  126OSM   H15S13451   5.544   5.167   8.326  0.7283  0.4845  0.3174
  126OSM   H15T13452   5.423   5.031   8.318 -0.6600  0.7562 -0.2041
  126OSM   C16S13453   5.361   5.211   8.428  0.1711 -0.1650  0.6554
  126OSM   H16S13454   5.363   5.322   8.418 -0.3388 -0.1105  1.1561
  126OSM   H16T13455   5.406   5.205   8.530  0.6160  1.6825  0.6018
  126OSM   C17S13456   5.219   5.161   8.452  0.3297 -0.0647 -0.5193
  126OSM   H17S13457   5.235   5.052   8.469  1.5000  0.4102  1.5498
  126OSM   H17T13458   5.151   5.184   8.368 -2.5745  0.6036  1.9232
  126OSM   C18S13459   5.158   5.221   8.576  0.1362  0.5420  0.2273
  126OSM   H18S13460   5.218   5.213   8.669 -0.1441 -2.2194  0.2261
  126OSM   H18T13461   5.070   5.158   8.601  0.6206 -0.3373 -0.2745
  126OSM   H18U13462   5.123   5.326   8.568 -0.2898  0.4392  0.7323
  126OSM    C1F13463   5.842   4.634   7.054  0.1685  0.3537 -0.6873
  126OSM     OF13464   5.961   4.645   7.076 -0.0341 -0.0836 -0.1913
  126OSM    C2F13465   5.780   4.502   7.064  0.7189  0.6367  0.4069
  126OSM    H2F13466   5.780   4.451   6.966 -0.2941  0.0346  0.7123
  126OSM    H2G13467   5.673   4.518   7.093  0.6724 -0.4631  0.8754
  126OSM    C3F13468   5.853   4.414   7.177 -0.2192 -0.5828 -0.4384
  126OSM    H3F13469   5.871   4.477   7.266 -0.9275 -1.4752  0.3489
  126OSM    H3G13470   5.949   4.382   7.133  0.0862  0.4983 -0.5709
  126OSM    C4F13471   5.791   4.282   7.220  1.0224  0.5742  0.2026
  126OSM    H4F13472   5.777   4.219   7.129  1.2992  0.3720  0.2995
  126OSM    H4G13473   5.690   4.299   7.261 -0.8054 -1.4364 -3.1645
  126OSM    C5F13474   5.871   4.207   7.334  0.0483 -0.5280  0.3251
  126OSM    H5F13475   5.981   4.206   7.320 -0.2273  2.1678 -2.4950
  126OSM    H5G13476   5.842   4.101   7.320  0.0520 -0.5566  0.5208
  126OSM    C6F13477   5.834   4.260   7.473  0.0759 -0.3103 -0.4241
  126OSM    H6F13478   5.726   4.236   7.482  0.1848 -0.6882 -0.1536
  126OSM    H6G13479   5.857   4.368   7.489 -2.5612  0.5535 -2.0004
  126OSM    C7F13480   5.912   4.185   7.580  0.0379 -0.1480  0.3157
  126OSM    H7F13481   5.997   4.252   7.601  0.9743 -0.6541 -1.7940
  126OSM    H7G13482   5.958   4.092   7.540  0.5491 -0.0555  0.6789
  126OSM    C8F13483   5.822   4.157   7.708  0.6058  0.7448 -0.0802
  126OSM    H8F13484   5.730   4.111   7.668  1.7340 -1.0855 -0.6285
  126OSM    H8G13485   5.798   4.253   7.759 -1.2895  0.8719 -1.1597
  126OSM    C9F13486   5.886   4.049   7.799 -0.7571  0.5319  0.4036
  126OSM    H9F13487   5.940   3.970   7.745  0.2186  0.8570  0.8726
  126OSM   C10F13488   5.897   4.051   7.931  0.0618 -0.1147 -0.3354
  126OSM   H10F13489   5.955   3.969   7.976  0.0868  1.8273  3.3553
  126OSM   C11F13490   5.859   4.163   8.025  0.3318 -0.3773 -0.1921
  126OSM   H11F13491   5.823   4.129   8.124 -0.6961  1.8344  0.2362
  126OSM   H11G13492   5.779   4.228   7.983  1.0696 -1.8781 -4.1631
  126OSM   C12F13493   5.979   4.256   8.060 -0.1495 -0.1289  0.0835
  126OSM   H12F13494   6.028   4.297   7.969 -1.0890 -2.5581 -1.5550
  126OSM   H12G13495   6.050   4.200   8.124 -0.6984 -1.0060 -0.0687
  126OSM   C13F13496   5.943   4.376   8.144 -0.0745  0.2989 -0.5245
  126OSM   H13F13497   5.868   4.450   8.108 -2.8622 -0.9589  2.4474
  126OSM   H13G13498   6.041   4.425   8.161 -0.9402  1.7600  0.3333
  126OSM   C14F13499   5.897   4.341   8.289  0.6535  0.2830 -0.4076
  126OSM   H14F13500   5.958   4.256   8.328 -2.5680 -1.5149  0.9462
  126OSM   H14G13501   5.795   4.295   8.287  1.3435 -1.2673 -2.2768
  126OSM   C15F13502   5.907   4.460   8.388 -0.1069  0.4745 -0.0995
  126OSM   H15F13503   5.840   4.544   8.360  0.3933  0.5400 -1.1254
  126OSM   H15G13504   6.010   4.497   8.373  0.0239  0.8733  1.7337
  126OSM   C16F13505   5.882   4.416   8.537  0.6097 -0.1844 -0.4264
  126OSM   H16F13506   5.898   4.501   8.607 -1.4323 -1.1217  1.2283
  126OSM   H16G13507   5.965   4.343   8.551 -1.0621 -2.4279 -1.9187
  126OSM   C17F13508   5.745   4.344   8.567  0.6141  0.2275 -0.1253
  126OSM   H17F13509   5.719   4.295   8.470 -1.2640 -0.4940  0.7322
  126OSM   H17G13510   5.667   4.419   8.588 -0.5458 -0.7229 -0.9883
  126OSM   C18F13511   5.754   4.247   8.692 -0.5435 -0.0553  0.9005
  126OSM   H18F13512   5.663   4.186   8.711 -0.5697 -0.1785  0.3814
  126OSM   H18G13513   5.762   4.314   8.780 -0.2764 -0.5259  1.2370
  126OSM   H18H13514   5.839   4.177   8.676 -0.9825 -0.9083  2.1817
  127OSM      N13515   4.481   5.829   6.613 -0.1074 -0.1317  0.0866
  127OSM    C1513516   4.334   5.842   6.649 -0.2220 -0.3574 -0.4295
  127OSM   H15A13517   4.327   5.925   6.718 -0.1976 -0.3733 -0.4083
  127OSM   H15B13518   4.307   5.745   6.688  0.8903 -1.2034 -1.7298
  127OSM   H15C13519   4.269   5.862   6.565  1.7623 -0.3781 -1.9964
  127OSM    C1413520   4.559   5.831   6.740  0.9141  0.1566 -0.0155
  127OSM   H14A13521   4.521   5.749   6.800  0.0876  0.3713 -0.2319
  127OSM   H14B13522   4.549   5.924   6.795  2.7816 -0.5657  1.6045
  127OSM   H14C13523   4.664   5.813   6.727  1.2499  0.2086  2.4330
  127OSM    C1313524   4.517   5.699   6.553  0.6792 -0.0690 -0.4098
  127OSM   H13A13525   4.621   5.672   6.567  1.1879  1.2548 -1.4956
  127OSM   H13B13526   4.493   5.688   6.449  1.2764  4.0860 -1.0586
  127OSM   H13C13527   4.464   5.619   6.602  0.9027  0.5787  0.9102
  127OSM    C1213528   4.519   5.946   6.517  0.0939  0.3820 -0.5885
  127OSM   H12A13529   4.627   5.950   6.516  0.1176 -0.2833 -1.5544
  127OSM   H12B13530   4.485   6.040   6.559  0.4420  0.9218 -1.4889
  127OSM    C1113531   4.461   5.938   6.375  0.4126 -0.5692  0.1258
  127OSM   H11A13532   4.351   5.926   6.385  0.3637 -1.4919 -1.4297
  127OSM   H11B13533   4.503   5.845   6.330  3.6524  0.1579  1.5321
  127OSM      P13534   4.396   6.184   6.290  0.2289 -0.0641 -0.2454
  127OSM    O1313535   4.448   6.296   6.206 -0.4528  0.3553  0.0946
  127OSM    O1413536   4.259   6.138   6.262  0.1063 -0.6773  0.0321
  127OSM    O1113537   4.409   6.237   6.441 -0.1938 -0.4664  0.6576
  127OSM    O1213538   4.492   6.050   6.290 -0.5199 -0.0134 -0.5931
  127OSM    C1S13539   4.302   6.217   6.530  0.0740  0.0285 -0.3396
  127OSM    H1S13540   4.279   6.113   6.559 -1.2594  0.8695  1.7454
  127OSM    H1T13541   4.204   6.251   6.489 -0.2263  0.7873  0.9850
  127OSM     NF13542   4.201   6.303   6.728 -0.3699 -0.1261 -0.2488
  127OSM    HNF13543   4.148   6.387   6.721 -0.6986 -0.4554 -2.2140
  127OSM    C2S13544   4.323   6.302   6.659 -0.1430  0.6070 -0.1600
  127OSM    H2S13545   4.391   6.244   6.726 -1.8063 -1.7414 -0.4337
  127OSM    C3S13546   4.376   6.442   6.622  0.6327 -0.5639 -0.5516
  127OSM    H3S13547   4.319   6.483   6.536 -1.6191 -1.8760  0.2732
  127OSM     O313548   4.512   6.439   6.582  0.2383 -0.7765 -0.0046
  127OSM    HO313549   4.513   6.360   6.527  1.6425 -0.4705 -0.4230
  127OSM    C4S13550   4.361   6.536   6.738 -0.3809  0.5600 -0.9885
  127OSM    H4S13551   4.418   6.497   6.824 -0.4601 -4.3012 -2.9666
  127OSM    C5S13552   4.282   6.646   6.743  0.3443  0.2807  0.8438
  127OSM    H5S13553   4.216   6.671   6.659  0.7785 -2.9430 -0.5039
  127OSM    C6S13554   4.268   6.738   6.866  0.7836 -0.4239 -0.0001
  127OSM    H6S13555   4.283   6.842   6.831 -2.3926 -0.7391 -2.4062
  127OSM    H6T13556   4.344   6.710   6.943  1.8802  0.8060 -0.6101
  127OSM    C7S13557   4.121   6.736   6.927 -0.0124 -0.1364  0.5004
  127OSM    H7S13558   4.048   6.735   6.843  0.4006 -2.2580  0.1297
  127OSM    H7T13559   4.106   6.830   6.984 -0.2394 -0.0785  0.3467
  127OSM    C8S13560   4.092   6.609   7.008 -0.3543  0.7655  0.3025
  127OSM    H8S13561   4.182   6.548   7.028 -1.1533 -0.8061 -0.7124
  127OSM    H8T13562   4.028   6.553   6.936 -1.0750  2.7621 -0.6610
  127OSM    C9S13563   4.027   6.636   7.138  0.1205  0.0732  0.1590
  127OSM    H9S13564   3.925   6.675   7.118 -0.0283  0.3536  1.4197
  127OSM    H9T13565   4.084   6.717   7.188 -0.2131 -0.9647  2.2629
  127OSM   C10S13566   4.014   6.512   7.234 -0.1245 -1.0898  1.2774
  127OSM   H10S13567   4.108   6.452   7.239  1.3691  1.0375 -0.2214
  127OSM   H10T13568   3.954   6.437   7.178 -0.8062 -0.6543  1.4250
  127OSM   C11S13569   3.963   6.534   7.375  0.1844  0.2579  0.6491
  127OSM   H11S13570   3.964   6.430   7.412 -1.5959 -0.2828 -0.7511
  127OSM   H11T13571   3.862   6.579   7.367  0.0037 -0.4532 -1.2707
  127OSM   C12S13572   4.049   6.626   7.461 -0.4234 -0.1207  0.1035
  127OSM   H12S13573   4.052   6.718   7.399  0.6119 -0.1219  0.1451
  127OSM   H12T13574   4.153   6.588   7.460 -0.9041 -1.4554  0.0958
  127OSM   C13S13575   3.985   6.636   7.599  0.2347 -0.5689  0.7581
  127OSM   H13S13576   3.884   6.681   7.584 -0.0061 -0.5896  2.3091
  127OSM   H13T13577   4.027   6.715   7.664  1.0685 -0.1058 -0.3193
  127OSM   C14S13578   3.997   6.504   7.678 -0.6722  0.2101 -0.0519
  127OSM   H14S13579   4.107   6.490   7.679 -0.8817 -1.6048  1.1487
  127OSM   H14T13580   3.961   6.418   7.618  2.3571 -2.1634  1.3700
  127OSM   C15S13581   3.947   6.500   7.822 -0.6057  0.7801  0.2239
  127OSM   H15S13582   3.841   6.532   7.826 -1.9659 -2.8154 -3.3135
  127OSM   H15T13583   4.002   6.581   7.873  2.5396 -1.1258 -0.0215
  127OSM   C16S13584   3.974   6.366   7.886  0.5623  0.4016 -0.5823
  127OSM   H16S13585   4.084   6.348   7.878  0.5488  0.3986 -0.7692
  127OSM   H16T13586   3.930   6.279   7.834  0.8430 -0.8972  1.3228
  127OSM   C17S13587   3.931   6.346   8.032  0.3252 -0.1717 -0.0624
  127OSM   H17S13588   3.942   6.238   8.056 -0.4082 -0.0161  0.9968
  127OSM   H17T13589   3.821   6.364   8.038  0.3034 -0.1364 -0.5287
  127OSM   C18S13590   4.018   6.416   8.135 -0.7747  0.2380 -0.1056
  127OSM   H18S13591   3.991   6.523   8.126  0.3371  0.4794 -0.6708
  127OSM   H18T13592   4.126   6.409   8.111 -0.6589 -0.6464  0.6449
  127OSM   H18U13593   3.998   6.388   8.241  1.0559 -0.1072  0.1732
  127OSM    C1F13594   4.143   6.200   6.784  0.1370  0.0986  0.7318
  127OSM     OF13595   4.191   6.085   6.774 -0.1730 -0.1004  0.1364
  127OSM    C2F13596   4.023   6.229   6.868 -0.0561  0.9589  0.7546
  127OSM    H2F13597   3.975   6.325   6.839  0.8764  0.8764 -1.1453
  127OSM    H2G13598   4.061   6.237   6.973  2.1546  0.8147  0.0065
  127OSM    C3F13599   3.922   6.114   6.859  0.2901 -0.0463  0.9288
  127OSM    H3F13600   3.958   6.029   6.920 -0.9045 -0.0925  1.5975
  127OSM    H3G13601   3.907   6.087   6.753  0.6085  2.9962  0.0552
  127OSM    C4F13602   3.783   6.161   6.915  0.3077 -0.4008  0.4467
  127OSM    H4F13603   3.704   6.089   6.888  0.7482 -1.4834  2.0066
  127OSM    H4G13604   3.755   6.252   6.857 -1.2934 -0.9083  0.4109
  127OSM    C5F13605   3.785   6.196   7.059  0.5420 -0.1777 -0.0180
  127OSM    H5F13606   3.857   6.279   7.071 -0.6493  1.1102 -1.5890
  127OSM    H5G13607   3.803   6.109   7.126 -0.4764  0.7401  1.4533
  127OSM    C6F13608   3.644   6.231   7.104  0.1524 -0.0061  0.2939
  127OSM    H6F13609   3.581   6.140   7.106  0.1067 -0.0104 -0.9481
  127OSM    H6G13610   3.610   6.299   7.023  1.4069  0.4245  0.1198
  127OSM    C7F13611   3.659   6.305   7.237 -0.1924 -0.1695 -0.0857
  127OSM    H7F13612   3.563   6.350   7.270 -0.5817 -1.0984  0.0692
  127OSM    H7G13613   3.726   6.392   7.222 -2.6106  1.2882 -2.8496
  127OSM    C8F13614   3.701   6.219   7.364 -0.4264  0.0410  0.1060
  127OSM    H8F13615   3.801   6.173   7.347 -0.1296  0.4709  0.6543
  127OSM    H8G13616   3.623   6.140   7.369 -0.3900 -0.1047 -1.3570
  127OSM    C9F13617   3.708   6.300   7.491 -0.2700  0.2324  0.1511
  127OSM    H9F13618   3.729   6.407   7.483  1.3830 -0.2077 -2.0835
  127OSM   C10F13619   3.685   6.242   7.614  0.3266 -0.2555  0.4323
  127OSM   H10F13620   3.682   6.312   7.699  0.7375 -0.0250  0.2557
  127OSM   C11F13621   3.646   6.104   7.651 -0.6420 -0.1712 -0.4654
  127OSM   H11F13622   3.657   6.039   7.561 -0.1328 -1.0532  0.2286
  127OSM   H11G13623   3.538   6.089   7.673 -0.6723 -0.0971 -0.5644
  127OSM   C12F13624   3.732   6.045   7.764 -0.5133  0.7586 -0.0219
  127OSM   H12F13625   3.710   6.091   7.863 -0.1557  2.3953 -0.6857
  127OSM   H12G13626   3.843   6.045   7.758 -0.5108  0.3173  0.0302
  127OSM   C13F13627   3.696   5.892   7.783 -0.3800 -0.5521 -0.3526
  127OSM   H13F13628   3.725   5.826   7.698  0.7935 -1.6972  0.9371
  127OSM   H13G13629   3.585   5.889   7.792 -0.3701 -0.9242 -0.3381
  127OSM   C14F13630   3.759   5.834   7.911  0.3209 -0.2312  0.1933
  127OSM   H14F13631   3.712   5.895   7.991 -0.6641  0.4128 -0.8679
  127OSM   H14G13632   3.870   5.845   7.902 -0.0392  1.2262 -2.8484
  127OSM   C15F13633   3.709   5.690   7.947  0.1002  0.0295 -0.5232
  127OSM   H15F13634   3.734   5.625   7.861 -1.5994 -0.7964 -0.4205
  127OSM   H15G13635   3.599   5.690   7.964  0.0553  0.5140 -0.7990
  127OSM   C16F13636   3.772   5.625   8.064  0.2731  0.5694 -1.1313
  127OSM   H16F13637   3.882   5.613   8.056  0.1197 -0.6695 -1.4759
  127OSM   H16G13638   3.724   5.526   8.081 -1.3529  1.5982  0.4736
  127OSM   C17F13639   3.735   5.707   8.191  0.6559 -0.2699  0.3115
  127OSM   H17F13640   3.624   5.712   8.195  0.6922 -0.6132  2.7698
  127OSM   H17G13641   3.777   5.809   8.172 -1.7374  0.7635  0.4313
  127OSM   C18F13642   3.782   5.648   8.321 -0.6712 -0.7963  0.2445
  127OSM   H18F13643   3.785   5.538   8.307 -0.5029 -0.4477 -2.7537
  127OSM   H18G13644   3.706   5.669   8.399 -1.8443  0.0179 -1.0786
  127OSM   H18H13645   3.885   5.681   8.348 -1.7176  2.2760  0.6979
  128OSM      N13646   4.529   2.680   5.974 -0.1611 -0.0959 -0.4520
  128OSM    C1513647   4.662   2.666   5.902  0.4352 -0.6170  0.2443
  128OSM   H15A13648   4.737   2.707   5.969  1.5262  1.3987 -2.1312
  128OSM   H15B13649   4.660   2.714   5.806 -0.0370  1.8543  1.4361
  128OSM   H15C13650   4.683   2.561   5.890  2.3143 -0.3138  0.7463
  128OSM    C1413651   4.434   2.582   5.913  0.3747  0.6203  0.1292
  128OSM   H14A13652   4.399   2.615   5.816  0.5054 -0.1900 -0.1942
  128OSM   H14B13653   4.349   2.576   5.980  1.4966  2.5281  1.7620
  128OSM   H14C13654   4.474   2.482   5.916 -2.5169 -0.6153  0.0640
  128OSM    C1313655   4.557   2.650   6.118 -0.1651  0.7732 -1.0997
  128OSM   H13A13656   4.571   2.549   6.153 -0.4146  1.9719  2.7315
  128OSM   H13B13657   4.475   2.694   6.173 -0.5605  1.1809 -2.0073
  128OSM   H13C13658   4.650   2.699   6.143  0.1158 -0.3555  0.1343
  128OSM    C1213659   4.486   2.823   5.955  0.5332  0.1843 -0.6219
  128OSM   H12A13660   4.464   2.841   5.851 -0.6378  2.5219 -0.0003
  128OSM   H12B13661   4.561   2.898   5.973  2.1752 -0.7839 -3.0206
  128OSM    C1113662   4.366   2.867   6.047  0.4552 -1.1119 -0.0822
  128OSM   H11A13663   4.274   2.805   6.048  0.2562 -0.9184 -3.1676
  128OSM   H11B13664   4.336   2.956   5.988  0.4938 -1.1007 -0.0847
  128OSM      P13665   4.494   3.022   6.208  0.3222 -0.0882 -0.0292
  128OSM    O1313666   4.632   2.997   6.161 -0.2813  0.1572  0.6819
  128OSM    O1413667   4.414   3.133   6.154 -0.0468  0.1941  0.8836
  128OSM    O1113668   4.494   3.030   6.366  0.0652  0.2500  0.6232
  128OSM    O1213669   4.402   2.890   6.185 -0.4236 -0.2674  0.0657
  128OSM    C1S13670   4.527   2.919   6.448  0.2089 -0.1098 -0.2058
  128OSM    H1S13671   4.632   2.889   6.427 -0.1431 -0.8820 -0.8638
  128OSM    H1T13672   4.460   2.835   6.424  0.6353 -0.1488 -1.2579
  128OSM     NF13673   4.542   2.821   6.679 -0.0595 -0.3310 -0.1403
  128OSM    HNF13674   4.474   2.763   6.724  0.8938  0.4816  2.4277
  128OSM    C2S13675   4.493   2.938   6.603 -1.2194  0.0867 -0.1116
  128OSM    H2S13676   4.554   3.027   6.628 -1.9645  1.1286 -1.8665
  128OSM    C3S13677   4.341   2.977   6.624 -0.4445  0.5514  0.9962
  128OSM    H3S13678   4.278   2.894   6.586  1.2505 -0.8312  1.1306
  128OSM     O313679   4.302   3.094   6.552  0.1831 -0.6623  0.7359
  128OSM    HO313680   4.361   3.102   6.476 -1.9455 -0.7084 -0.9577
  128OSM    C4S13681   4.308   2.994   6.771 -0.1948 -0.2065 -0.9151
  128OSM    H4S13682   4.277   2.903   6.824 -0.9620  0.5525 -0.0357
  128OSM    C5S13683   4.327   3.105   6.847  0.3712 -0.0468 -0.4487
  128OSM    H5S13684   4.357   3.199   6.797 -0.5758 -0.3415 -1.5913
  128OSM    C6S13685   4.321   3.134   6.996  0.4727  0.2680 -0.4625
  128OSM    H6S13686   4.222   3.171   7.030  0.3125 -0.9119  0.3819
  128OSM    H6T13687   4.389   3.220   7.012  0.5562  0.4714 -1.8360
  128OSM    C7S13688   4.370   3.010   7.073 -0.3141  0.6203 -0.4998
  128OSM    H7S13689   4.474   2.998   7.037  0.3998  1.1773  1.3509
  128OSM    H7T13690   4.315   2.916   7.050  2.0734 -0.0040 -4.1206
  128OSM    C8S13691   4.368   3.027   7.225 -0.7395  0.0021  0.8511
  128OSM    H8S13692   4.264   3.016   7.262 -0.3587  2.6082  2.8189
  128OSM    H8T13693   4.400   3.129   7.254 -0.1834  0.0854 -0.0370
  128OSM    C9S13694   4.448   2.931   7.319  0.0270 -0.1848 -0.4009
  128OSM    H9S13695   4.557   2.954   7.316 -0.1290  0.8215  1.1284
  128OSM    H9T13696   4.445   2.826   7.282  0.4077 -0.3498  0.0243
  128OSM   C10S13697   4.403   2.934   7.463  0.2299  0.2024  0.3865
  128OSM   H10S13698   4.303   2.887   7.474 -0.5273  1.9705  1.3359
  128OSM   H10T13699   4.401   3.043   7.485 -1.6746  0.7376 -2.2192
  128OSM   C11S13700   4.501   2.862   7.550  1.2232 -0.0452 -0.7509
  128OSM   H11S13701   4.603   2.895   7.524  0.3746  2.2957 -1.2502
  128OSM   H11T13702   4.491   2.757   7.513 -0.4364  0.1743 -0.9719
  128OSM   C12S13703   4.480   2.878   7.706  0.3195  0.2219  0.3547
  128OSM   H12S13704   4.438   2.976   7.736 -0.5643  0.4065 -1.4224
  128OSM   H12T13705   4.578   2.871   7.758  0.4635  0.5979  0.1357
  128OSM   C13S13706   4.394   2.764   7.753  0.5480  0.1754 -0.7924
  128OSM   H13S13707   4.442   2.671   7.715 -3.5134 -0.3709 -4.9354
  128OSM   H13T13708   4.289   2.765   7.717 -0.3908  1.4833  1.7982
  128OSM   C14S13709   4.403   2.769   7.910  0.7342 -0.1940  0.4170
  128OSM   H14S13710   4.317   2.714   7.954  0.7294 -0.1124  0.5086
  128OSM   H14T13711   4.393   2.878   7.930 -1.4947  0.2390 -2.5714
  128OSM   C15S13712   4.534   2.703   7.964 -0.2375 -0.4049 -0.3711
  128OSM   H15S13713   4.618   2.772   7.940 -0.4907  0.0845  0.1302
  128OSM   H15T13714   4.549   2.600   7.926 -2.4587 -1.3349  1.1311
  128OSM   C16S13715   4.536   2.687   8.119 -0.1941 -0.1001 -0.6487
  128OSM   H16S13716   4.634   2.638   8.140 -0.1158 -1.4366 -3.8309
  128OSM   H16T13717   4.444   2.632   8.148 -0.7870  1.7216  1.0208
  128OSM   C17S13718   4.522   2.823   8.199  0.1496  0.2854  0.4469
  128OSM   H17S13719   4.541   2.806   8.307  1.3568 -1.5146 -0.0357
  128OSM   H17T13720   4.416   2.856   8.197  0.4033  1.0741 -1.5463
  128OSM   C18S13721   4.627   2.926   8.156  0.0925  0.2173  0.1313
  128OSM   H18S13722   4.621   3.012   8.227 -0.1885  1.8520 -1.8311
  128OSM   H18T13723   4.629   2.959   8.050  2.2781 -2.8668 -0.8514
  128OSM   H18U13724   4.731   2.891   8.173 -0.7754 -2.5241  0.0708
  128OSM    C1F13725   4.670   2.789   6.681 -0.2673 -0.6641  0.4576
  128OSM     OF13726   4.748   2.864   6.630 -0.1134 -0.0278 -0.4188
  128OSM    C2F13727   4.720   2.675   6.755 -0.1327 -0.1416  0.5117
  128OSM    H2F13728   4.819   2.706   6.794  0.7846 -1.4898 -0.6808
  128OSM    H2G13729   4.719   2.591   6.682 -0.5958  0.6846 -0.4345
  128OSM    C3F13730   4.632   2.621   6.869  0.4519  0.4725  0.0516
  128OSM    H3F13731   4.679   2.533   6.917 -2.2704 -0.6284  0.7888
  128OSM    H3G13732   4.531   2.600   6.828  0.3023  0.0590  0.6229
  128OSM    C4F13733   4.633   2.734   6.984 -0.5717  0.3763  0.0022
  128OSM    H4F13734   4.558   2.701   7.059 -1.2936 -2.3353 -1.8484
  128OSM    H4G13735   4.612   2.834   6.941  0.3378  0.5950  0.0495
  128OSM    C5F13736   4.771   2.737   7.053 -0.3945 -0.2739  0.1184
  128OSM    H5F13737   4.853   2.782   6.992 -0.1331  0.4008  0.9556
  128OSM    H5G13738   4.792   2.630   7.073 -2.0682 -1.1893 -2.8335
  128OSM    C6F13739   4.773   2.819   7.185 -0.4923 -0.0380 -0.0131
  128OSM    H6F13740   4.676   2.792   7.233 -1.1692 -0.7835 -1.7679
  128OSM    H6G13741   4.792   2.926   7.164 -1.8647 -0.3999 -3.3082
  128OSM    C7F13742   4.888   2.768   7.275  0.1363  0.2225 -0.9683
  128OSM    H7F13743   4.985   2.772   7.222  0.0645  3.6618 -0.9497
  128OSM    H7G13744   4.874   2.661   7.300  0.8030  0.2981 -0.2669
  128OSM    C8F13745   4.895   2.841   7.405  0.1176 -0.3824 -0.0238
  128OSM    H8F13746   4.804   2.829   7.467  1.1585  3.2644  2.3977
  128OSM    H8G13747   4.902   2.951   7.388  1.0093 -0.2514  1.1289
  128OSM    C9F13748   5.012   2.796   7.490 -0.2289  0.0384 -0.5045
  128OSM    H9F13749   5.107   2.803   7.434  0.9325 -1.4586  1.2410
  128OSM   C10F13750   5.019   2.756   7.619 -0.3094 -0.0470 -0.2846
  128OSM   H10F13751   5.115   2.711   7.652  0.6151  0.8945 -1.6342
  128OSM   C11F13752   4.905   2.745   7.718 -0.0108 -0.2551  0.0129
  128OSM   H11F13753   4.886   2.641   7.750 -0.7109 -0.4936 -1.1811
  128OSM   H11G13754   4.808   2.778   7.675 -0.5294 -1.6002  0.1373
  128OSM   C12F13755   4.921   2.845   7.837 -0.3555 -0.1271  0.6158
  128OSM   H12F13756   4.821   2.877   7.875  0.5177  0.9809  2.0299
  128OSM   H12G13757   4.966   2.940   7.800  1.1079 -1.1269 -0.1874
  128OSM   C13F13758   5.021   2.786   7.944  0.6243  0.5310  1.0486
  128OSM   H13F13759   5.120   2.766   7.898 -0.2877  0.4344 -0.9215
  128OSM   H13G13760   4.969   2.699   7.989 -0.8993 -0.4908 -2.5414
  128OSM   C14F13761   5.058   2.890   8.049 -0.4938 -0.1970 -0.1893
  128OSM   H14F13762   4.967   2.939   8.092 -0.9141 -0.4294 -0.8149
  128OSM   H14G13763   5.117   2.967   7.995 -0.8416  1.1432  1.3072
  128OSM   C15F13764   5.137   2.835   8.176  0.5502  0.1424  0.0597
  128OSM   H15F13765   5.238   2.802   8.144  0.8212  0.2775  0.7767
  128OSM   H15G13766   5.076   2.754   8.220  1.6175 -0.6839  0.0311
  128OSM   C16F13767   5.151   2.939   8.285  0.5061 -0.3338 -0.0558
  128OSM   H16F13768   5.060   3.002   8.286  1.1040  0.5504 -0.3704
  128OSM   H16G13769   5.224   3.018   8.255  0.6352 -0.9317 -1.3448
  128OSM   C17F13770   5.171   2.870   8.421 -0.6664  0.1715 -0.4560
  128OSM   H17F13771   5.275   2.830   8.427 -1.2634 -1.4896 -1.2787
  128OSM   H17G13772   5.102   2.786   8.442 -2.4053  1.3440 -1.3294
  128OSM   C18F13773   5.172   2.966   8.543 -0.2690 -0.2120  0.0015
  128OSM   H18F13774   5.070   3.002   8.567  0.2732 -1.0299  3.8710
  128OSM   H18G13775   5.248   3.047   8.539  0.4189 -0.8598 -0.3213
  128OSM   H18H13776   5.200   2.901   8.628  0.7930 -0.8131 -0.7797
  129OSM      N13777   1.683   4.589   5.887  0.1171 -0.4137 -0.0290
  129OSM    C1513778   1.610   4.628   5.764 -0.0169  0.1380 -0.8985
  129OSM   H15A13779   1.504   4.641   5.781 -0.4974 -3.2887 -0.9522
  129OSM   H15B13780   1.623   4.563   5.678  1.0170  0.0210 -0.6568
  129OSM   H15C13781   1.646   4.728   5.742  0.1621 -0.3862 -3.1177
  129OSM    C1413782   1.634   4.451   5.928 -0.2595 -0.1635  0.6892
  129OSM   H14A13783   1.528   4.445   5.945 -0.4104  1.3366  0.2689
  129OSM   H14B13784   1.673   4.412   6.021 -1.4109  0.0611  1.2704
  129OSM   H14C13785   1.667   4.378   5.855 -0.7873 -0.6651  0.9472
  129OSM    C1313786   1.830   4.595   5.865  0.4286  0.1917 -0.5085
  129OSM   H13A13787   1.863   4.690   5.828 -0.3649  0.6502 -0.0385
  129OSM   H13B13788   1.859   4.526   5.786  1.0262  0.9897 -0.9867
  129OSM   H13C13789   1.884   4.570   5.955 -1.4352 -1.9130  0.0874
  129OSM    C1213790   1.647   4.687   6.003 -0.4968 -0.6954 -0.8382
  129OSM   H12A13791   1.542   4.674   6.026 -0.8478  0.2139 -1.9043
  129OSM   H12B13792   1.668   4.783   5.958  0.9387 -1.3891 -1.6711
  129OSM    C1113793   1.725   4.685   6.142  0.0212 -0.0987  0.4123
  129OSM   H11A13794   1.726   4.581   6.182 -0.5609 -0.6435 -0.9523
  129OSM   H11B13795   1.668   4.748   6.213 -1.4475  0.0463 -0.8560
  129OSM      P13796   1.894   4.886   6.120 -0.3774 -0.4480  0.3489
  129OSM    O1313797   2.029   4.904   6.056 -0.6127 -0.0048  0.0166
  129OSM    O1413798   1.790   4.968   6.062 -0.1321 -0.1716  0.1899
  129OSM    O1113799   1.917   4.921   6.283  0.5009 -0.2680 -1.0912
  129OSM    O1213800   1.857   4.733   6.125 -0.1538 -0.2543 -0.0626
  129OSM    C1S13801   1.977   4.820   6.366 -0.7296 -0.9017 -0.2859
  129OSM    H1S13802   2.079   4.790   6.331 -0.2560  0.5218 -0.1621
  129OSM    H1T13803   1.910   4.732   6.369 -0.0814 -1.3554  2.0739
  129OSM     NF13804   2.090   4.811   6.594 -0.1793  0.5888  0.0069
  129OSM    HNF13805   2.074   4.731   6.651  0.5479 -1.1659 -2.1685
  129OSM    C2S13806   1.974   4.857   6.520 -0.2047 -0.5635 -0.0236
  129OSM    H2S13807   1.980   4.967   6.532 -0.1497 -0.4462 -1.1096
  129OSM    C3S13808   1.837   4.814   6.592 -0.1616 -0.1179  0.1296
  129OSM    H3S13809   1.842   4.704   6.602  1.4081 -0.1559 -0.9680
  129OSM     O313810   1.723   4.828   6.514 -0.3836 -0.1300  0.1318
  129OSM    HO313811   1.757   4.818   6.424 -0.3080 -1.8005  0.3210
  129OSM    C4S13812   1.842   4.888   6.729 -0.0979 -0.0042 -0.1155
  129OSM    H4S13813   1.882   4.824   6.809 -0.3430  0.5663  0.4599
  129OSM    C5S13814   1.796   5.002   6.769  0.2491 -0.0651 -0.1809
  129OSM    H5S13815   1.761   5.073   6.692 -1.0513 -0.2158  0.2535
  129OSM    C6S13816   1.801   5.061   6.905 -0.9018  0.0584  0.9657
  129OSM    H6S13817   1.716   5.133   6.908  0.2824  1.5215 -0.0580
  129OSM    H6T13818   1.887   5.130   6.910  1.1005 -2.2415 -0.5663
  129OSM    C7S13819   1.796   4.967   7.020  0.6408  0.0815 -0.1760
  129OSM    H7S13820   1.898   4.923   7.031  0.7545  0.4428  0.2387
  129OSM    H7T13821   1.718   4.890   7.004  1.3288 -1.2885  2.6358
  129OSM    C8S13822   1.776   5.035   7.160 -0.4428  0.7024 -0.3287
  129OSM    H8S13823   1.670   5.068   7.161 -0.9370 -0.8619  0.4453
  129OSM    H8T13824   1.848   5.119   7.170 -0.5667  0.5784  1.7136
  129OSM    C9S13825   1.814   4.943   7.284 -0.1388  0.0099 -0.5945
  129OSM    H9S13826   1.916   4.904   7.266  0.2908  1.8146 -2.3911
  129OSM    H9T13827   1.740   4.862   7.300  0.3138 -0.3256 -0.1880
  129OSM   C10S13828   1.811   5.020   7.421  0.2644  0.1273 -0.5573
  129OSM   H10S13829   1.711   5.047   7.462  0.9024  1.0228  0.4415
  129OSM   H10T13830   1.861   5.119   7.413  1.6540 -0.4767  0.5000
  129OSM   C11S13831   1.877   4.938   7.530  0.2213  0.0707  0.0983
  129OSM   H11S13832   1.980   4.909   7.502 -0.5044 -0.6693 -1.8743
  129OSM   H11T13833   1.821   4.843   7.545 -0.0035  0.1804 -0.0520
  129OSM   C12S13834   1.876   5.013   7.665 -0.0838 -0.3870  0.5357
  129OSM   H12S13835   1.774   5.042   7.699 -1.0429 -1.0030 -1.7389
  129OSM   H12T13836   1.943   5.101   7.661 -1.7199  0.8507 -0.0213
  129OSM   C13S13837   1.934   4.936   7.787  1.3160 -0.3344 -0.0966
  129OSM   H13S13838   2.026   4.883   7.754 -0.8698 -3.9673 -0.5612
  129OSM   H13T13839   1.867   4.854   7.821  1.1432  0.0332  0.4633
  129OSM   C14S13840   1.964   5.028   7.905 -0.0093  0.2420 -0.2182
  129OSM   H14S13841   1.868   5.074   7.938  0.4985  0.1012  1.4919
  129OSM   H14T13842   2.027   5.115   7.879  0.6860 -0.6641 -1.6645
  129OSM   C15S13843   2.026   4.965   8.031 -0.7704 -0.0001  0.2796
  129OSM   H15S13844   2.018   5.038   8.114 -1.7409  1.2458 -0.8855
  129OSM   H15T13845   2.129   4.937   8.001 -1.2123 -2.4108  0.8448
  129OSM   C16S13846   1.941   4.856   8.094 -0.6236 -0.1451  0.4851
  129OSM   H16S13847   1.947   4.765   8.030 -1.3695 -0.5938  1.0516
  129OSM   H16T13848   1.835   4.890   8.096  0.0916  2.1257  4.3960
  129OSM   C17S13849   1.989   4.824   8.238 -0.2024  0.3884  0.1603
  129OSM   H17S13850   1.932   4.740   8.284  1.7398 -0.9523  0.1496
  129OSM   H17T13851   1.966   4.913   8.301  0.3426  0.4355  0.2898
  129OSM   C18S13852   2.133   4.765   8.242  0.7768 -0.4166  0.5161
  129OSM   H18S13853   2.145   4.677   8.175 -0.1336  2.7499 -4.0325
  129OSM   H18T13854   2.162   4.736   8.345  1.7081 -0.5382  0.2179
  129OSM   H18U13855   2.200   4.841   8.199  2.9237 -2.8066 -0.4976
  129OSM    C1F13856   2.217   4.847   6.574  0.7124  0.0112  0.4289
  129OSM     OF13857   2.246   4.927   6.485 -0.2475  0.2855  0.4992
  129OSM    C2F13858   2.318   4.779   6.657  0.4533 -0.3319 -0.5177
  129OSM    H2F13859   2.330   4.671   6.636  4.1189  0.5622 -3.6438
  129OSM    H2G13860   2.292   4.790   6.764  2.9194  1.1055 -0.0417
  129OSM    C3F13861   2.449   4.849   6.626  0.2223  0.0605 -0.3455
  129OSM    H3F13862   2.443   4.956   6.653  0.7861 -0.3402  1.4776
  129OSM    H3G13863   2.467   4.850   6.517 -0.4600  3.3558 -0.4626
  129OSM    C4F13864   2.558   4.793   6.710  0.6545  0.0109 -0.4639
  129OSM    H4F13865   2.652   4.837   6.671  0.6505  0.0471 -0.4336
  129OSM    H4G13866   2.558   4.687   6.677  1.0647  0.0376 -0.5562
  129OSM    C5F13867   2.555   4.808   6.862  0.2288  0.0592  0.2775
  129OSM    H5F13868   2.474   4.745   6.905  1.8082 -2.2480 -0.0303
  129OSM    H5G13869   2.524   4.907   6.902 -2.3223 -0.6508  0.1832
  129OSM    C6F13870   2.691   4.756   6.917 -0.2142 -0.4074 -0.6978
  129OSM    H6F13871   2.773   4.789   6.849  1.2875 -0.3752  1.0883
  129OSM    H6G13872   2.687   4.645   6.910  2.7553 -0.5359 -1.1810
  129OSM    C7F13873   2.724   4.799   7.063 -0.0303 -0.2014  0.1901
  129OSM    H7F13874   2.630   4.812   7.122  0.4476  1.3125  0.6322
  129OSM    H7G13875   2.761   4.903   7.063  2.6996 -1.1329 -0.3729
  129OSM    C8F13876   2.829   4.710   7.122 -0.1720  0.0992 -0.1428
  129OSM    H8F13877   2.891   4.696   7.031  1.0348  1.1972  0.4866
  129OSM    H8G13878   2.777   4.617   7.152  2.3218 -1.1311  0.4961
  129OSM    C9F13879   2.928   4.754   7.233  0.0146 -0.1257  0.0156
  129OSM    H9F13880   3.018   4.794   7.185 -1.9190  0.7146 -3.0624
  129OSM   C10F13881   2.913   4.771   7.363  0.0306  0.1167 -1.3093
  129OSM   H10F13882   2.998   4.808   7.422  0.0347 -0.7711 -0.7414
  129OSM   C11F13883   2.794   4.746   7.450  0.4233 -0.9530 -0.8431
  129OSM   H11F13884   2.708   4.762   7.381 -0.5800 -1.8495  0.1799
  129OSM   H11G13885   2.778   4.822   7.528  1.8720 -3.2855  1.8023
  129OSM   C12F13886   2.806   4.611   7.527  0.7978  0.4733  0.3861
  129OSM   H12F13887   2.834   4.530   7.457 -0.1501  0.8872 -0.4930
  129OSM   H12G13888   2.704   4.583   7.560  1.1677 -0.4324  0.7747
  129OSM   C13F13889   2.898   4.604   7.651  0.1797  0.7179 -0.0060
  129OSM   H13F13890   2.851   4.678   7.720 -0.5740  0.7736 -0.5647
  129OSM   H13G13891   2.997   4.632   7.609  0.8040 -0.9008  0.3674
  129OSM   C14F13892   2.898   4.461   7.705  0.2629  0.5090 -0.7097
  129OSM   H14F13893   2.988   4.448   7.769 -0.1327 -0.7804 -0.4015
  129OSM   H14G13894   2.918   4.400   7.614  1.4822  0.0703 -0.1587
  129OSM   C15F13895   2.774   4.420   7.782  0.1498  0.2509  0.0636
  129OSM   H15F13896   2.684   4.441   7.720  1.4552  1.8111 -1.3632
  129OSM   H15G13897   2.764   4.482   7.873  2.0158  0.3814  0.1900
  129OSM   C16F13898   2.781   4.266   7.806  0.0743 -0.2013  0.6051
  129OSM   H16F13899   2.796   4.206   7.714  0.7562 -0.0257  0.5970
  129OSM   H16G13900   2.681   4.231   7.839 -0.2956 -0.6521 -0.9722
  129OSM   C17F13901   2.876   4.222   7.920  0.5214 -0.2033  0.1427
  129OSM   H17F13902   2.854   4.299   7.997  2.0654  0.8276 -0.4344
  129OSM   H17G13903   2.984   4.241   7.900  1.1284  0.0963  3.3239
  129OSM   C18F13904   2.848   4.085   7.979 -0.4185  0.3747  0.2046
  129OSM   H18F13905   2.916   4.077   8.066 -1.7111 -1.9982  1.0415
  129OSM   H18G13906   2.855   4.005   7.902  3.0495 -0.5649  1.3878
  129OSM   H18H13907   2.745   4.079   8.020 -1.1940 -2.4708 -1.9674
  130OSM      N13908   3.085   2.228   6.045  0.4829  0.4489  0.1666
  130OSM    C1513909   3.191   2.160   5.977  0.0427 -0.2674 -0.0832
  130OSM   H15A13910   3.278   2.223   5.960 -0.7652  1.5271  2.1201
  130OSM   H15B13911   3.155   2.117   5.885  0.2346  0.2515 -0.4049
  130OSM   H15C13912   3.221   2.071   6.030 -0.3624 -0.9082 -0.9223
  130OSM    C1413913   3.019   2.336   5.964  0.1072 -0.2155  0.1049
  130OSM   H14A13914   2.973   2.300   5.874  1.2518 -1.4674  0.0023
  130OSM   H14B13915   3.083   2.413   5.924 -0.7018  1.0466  1.1963
  130OSM   H14C13916   2.948   2.386   6.028  0.6527 -2.2153  2.3379
  130OSM    C1313917   2.964   2.140   6.071 -0.5064 -0.0480  0.0392
  130OSM   H13A13918   2.893   2.193   6.133  0.0231 -2.3344  2.6349
  130OSM   H13B13919   2.989   2.050   6.124  1.6936  0.6498  0.2479
  130OSM   H13C13920   2.910   2.123   5.978 -1.5201  0.2134  0.5718
  130OSM    C1213921   3.134   2.282   6.171 -0.2747 -0.5452  0.1728
  130OSM   H12A13922   3.214   2.354   6.159  1.4488 -2.2292  1.2341
  130OSM   H12B13923   3.177   2.193   6.215  1.0851 -0.9361 -1.9171
  130OSM    C1113924   3.032   2.350   6.266 -0.0827 -0.7157 -0.2966
  130OSM   H11A13925   3.080   2.366   6.365 -2.1433  0.1039  0.5963
  130OSM   H11B13926   2.944   2.288   6.293 -2.2636  1.9108 -1.0538
  130OSM      P13927   3.021   2.617   6.272 -0.1761  0.0990 -0.1218
  130OSM    O1313928   3.166   2.638   6.276  0.1870  0.4253  0.6242
  130OSM    O1413929   2.943   2.723   6.206 -0.2273  0.7521  0.5219
  130OSM    O1113930   2.970   2.602   6.421  0.4542 -0.4387 -0.4957
  130OSM    O1213931   2.985   2.471   6.208 -0.5935 -0.2938 -0.3540
  130OSM    C1S13932   2.838   2.561   6.451  0.4381 -0.4203  0.2504
  130OSM    H1S13933   2.809   2.477   6.384  0.0862 -1.5105  1.7411
  130OSM    H1T13934   2.760   2.637   6.428 -1.1010 -2.1749 -0.5466
  130OSM     NF13935   2.710   2.451   6.630  0.2145  0.3845 -0.1480
  130OSM    HNF13936   2.635   2.506   6.664 -0.1197 -0.7144  0.9222
  130OSM    C2S13937   2.832   2.521   6.596  0.2147  0.2430 -0.6044
  130OSM    H2S13938   2.917   2.452   6.616 -1.0075 -0.7625  1.2619
  130OSM    C3S13939   2.864   2.641   6.691  0.1791  0.1411 -0.1105
  130OSM    H3S13940   2.786   2.720   6.681 -1.8797 -1.5480  1.8785
  130OSM     O313941   2.981   2.716   6.654 -0.7557 -0.3962 -0.1916
  130OSM    HO313942   3.010   2.665   6.577  0.7834 -0.8191  0.6511
  130OSM    C4S13943   2.857   2.596   6.835  0.6808 -0.2700  0.3204
  130OSM    H4S13944   2.759   2.562   6.870  0.5367 -1.3802 -1.0954
  130OSM    C5S13945   2.969   2.582   6.907  0.1258  0.4712  0.1242
  130OSM    H5S13946   3.068   2.601   6.864  0.5334  0.3296  0.9815
  130OSM    C6S13947   2.967   2.547   7.058 -0.5883  0.1818 -0.3066
  130OSM    H6S13948   2.865   2.548   7.104 -1.2854  0.1567 -1.8102
  130OSM    H6T13949   3.024   2.629   7.106  0.8127 -1.2856  0.5898
  130OSM    C7S13950   3.029   2.411   7.093  0.3037  0.4207 -0.8544
  130OSM    H7S13951   3.131   2.401   7.051  1.2457  2.3095  0.9396
  130OSM    H7T13952   2.958   2.334   7.055 -0.5338  0.8368 -0.1622
  130OSM    C8S13953   3.040   2.401   7.249  0.1306 -0.6348  0.8760
  130OSM    H8S13954   3.087   2.491   7.294 -0.8187  0.9654 -1.2655
  130OSM    H8T13955   3.094   2.309   7.281  2.9339  0.3702 -0.8518
  130OSM    C9S13956   2.910   2.375   7.325  0.4385 -0.4567 -0.5239
  130OSM    H9S13957   2.842   2.325   7.253  1.6486 -1.8159 -0.7253
  130OSM    H9T13958   2.860   2.474   7.341  1.6712  0.0922 -0.0413
  130OSM   C10S13959   2.918   2.296   7.454 -0.3987 -0.0237 -0.5382
  130OSM   H10S13960   2.943   2.190   7.434 -1.9789 -0.8225  1.5361
  130OSM   H10T13961   2.815   2.303   7.495 -0.1966  1.6746 -0.2974
  130OSM   C11S13962   3.003   2.377   7.548 -0.8377 -0.5349 -0.5535
  130OSM   H11S13963   2.975   2.483   7.531 -1.2503 -0.6163 -0.3948
  130OSM   H11T13964   3.112   2.383   7.524 -0.7288  3.4446  0.5671
  130OSM   C12S13965   2.978   2.343   7.698  0.7507 -0.2278 -0.4488
  130OSM   H12S13966   2.881   2.384   7.732 -0.0940 -0.5709 -2.3417
  130OSM   H12T13967   3.057   2.405   7.744 -2.3964  2.2416  1.8318
  130OSM   C13S13968   3.001   2.198   7.732 -0.3090 -0.4397  0.8028
  130OSM   H13S13969   3.095   2.156   7.692 -0.4672 -0.3616  0.3344
  130OSM   H13T13970   2.914   2.143   7.689 -1.8111  1.2728  1.5491
  130OSM   C14S13971   2.997   2.184   7.886 -0.2492 -0.2648 -0.0462
  130OSM   H14S13972   2.889   2.194   7.910 -0.5186  1.8055 -2.0349
  130OSM   H14T13973   3.062   2.260   7.935  1.1040 -1.4414  0.0290
  130OSM   C15S13974   3.039   2.042   7.924  0.4624  0.5958 -0.4303
  130OSM   H15S13975   3.143   2.037   7.961 -1.5487  0.5100  5.8476
  130OSM   H15T13976   3.032   1.983   7.830 -2.1162 -1.6563  1.1039
  130OSM   C16S13977   2.940   1.973   8.017  0.0244  0.1614  0.5513
  130OSM   H16S13978   2.977   1.870   8.037  2.1301  0.4702 -1.4914
  130OSM   H16T13979   2.840   1.962   7.970 -0.3609 -2.1781  1.8513
  130OSM   C17S13980   2.907   2.040   8.148 -0.7306  0.5103 -0.3201
  130OSM   H17S13981   2.826   1.987   8.203 -0.8347  1.2303  0.2304
  130OSM   H17T13982   2.859   2.140   8.141 -0.1125  0.9526  1.5058
  130OSM   C18S13983   3.028   2.061   8.240 -0.0924 -0.2938 -0.1552
  130OSM   H18S13984   3.075   1.966   8.275  1.4433  1.5135  2.8429
  130OSM   H18T13985   3.002   2.120   8.330  2.5991 -0.6727  0.9172
  130OSM   H18U13986   3.109   2.116   8.187 -1.3340 -2.0322 -4.1038
  130OSM    C1F13987   2.685   2.326   6.589 -0.1967  0.0219  0.3092
  130OSM     OF13988   2.780   2.258   6.545 -0.0716 -0.4178  0.7939
  130OSM    C2F13989   2.543   2.280   6.585  0.0833  0.3172 -0.4044
  130OSM    H2F13990   2.520   2.246   6.481  1.4066  1.1948 -0.9959
  130OSM    H2G13991   2.468   2.360   6.603  1.1458  1.1582  0.3084
  130OSM    C3F13992   2.499   2.183   6.706  0.1128 -0.0387  0.4146
  130OSM    H3F13993   2.477   2.243   6.796  2.3408  0.4118  0.7027
  130OSM    H3G13994   2.595   2.128   6.717  1.7240  2.4418 -0.6900
  130OSM    C4F13995   2.376   2.097   6.670 -0.0143 -0.3302  0.7217
  130OSM    H4F13996   2.392   2.062   6.566  1.1047  0.2401  0.6972
  130OSM    H4G13997   2.293   2.170   6.671 -0.4197 -0.7117 -1.5455
  130OSM    C5F13998   2.351   1.979   6.767  0.5061 -0.1212  0.1767
  130OSM    H5F13999   2.450   1.927   6.771  0.9663  0.7164 -0.2257
  130OSM    H5G14000   2.267   1.923   6.721  1.9428 -0.7912 -1.6933
  130OSM    C6F14001   2.314   2.013   6.904  0.0126  0.0701 -0.1380
  130OSM    H6F14002   2.225   2.079   6.903 -1.0453 -1.3157  0.3437
  130OSM    H6G14003   2.398   2.066   6.954  0.8038 -2.2171  1.0472
  130OSM    C7F14004   2.280   1.892   6.986 -0.9003 -0.6369  0.4749
  130OSM    H7F14005   2.375   1.835   6.993 -0.4169 -0.2969 -2.4660
  130OSM    H7G14006   2.203   1.824   6.942 -1.2483 -0.2549  0.4918
  130OSM    C8F14007   2.240   1.951   7.128 -0.8627  0.3209 -0.2490
  130OSM    H8F14008   2.151   2.017   7.116  0.9833  3.1558  0.9839
  130OSM    H8G14009   2.329   2.015   7.146 -0.5937 -0.0436 -0.2900
  130OSM    C9F14010   2.219   1.857   7.242 -0.5751 -0.4220 -0.0194
  130OSM    H9F14011   2.301   1.787   7.264 -1.7272 -1.2127  1.9409
  130OSM   C10F14012   2.119   1.843   7.334 -0.6758 -0.7261  0.7095
  130OSM   H10F14013   2.119   1.760   7.406 -0.5421 -0.1960  1.3225
  130OSM   C11F14014   1.997   1.924   7.349 -0.1383 -0.9699  0.4315
  130OSM   H11F14015   1.918   1.851   7.378  0.0386 -1.2358  0.2388
  130OSM   H11G14016   1.960   1.973   7.257 -0.2015 -0.4535  0.7269
  130OSM   C12F14017   2.009   2.021   7.460  0.0926 -0.1101 -0.3595
  130OSM   H12F14018   1.916   2.082   7.461 -0.4188 -0.8715 -0.7649
  130OSM   H12G14019   2.099   2.085   7.450  1.1588 -1.7039 -1.0852
  130OSM   C13F14020   2.017   1.949   7.600  0.0729 -0.1867 -1.1782
  130OSM   H13F14021   2.119   1.905   7.611  0.1068  0.2105  0.2279
  130OSM   H13G14022   1.946   1.864   7.595 -0.6615  0.1433  2.2698
  130OSM   C14F14023   1.984   2.045   7.719 -0.0319 -0.6792  0.4989
  130OSM   H14F14024   1.874   2.035   7.716 -0.0588  0.2423 -2.5637
  130OSM   H14G14025   2.012   2.146   7.684 -0.7647 -0.8933 -0.7219
  130OSM   C15F14026   2.042   1.996   7.850 -0.3503  0.8188  0.4433
  130OSM   H15F14027   2.152   2.011   7.841 -0.2507  1.7610  2.8501
  130OSM   H15G14028   2.012   1.891   7.869  1.8508  0.2234  0.7952
  130OSM   C16F14029   2.003   2.078   7.974  0.0400 -0.4137  0.2300
  130OSM   H16F14030   1.994   2.182   7.936 -0.3622 -0.5504 -0.0553
  130OSM   H16G14031   2.088   2.082   8.044 -0.5027  1.9976  0.7918
  130OSM   C17F14032   1.889   2.011   8.060  0.2754 -0.1866 -0.4571
  130OSM   H17F14033   1.906   2.057   8.159  3.8731 -1.6650 -0.3000
  130OSM   H17G14034   1.898   1.902   8.083 -3.0488 -0.6210 -0.9440
  130OSM   C18F14035   1.743   2.049   8.016 -0.5152 -0.4153 -0.7952
  130OSM   H18F14036   1.739   2.014   7.911 -2.1325 -1.6501 -0.3485
  130OSM   H18G14037   1.725   2.158   8.019 -0.3586 -0.4090  0.1182
  130OSM   H18H14038   1.670   2.004   8.087  0.0188 -1.2999 -0.8021
  131OSM      N14039   3.882   0.135   6.056  0.9407 -0.1795 -0.1364
  131OSM    C1514040   3.878   0.004   5.993 -0.0207  1.1495 -0.3872
  131OSM   H15A14041   3.920  -0.001   5.894 -1.9040  0.0937 -1.1536
  131OSM   H15B14042   3.776  -0.027   5.976  0.1337 -0.3134  1.1191
  131OSM   H15C14043   3.930  -0.068   6.056  0.9397  0.0060 -2.4233
  131OSM    C1414044   3.815   0.103   6.193  0.0735 -0.0500 -0.7794
  131OSM   H14A14045   3.711   0.082   6.173 -0.0662 -1.5450  1.4229
  131OSM   H14B14046   3.835   0.181   6.265 -3.4749 -0.4725  0.7568
  131OSM   H14C14047   3.855   0.013   6.238  0.1138 -0.0351 -0.7856
  131OSM    C1314048   4.027   0.173   6.072 -0.2109 -0.0198  0.1419
  131OSM   H13A14049   4.036   0.259   6.137 -1.4053 -0.4401  0.8925
  131OSM   H13B14050   4.069   0.196   5.975 -0.7720 -1.7421 -0.5283
  131OSM   H13C14051   4.085   0.092   6.114  5.0798  2.3124 -2.1927
  131OSM    C1214052   3.794   0.245   5.988  0.3370  0.8516  0.0711
  131OSM   H12A14053   3.837   0.274   5.893 -1.1575 -0.8761 -1.1827
  131OSM   H12B14054   3.794   0.334   6.050  0.7505  0.8258  0.1064
  131OSM    C1114055   3.639   0.217   5.962  0.1629  0.8184  0.5792
  131OSM   H11A14056   3.626   0.126   5.898 -1.7741  2.7601 -1.8823
  131OSM   H11B14057   3.592   0.299   5.904 -1.0887 -0.0836  0.2754
  131OSM      P14058   3.421   0.161   6.095 -0.1537  0.4614 -0.1053
  131OSM    O1314059   3.323   0.260   6.038 -0.3541  0.1713  0.4092
  131OSM    O1414060   3.406   0.019   6.056 -0.0039  0.4821 -0.5904
  131OSM    O1114061   3.408   0.159   6.253  0.2978  0.6821  0.0617
  131OSM    O1214062   3.572   0.213   6.085 -0.0138 -0.3387 -0.1735
  131OSM    C1S14063   3.504   0.100   6.336 -0.1498  0.3393 -0.5856
  131OSM    H1S14064   3.596   0.162   6.328  1.0179 -1.3492 -0.5149
  131OSM    H1T14065   3.533  -0.002   6.302  1.1853  0.6920 -0.5301
  131OSM     NF14066   3.578   0.109   6.566  0.2176 -0.0232  0.3582
  131OSM    HNF14067   3.604   0.029   6.619  3.7565  0.9777  0.2089
  131OSM    C2S14068   3.462   0.109   6.479 -0.7238 -0.0751  0.5401
  131OSM    H2S14069   3.401   0.201   6.488 -0.6436 -0.0771  1.1235
  131OSM    C3S14070   3.360  -0.003   6.516 -0.4227  0.4127 -0.3570
  131OSM    H3S14071   3.416  -0.099   6.516 -0.7374  0.2283  0.0982
  131OSM     O314072   3.254  -0.022   6.431 -0.1800  0.4460  0.0322
  131OSM    HO314073   3.257   0.055   6.374  1.0338  1.7666  1.8156
  131OSM    C4S14074   3.321   0.022   6.660 -0.0465 -0.0553 -0.2411
  131OSM    H4S14075   3.389  -0.031   6.729  0.4787  0.0114 -0.6986
  131OSM    C5S14076   3.222   0.095   6.711 -0.7458  0.1816  0.1079
  131OSM    H5S14077   3.149   0.132   6.638  0.0975  4.5987  1.3383
  131OSM    C6S14078   3.194   0.105   6.857 -0.0837 -0.0107 -0.0175
  131OSM    H6S14079   3.139   0.198   6.884 -1.6200 -1.5089  2.2746
  131OSM    H6T14080   3.289   0.101   6.914 -1.0092  0.2284  1.5759
  131OSM    C7S14081   3.115  -0.011   6.915  0.5963  0.3324  0.1493
  131OSM    H7S14082   3.172  -0.106   6.921  0.8889  0.4250 -0.9959
  131OSM    H7T14083   3.030  -0.042   6.850 -0.0180 -1.2708  1.6971
  131OSM    C8S14084   3.058   0.026   7.050 -0.6810 -0.5074  0.7225
  131OSM    H8S14085   2.959   0.075   7.042 -0.6599 -0.5133  0.4144
  131OSM    H8T14086   3.117   0.094   7.115 -1.2180 -0.1513  0.8369
  131OSM    C9S14087   3.029  -0.108   7.130 -0.1093 -0.1097 -0.7045
  131OSM    H9S14088   3.118  -0.159   7.172 -1.3174 -0.5066  1.4425
  131OSM    H9T14089   2.970  -0.180   7.068  0.5638 -2.9907  1.8473
  131OSM   C10S14090   2.940  -0.079   7.256 -0.8010  0.7268  0.2102
  131OSM   H10S14091   2.858  -0.009   7.232 -0.6736  1.3038  1.4164
  131OSM   H10T14092   2.997  -0.013   7.325  0.8685 -0.4360 -0.0122
  131OSM   C11S14093   2.888  -0.207   7.334  0.1236 -0.0432  0.5458
  131OSM   H11S14094   2.973  -0.272   7.364  0.6174  0.6315  0.6295
  131OSM   H11T14095   2.830  -0.262   7.257  1.7232 -2.5860  1.1056
  131OSM   C12S14096   2.804  -0.171   7.461 -0.1329  0.7157 -0.3823
  131OSM   H12S14097   2.733  -0.251   7.491  0.4363  0.6439  0.7622
  131OSM   H12T14098   2.742  -0.085   7.426  0.7536  1.5608  0.1047
  131OSM   C13S14099   2.887  -0.108   7.576 -0.3128  0.4448 -0.0285
  131OSM   H13S14100   2.938  -0.022   7.528  0.3655 -0.0854 -0.2644
  131OSM   H13T14101   2.962  -0.178   7.619  0.0952 -0.1279 -1.6336
  131OSM   C14S14102   2.800  -0.063   7.697  0.1029  0.1517  0.5074
  131OSM   H14S14103   2.698  -0.044   7.658  0.5258  0.2377 -0.5799
  131OSM   H14T14104   2.834   0.040   7.725  0.9601  0.4243 -1.4372
  131OSM   C15S14105   2.809  -0.159   7.815  0.6754 -0.2767 -0.0006
  131OSM   H15S14106   2.791  -0.267   7.797 -0.2588  0.4069 -3.5218
  131OSM   H15T14107   2.730  -0.126   7.886 -0.1760 -0.1719 -0.9843
  131OSM   C16S14108   2.943  -0.143   7.888 -0.4346  0.4926 -0.3660
  131OSM   H16S14109   2.950  -0.043   7.937  1.9718  0.4327 -0.5481
  131OSM   H16T14110   3.023  -0.151   7.812  0.5127  0.7401  0.6036
  131OSM   C17S14111   2.950  -0.254   7.994  0.4830 -0.5003  0.0113
  131OSM   H17S14112   2.962  -0.355   7.950 -3.4386 -0.3333 -1.6084
  131OSM   H17T14113   2.856  -0.260   8.052 -1.1430 -1.9095 -2.6858
  131OSM   C18S14114   3.058  -0.243   8.098  0.6205  0.6909 -0.2136
  131OSM   H18S14115   3.073  -0.141   8.137  1.6809  0.8914 -1.1276
  131OSM   H18T14116   3.153  -0.265   8.045 -0.5167 -0.2704 -1.9450
  131OSM   H18U14117   3.048  -0.305   8.190  1.8844  0.2175 -0.3832
  131OSM    C1F14118   3.660   0.211   6.576  0.3714  0.0510  0.1422
  131OSM     OF14119   3.645   0.319   6.514  0.4137 -0.4349  0.8491
  131OSM    C2F14120   3.761   0.202   6.677  0.6052 -0.3903 -0.0302
  131OSM    H2F14121   3.839   0.136   6.631  0.2273 -0.3427 -0.7390
  131OSM    H2G14122   3.722   0.147   6.766  2.2039 -0.9668  0.3514
  131OSM    C3F14123   3.819   0.334   6.728  0.1762  0.1696 -0.1523
  131OSM    H3F14124   3.739   0.398   6.772  0.6391  1.3537 -1.0109
  131OSM    H3G14125   3.857   0.386   6.637 -2.0197 -0.6434 -1.5890
  131OSM    C4F14126   3.940   0.331   6.826 -0.0126  0.6165 -1.2745
  131OSM    H4F14127   3.988   0.430   6.841  1.3118 -0.1175 -0.5771
  131OSM    H4G14128   4.015   0.258   6.789  0.6522  0.2258  0.7701
  131OSM    C5F14129   3.898   0.294   6.968  0.4465 -0.0254 -0.0795
  131OSM    H5F14130   3.868   0.188   6.980  2.3489 -0.7550 -1.6448
  131OSM    H5G14131   3.821   0.369   6.996  1.2596  1.6367 -2.1761
  131OSM    C6F14132   4.008   0.302   7.083 -0.3126 -0.7655  0.0857
  131OSM    H6F14133   4.051   0.403   7.096  3.5667 -2.4704  1.1645
  131OSM    H6G14134   4.095   0.238   7.058 -1.4094 -3.0686  1.9760
  131OSM    C7F14135   3.952   0.270   7.219  0.2931 -0.5041 -0.2429
  131OSM    H7F14136   3.915   0.166   7.217 -0.2732 -0.4398  3.4918
  131OSM    H7G14137   3.862   0.334   7.232  1.0510  0.9963 -2.1166
  131OSM    C8F14138   4.056   0.284   7.328 -0.2741 -0.3590 -0.4758
  131OSM    H8F14139   4.104   0.383   7.320 -2.3869  0.6672 -0.6495
  131OSM    H8G14140   4.129   0.203   7.304  1.0949  0.4388  0.8981
  131OSM    C9F14141   4.004   0.241   7.466  0.0013 -0.3733 -0.1526
  131OSM    H9F14142   3.945   0.150   7.485  3.3276 -1.9881  3.1427
  131OSM   C10F14143   4.049   0.292   7.581 -0.4224 -0.1683  0.7465
  131OSM   H10F14144   4.011   0.254   7.677  0.2789  0.6585  1.3554
  131OSM   C11F14145   4.159   0.404   7.602  0.2059 -0.2035 -0.1310
  131OSM   H11F14146   4.135   0.482   7.527  1.3512  1.8923  1.6449
  131OSM   H11G14147   4.262   0.367   7.583  0.6723  0.7433  0.5510
  131OSM   C12F14148   4.160   0.467   7.745  0.0143  0.1004  0.0166
  131OSM   H12F14149   4.241   0.543   7.746  0.7045 -0.6503  0.9779
  131OSM   H12G14150   4.192   0.391   7.819  0.1387 -0.8783 -1.0208
  131OSM   C13F14151   4.028   0.532   7.785 -0.0494 -0.6598  0.0083
  131OSM   H13F14152   3.946   0.457   7.773 -1.8291  1.2013  0.1398
  131OSM   H13G14153   3.999   0.618   7.722  1.1583 -0.2128  0.0710
  131OSM   C14F14154   4.024   0.576   7.930 -0.4595 -0.9116  0.2490
  131OSM   H14F14155   4.091   0.665   7.932 -1.5965 -0.0772  1.7547
  131OSM   H14G14156   4.071   0.505   8.001 -0.1383 -0.6434  0.3085
  131OSM   C15F14157   3.879   0.603   7.982 -0.0122  0.1369  0.2529
  131OSM   H15F14158   3.823   0.515   7.944 -1.3420  0.6713  0.9527
  131OSM   H15G14159   3.836   0.694   7.937  0.7471 -0.1239 -1.0081
  131OSM   C16F14160   3.879   0.597   8.138  0.1237 -0.7556 -0.7933
  131OSM   H16F14161   3.947   0.669   8.187 -1.1341 -0.5483  0.6952
  131OSM   H16G14162   3.901   0.495   8.174 -0.7531 -1.2617 -1.6551
  131OSM   C17F14163   3.738   0.625   8.176  0.7247 -0.6034 -0.1526
  131OSM   H17F14164   3.714   0.573   8.271 -1.9835  1.2865  0.2251
  131OSM   H17G14165   3.666   0.581   8.104  1.2977  0.7407 -1.5753
  131OSM   C18F14166   3.712   0.774   8.181 -0.2346  0.2695 -0.2565
  131OSM   H18F14167   3.608   0.795   8.214 -0.2434 -1.0000  0.5593
  131OSM   H18G14168   3.723   0.816   8.079 -0.1427 -1.4974 -0.9930
  131OSM   H18H14169   3.783   0.827   8.248  0.1756  1.6651 -1.7629
  132OSM      N14170   5.095   3.099   5.986  0.0765  0.3566 -0.5751
  132OSM    C1514171   5.016   3.182   5.893 -0.0513  0.2734 -0.0858
  132OSM   H15A14172   4.962   3.119   5.825 -0.5538  1.5077 -0.8568
  132OSM   H15B14173   5.070   3.259   5.841 -0.0724  0.6223  0.4017
  132OSM   H15C14174   4.953   3.236   5.963  1.0544  1.2169  0.2142
  132OSM    C1414175   5.164   3.185   6.089  0.0266 -0.8361 -0.3322
  132OSM   H14A14176   5.218   3.121   6.157 -0.0820  0.2500  0.7916
  132OSM   H14B14177   5.090   3.236   6.150  0.1233 -0.0088 -0.8988
  132OSM   H14C14178   5.229   3.258   6.046 -0.0793 -1.4101 -1.4789
  132OSM    C1314179   4.993   3.006   6.065  0.1398  0.2017  0.0928
  132OSM   H13A14180   4.942   2.948   5.990  0.7519  1.3062 -1.1886
  132OSM   H13B14181   4.912   3.062   6.110 -0.2789  0.5557 -1.0840
  132OSM   H13C14182   5.041   2.957   6.148 -0.0824 -1.7552 -0.9129
  132OSM    C1214183   5.207   3.019   5.925 -1.0410 -0.2350 -0.4002
  132OSM   H12A14184   5.270   3.088   5.872 -0.5464  0.0288  0.5058
  132OSM   H12B14185   5.164   2.952   5.852  1.7147 -2.9794  0.3475
  132OSM    C1114186   5.298   2.935   6.018 -1.0102  0.0123  0.0280
  132OSM   H11A14187   5.356   3.004   6.083  0.9395 -0.3951 -1.2171
  132OSM   H11B14188   5.370   2.885   5.950 -0.5123  0.4963  0.1982
  132OSM      P14189   5.285   2.731   6.178  0.4353  0.5782  0.1258
  132OSM    O1314190   5.173   2.635   6.205 -0.1134  0.2163 -0.2529
  132OSM    O1414191   5.402   2.677   6.107 -0.3710 -0.1056 -0.3955
  132OSM    O1114192   5.329   2.809   6.306  0.5418 -0.2184 -0.0590
  132OSM    O1214193   5.219   2.836   6.084 -0.2033 -0.1965  0.0346
  132OSM    C1S14194   5.226   2.874   6.390  0.4598  0.1301 -0.1784
  132OSM    H1S14195   5.168   2.794   6.441 -1.1435  0.7003 -1.0736
  132OSM    H1T14196   5.148   2.932   6.336 -0.5757 -1.2009 -0.1631
  132OSM     NF14197   5.179   3.002   6.591 -0.4533  0.7953 -0.4639
  132OSM    HNF14198   5.134   3.091   6.595 -0.7264  0.8811 -3.5257
  132OSM    C2S14199   5.280   2.980   6.496  0.1511 -0.1116 -0.3733
  132OSM    H2S14200   5.363   2.925   6.547 -1.7347 -2.2226  0.4924
  132OSM    C3S14201   5.338   3.104   6.426  0.4929  0.7325  0.0273
  132OSM    H3S14202   5.258   3.161   6.375 -1.2808 -0.0187  1.8829
  132OSM     O314203   5.437   3.068   6.322 -0.0881  0.1276  0.5391
  132OSM    HO314204   5.424   2.974   6.312  0.4577  0.1733 -0.6992
  132OSM    C4S14205   5.410   3.196   6.534 -0.3130  0.1478 -0.7187
  132OSM    H4S14206   5.496   3.155   6.588 -1.1763 -0.3137  0.3304
  132OSM    C5S14207   5.378   3.328   6.560  0.2053 -0.2143 -0.4174
  132OSM    H5S14208   5.285   3.371   6.519 -0.8503 -2.6438 -0.6496
  132OSM    C6S14209   5.438   3.427   6.656  0.5927 -0.4048  0.5779
  132OSM    H6S14210   5.365   3.510   6.668 -1.1228 -1.4990 -1.8568
  132OSM    H6T14211   5.523   3.480   6.608  0.2449  0.0074  0.4161
  132OSM    C7S14212   5.486   3.377   6.792 -0.1760 -0.3675 -0.8692
  132OSM    H7S14213   5.535   3.459   6.849 -3.9630  2.2855 -1.2499
  132OSM    H7T14214   5.560   3.295   6.780  1.6619  0.6193  2.9788
  132OSM    C8S14215   5.373   3.325   6.879  0.1779  0.1629  0.0850
  132OSM    H8S14216   5.423   3.278   6.967 -0.3018  1.7568  1.2322
  132OSM    H8T14217   5.320   3.246   6.822 -0.9368 -0.1489  1.5278
  132OSM    C9S14218   5.276   3.430   6.924 -0.1931  1.0357  0.4562
  132OSM    H9S14219   5.171   3.395   6.913  0.8703 -1.7991 -0.9754
  132OSM    H9T14220   5.284   3.512   6.850  2.2611  0.6406  0.2461
  132OSM   C10S14221   5.301   3.488   7.060 -0.7778 -0.5148 -0.7914
  132OSM   H10S14222   5.290   3.598   7.058  3.5784  0.0207 -0.6392
  132OSM   H10T14223   5.405   3.466   7.094 -1.9709 -1.7098  2.2682
  132OSM   C11S14224   5.204   3.437   7.166  0.8950  0.0938 -0.1014
  132OSM   H11S14225   5.200   3.328   7.148  2.0381 -0.3882  2.2411
  132OSM   H11T14226   5.104   3.481   7.147  0.1980 -2.1489 -1.8422
  132OSM   C12S14227   5.251   3.448   7.310  0.1166  0.5426  0.3504
  132OSM   H12S14228   5.355   3.416   7.334 -0.1661 -0.2142  0.5919
  132OSM   H12T14229   5.177   3.393   7.372  1.2641  0.8538  2.0484
  132OSM   C13S14230   5.260   3.598   7.354  0.3019  0.3242 -1.0938
  132OSM   H13S14231   5.164   3.652   7.347  0.3187  0.7978  1.5516
  132OSM   H13T14232   5.323   3.648   7.278  0.6058  1.0083 -0.4034
  132OSM   C14S14233   5.299   3.644   7.500  0.6721  0.0770 -0.4914
  132OSM   H14S14234   5.354   3.741   7.491 -1.0147  1.1236  0.2363
  132OSM   H14T14235   5.369   3.567   7.537  2.9703  1.7408 -1.2582
  132OSM   C15S14236   5.187   3.656   7.607  0.6592  0.1504  0.0700
  132OSM   H15S14237   5.126   3.564   7.609 -3.8785  3.0147  3.2339
  132OSM   H15T14238   5.106   3.726   7.577 -1.9687 -2.1935  1.4635
  132OSM   C16S14239   5.244   3.675   7.747  0.1734 -0.7927 -0.1435
  132OSM   H16S14240   5.314   3.761   7.745 -0.0132 -0.6103  0.8598
  132OSM   H16T14241   5.303   3.587   7.778 -1.6885 -1.9855  0.1152
  132OSM   C17S14242   5.130   3.677   7.851  0.0058  0.4233 -0.4216
  132OSM   H17S14243   5.156   3.657   7.957 -0.8056 -2.1078 -0.6634
  132OSM   H17T14244   5.071   3.586   7.827  1.7493 -0.8406  0.0673
  132OSM   C18S14245   5.047   3.806   7.845  0.3570  0.2488 -0.4623
  132OSM   H18S14246   4.965   3.810   7.919 -0.2408 -1.2149 -1.0260
  132OSM   H18T14247   4.997   3.826   7.748 -1.3271  1.2961  0.5969
  132OSM   H18U14248   5.114   3.895   7.850  1.2232 -0.4766  1.8243
  132OSM    C1F14249   5.143   2.904   6.677  0.0288 -0.1832  0.9194
  132OSM     OF14250   5.190   2.792   6.671  0.0276  0.2355 -0.9287
  132OSM    C2F14251   5.032   2.936   6.775 -0.8709  0.2314  0.0885
  132OSM    H2F14252   4.982   2.843   6.810 -2.1804  0.8616 -0.0645
  132OSM    H2G14253   4.951   2.993   6.725 -0.9939  0.1302  0.1710
  132OSM    C3F14254   5.073   3.015   6.899  0.3479  0.0871  1.2485
  132OSM    H3F14255   4.978   3.045   6.948 -0.5479  3.9316 -2.5292
  132OSM    H3G14256   5.118   3.111   6.865  1.2908 -0.9986 -0.6800
  132OSM    C4F14257   5.161   2.944   7.004 -0.0750  0.4011  0.1256
  132OSM    H4F14258   5.261   2.937   6.956  0.0834  0.6293  0.4137
  132OSM    H4G14259   5.121   2.841   7.017 -0.6376  0.9204  3.0649
  132OSM    C5F14260   5.165   3.015   7.141 -0.0502  0.1830  0.2583
  132OSM    H5F14261   5.072   2.997   7.199 -1.3218  1.9856 -1.1530
  132OSM    H5G14262   5.172   3.126   7.130 -2.0387  0.1773 -1.5564
  132OSM    C6F14263   5.284   2.988   7.231  0.3546  0.1244  0.2285
  132OSM    H6F14264   5.383   2.988   7.181  0.8919  0.9512  1.2596
  132OSM    H6G14265   5.261   2.894   7.286  1.8952  0.9302  2.3085
  132OSM    C7F14266   5.289   3.098   7.351 -0.1864 -0.4826  0.2465
  132OSM    H7F14267   5.210   3.091   7.429 -0.3238  1.9131  0.3548
  132OSM    H7G14268   5.283   3.198   7.301  1.0461  0.7958  2.5635
  132OSM    C8F14269   5.418   3.097   7.431 -0.2366 -0.3586  0.5738
  132OSM    H8F14270   5.417   3.183   7.501  1.7877 -0.4236  0.7148
  132OSM    H8G14271   5.501   3.105   7.357 -0.0835 -0.7515  0.7018
  132OSM    C9F14272   5.432   2.964   7.503  0.0706  0.2440 -0.3122
  132OSM    H9F14273   5.419   2.878   7.435 -1.1871  0.9501 -0.9800
  132OSM   C10F14274   5.455   2.942   7.632  0.4867  0.8632  0.2233
  132OSM   H10F14275   5.442   2.837   7.663  0.8452  0.4300 -1.0419
  132OSM   C11F14276   5.462   3.053   7.744 -0.0662  0.1927  1.0116
  132OSM   H11F14277   5.531   3.133   7.711 -2.9378  2.3864  0.1721
  132OSM   H11G14278   5.494   3.014   7.843  1.5044  0.7490  0.7363
  132OSM   C12F14279   5.326   3.124   7.762 -0.0394  0.2767  0.1788
  132OSM   H12F14280   5.258   3.051   7.810  0.1369  0.0904  0.1470
  132OSM   H12G14281   5.279   3.156   7.667  2.9296  2.6812 -0.5583
  132OSM   C13F14282   5.338   3.252   7.848  0.6737  0.2584 -0.6795
  132OSM   H13F14283   5.241   3.302   7.863 -0.6292 -1.5856 -2.6023
  132OSM   H13G14284   5.397   3.336   7.804 -0.8987  1.6552 -0.1570
  132OSM   C14F14285   5.402   3.223   7.982 -0.3456 -0.3784 -0.2951
  132OSM   H14F14286   5.510   3.196   7.979 -0.2530  0.0742 -1.1197
  132OSM   H14G14287   5.358   3.126   8.013  2.4992 -2.5635 -2.7828
  132OSM   C15F14288   5.384   3.329   8.085  0.1032 -0.6566  0.4518
  132OSM   H15F14289   5.280   3.356   8.112  0.1214  0.5562 -0.6377
  132OSM   H15G14290   5.429   3.425   8.051 -0.4782 -0.2244  0.9019
  132OSM   C16F14291   5.461   3.307   8.218  0.1709  0.3061  0.0942
  132OSM   H16F14292   5.564   3.270   8.205 -0.0115 -2.0874  4.4004
  132OSM   H16G14293   5.413   3.225   8.276 -0.6379  0.7117  0.0151
  132OSM   C17F14294   5.482   3.425   8.314  0.6745  0.5251  0.1242
  132OSM   H17F14295   5.383   3.456   8.354  0.6662 -0.0936  0.5968
  132OSM   H17G14296   5.526   3.499   8.243 -0.3530  0.0453 -1.0486
  132OSM   C18F14297   5.577   3.388   8.421 -0.6225  0.1697 -0.5415
  132OSM   H18F14298   5.595   3.473   8.490  1.5377 -0.5158 -0.2282
  132OSM   H18G14299   5.678   3.356   8.388 -0.3163 -0.8793  1.3120
  132OSM   H18H14300   5.525   3.307   8.478  1.6592 -2.0239 -1.4666
  133SAPE     N14301   1.046   1.575  10.570  0.1601 -0.0559 -0.1404
  133SAPE   HN114302   0.992   1.634  10.503 -0.4372 -1.0516 -0.5463
  133SAPE   HN214303   1.013   1.614  10.661 -0.7137  1.3824 -1.0577
  133SAPE   HN314304   1.143   1.599  10.543 -0.5023  1.6797 -1.0799
  133SAPE   C1214305   1.000   1.429  10.544 -0.4665  0.2901 -0.4993
  133SAPE  H12A14306   1.087   1.360  10.556 -1.2529 -0.7471 -0.6735
  133SAPE  H12B14307   0.962   1.421  10.440 -0.1639 -2.9588 -0.4296
  133SAPE   C1114308   0.889   1.375  10.631 -0.5625 -0.2742 -0.6543
  133SAPE  H11A14309   0.857   1.277  10.590  3.2735 -1.5357 -0.8034
  133SAPE  H11B14310   0.806   1.448  10.619  0.3894  0.3713 -3.4482
  133SAPE     P14311   0.968   1.222  10.842 -0.0655  0.1599  0.2754
  133SAPE   O1314312   1.037   1.262  10.961  0.0953 -0.3575 -0.4234
  133SAPE   O1414313   0.844   1.149  10.855  0.1557  0.1003  0.0306
  133SAPE   O1214314   0.936   1.358  10.766 -0.2389  0.6449 -1.2593
  133SAPE   O1114315   1.069   1.143  10.750 -0.1104 -0.3985  0.1022
  133SAPE    C114316   1.121   1.020  10.792 -0.1797 -0.1315  0.3595
  133SAPE    HA14317   1.180   1.027  10.886  0.6896  1.1349 -0.2588
  133SAPE    HB14318   1.046   0.940  10.810 -1.2381  0.1720 -2.5156
  133SAPE    C214319   1.216   0.976  10.676 -0.0043 -0.4330 -0.1079
  133SAPE    HS14320   1.307   1.036  10.695 -0.3177  0.1697 -0.5188
  133SAPE   O2114321   1.158   0.997  10.547 -0.0630 -0.0591 -0.0654
  133SAPE   C2114322   1.249   1.007  10.449 -0.0726  0.3088  0.2058
  133SAPE   O2214323   1.365   1.032  10.468 -0.5581 -0.0082  0.1415
  133SAPE   C2214324   1.190   0.981  10.314  0.5801 -0.5890  0.0043
  133SAPE   H2R14325   1.235   1.054  10.244 -2.3473 -0.2942 -1.6079
  133SAPE   H2S14326   1.218   0.877  10.288  0.0330 -0.5913 -0.5683
  133SAPE    C314327   1.261   0.831  10.692 -0.2198  0.3373 -0.1620
  133SAPE    HX14328   1.186   0.759  10.652 -0.6180  0.2976  0.6600
  133SAPE    HY14329   1.259   0.818  10.802  0.0990  1.5406 -0.0047
  133SAPE   O3114330   1.394   0.807  10.639 -0.3962  0.1041 -0.1792
  133SAPE   C3114331   1.443   0.680  10.652  0.0738  0.2894 -0.8153
  133SAPE   O3214332   1.381   0.589  10.705 -0.4124  0.4089  0.4183
  133SAPE   C3214333   1.562   0.654  10.562 -0.2301 -0.4144 -0.7080
  133SAPE   H2X14334   1.573   0.543  10.561 -0.8436 -0.5032  1.1227
  133SAPE   H2Y14335   1.656   0.693  10.606  0.6622 -2.0189 -1.1418
  133SAPE   C2314336   1.036   0.992  10.302  0.2152  0.0622  0.3162
  133SAPE   H3R14337   0.990   0.928  10.380 -0.8387 -0.1842 -0.4807
  133SAPE   H3S14338   1.014   0.960  10.198 -1.5859  0.6188  0.5049
  133SAPE   C2414339   0.986   1.137  10.295 -0.6072  0.0006  0.4419
  133SAPE   H4R14340   0.997   1.183  10.395 -0.9015  1.3231 -0.1208
  133SAPE   H4S14341   0.876   1.134  10.277 -0.2854  1.6046 -1.9804
  133SAPE   C2514342   1.039   1.222  10.183  0.7517 -0.0972 -0.9461
  133SAPE   H5R14343   1.116   1.292  10.219  0.6929 -1.5606  2.1346
  133SAPE   C2614344   0.987   1.240  10.065  0.5517  0.2064  0.0680
  133SAPE   H6R14345   1.043   1.301   9.993  1.0820  0.0658  0.3605
  133SAPE   C2714346   0.873   1.180   9.994 -0.1099 -0.7062 -0.7512
  133SAPE   H7R14347   0.792   1.256   9.988  0.3300 -0.0126  1.6203
  133SAPE   H7S14348   0.822   1.105  10.059  0.6196 -0.6268 -0.0876
  133SAPE   C2814349   0.899   1.119   9.863  0.5019 -0.4987 -0.8006
  133SAPE   H8R14350   0.939   1.017   9.871  1.1658 -0.3259 -1.8047
  133SAPE   C2914351   0.878   1.179   9.742 -0.3054 -0.6024 -0.0155
  133SAPE   H9R14352   0.902   1.121   9.652 -0.4859  0.0995 -0.5200
  133SAPE  C21014353   0.824   1.320   9.718  0.8899 -0.9020 -0.2282
  133SAPE  H10R14354   0.862   1.366   9.625  0.3950  1.4902  0.7076
  133SAPE  H10S14355   0.861   1.384   9.801 -3.6184  0.7851  0.6321
  133SAPE  C21114356   0.672   1.318   9.712 -0.1055  0.0311 -0.6291
  133SAPE  H11R14357   0.625   1.310   9.811  0.3579  1.0855 -0.3069
  133SAPE  C21214358   0.600   1.332   9.591  0.6681  0.1288  0.1210
  133SAPE  H12R14359   0.491   1.347   9.600  0.2805 -0.9057 -2.3890
  133SAPE  C21314360   0.646   1.349   9.451  0.1755 -0.1602  0.9984
  133SAPE  H13R14361   0.652   1.254   9.393 -1.0236  0.0428  0.5252
  133SAPE  H13S14362   0.753   1.376   9.457  0.2016 -0.0718  0.1861
  133SAPE  C21414363   0.572   1.459   9.372 -0.8777  0.4858  0.0807
  133SAPE  H14R14364   0.561   1.563   9.406 -0.9502  0.8521 -1.0492
  133SAPE  C21514365   0.511   1.457   9.253  0.2663  0.1125  0.6187
  133SAPE  H15R14366   0.461   1.546   9.214  1.4552 -0.3895 -2.1472
  133SAPE  C21614367   0.493   1.331   9.176 -0.5481 -0.2268 -0.2392
  133SAPE  H16R14368   0.492   1.250   9.252 -1.8422  1.8856  2.0821
  133SAPE  H16S14369   0.576   1.320   9.103 -0.2123 -1.1436  0.2657
  133SAPE  C21714370   0.373   1.325   9.085 -0.4315  0.0010  0.0582
  133SAPE  H17R14371   0.386   1.406   9.010 -0.2422  1.6315  1.7948
  133SAPE  H17S14372   0.282   1.352   9.143  0.5549  0.6764  1.3212
  133SAPE  C21814373   0.364   1.184   9.026 -0.4205  0.6047  0.7174
  133SAPE  H18R14374   0.383   1.110   9.107  1.4054 -2.1000 -2.0827
  133SAPE  H18S14375   0.431   1.160   8.940  0.1686  0.6624  1.1519
  133SAPE  C21914376   0.217   1.155   8.980 -0.7242  0.2743 -0.1881
  133SAPE  H19R14377   0.191   1.220   8.894  1.9630  4.2276  1.8287
  133SAPE  H19S14378   0.142   1.179   9.058 -1.4837  0.6501 -1.0294
  133SAPE  C22014379   0.187   1.006   8.935 -0.3170  0.7263 -0.1517
  133SAPE  H20R14380   0.243   0.977   8.843  0.9297  1.5832  0.3250
  133SAPE  H20S14381   0.077   0.997   8.921 -0.7024  3.1848  0.8881
  133SAPE  H20T14382   0.229   0.951   9.022 -2.2917 -0.1091  0.2915
  133SAPE   C3314383   1.564   0.712  10.422 -0.3621  0.6497 -0.6368
  133SAPE   H3X14384   1.668   0.701  10.383  0.8105  0.8952  2.2996
  133SAPE   H3Y14385   1.536   0.819  10.427 -2.9479  0.0624 -1.5689
  133SAPE   C3414386   1.463   0.655  10.321 -0.2709 -0.7397  0.1182
  133SAPE   H4X14387   1.363   0.659  10.368 -0.3423  0.9536 -0.1327
  133SAPE   H4Y14388   1.487   0.550  10.294  0.7902 -0.0007 -1.9504
  133SAPE   C3514389   1.466   0.718  10.185 -0.1550 -0.2790 -0.0281
  133SAPE   H5X14390   1.569   0.720  10.143 -0.0301 -1.2210  0.1952
  133SAPE   H5Y14391   1.427   0.819  10.208  1.7321  0.3185  0.6721
  133SAPE   C3614392   1.356   0.674  10.085 -0.4251  0.0229  0.5147
  133SAPE   H6X14393   1.266   0.663  10.149 -0.9718  0.9106 -0.1031
  133SAPE   H6Y14394   1.388   0.574  10.048 -1.1966  0.2057 -0.6879
  133SAPE   C3714395   1.346   0.758   9.966  1.2348  0.5213  0.6599
  133SAPE   H7X14396   1.442   0.743   9.913  0.8005  0.4523 -0.1089
  133SAPE   H7Y14397   1.332   0.864   9.997  1.6374  0.7503  0.0620
  133SAPE   C3814398   1.220   0.723   9.881 -0.2052 -0.1852  0.3772
  133SAPE   H8X14399   1.138   0.726   9.957 -1.8050 -0.0453 -1.3287
  133SAPE   H8Y14400   1.216   0.618   9.846 -0.0616 -0.0245 -0.1234
  133SAPE   C3914401   1.185   0.833   9.777  0.3442 -0.3197  0.0113
  133SAPE   H9X14402   1.279   0.854   9.723 -1.4181  3.7557 -1.7227
  133SAPE   H9Y14403   1.147   0.917   9.839 -1.2597 -0.6436 -0.5035
  133SAPE  C31014404   1.076   0.796   9.680 -0.5473  0.1767 -0.5740
  133SAPE  H10X14405   0.982   0.800   9.738 -0.0229 -1.8759  0.4707
  133SAPE  H10Y14406   1.081   0.691   9.643 -0.1209 -0.0222  0.0327
  133SAPE  C31114407   1.075   0.896   9.567 -0.6007 -0.4084 -0.1528
  133SAPE  H11X14408   1.171   0.897   9.511 -1.0268  1.5968 -0.8755
  133SAPE  H11Y14409   1.084   0.995   9.615 -1.2870 -0.2855 -0.2678
  133SAPE  C31214410   0.945   0.904   9.489 -0.2268 -0.5229 -0.7044
  133SAPE  H12X14411   0.866   0.927   9.563 -0.4271 -1.3676 -0.6513
  133SAPE  H12Y14412   0.924   0.805   9.441 -1.0397 -0.8673  0.3508
  133SAPE  C31314413   0.938   1.014   9.376  0.0054  0.0343 -0.2734
  133SAPE  H13X14414   1.026   1.081   9.389  0.9147 -0.9859 -1.0323
  133SAPE  H13Y14415   0.844   1.073   9.367  1.1662  1.6520 -2.3738
  133SAPE  C31414416   0.954   0.944   9.234  0.0722 -0.1735 -0.2574
  133SAPE  H14X14417   0.868   0.873   9.234 -1.5361  1.6579 -4.0359
  133SAPE  H14Y14418   1.056   0.904   9.217 -1.2965 -4.1083  0.1463
  133SAPE  C31514419   0.917   1.032   9.115  0.1388  0.8463  0.4964
  133SAPE  H15X14420   0.992   1.114   9.114  1.0838 -0.0105 -0.3283
  133SAPE  H15Y14421   0.817   1.077   9.132 -1.5634 -2.3092 -0.7028
  133SAPE  C31614422   0.920   0.948   8.991  0.0327 -0.1471  0.8681
  133SAPE  H16X14423   0.846   0.990   8.920  0.8186 -0.0743  0.0734
  133SAPE  H16Y14424   0.897   0.841   9.010 -0.2989 -0.2892 -0.2752
  133SAPE  C31714425   1.059   0.969   8.914 -0.1786 -0.1835  0.2983
  133SAPE  H17X14426   1.140   0.916   8.968 -0.6656 -0.7495  0.4779
  133SAPE  H17Y14427   1.088   1.076   8.927 -0.1877 -0.1255 -0.1586
  133SAPE  C31814428   1.046   0.924   8.768  0.2807  0.2222  0.4500
  133SAPE  H18X14429   1.144   0.935   8.717 -0.8209  0.6340 -1.6393
  133SAPE  H18Y14430   0.968   0.979   8.711 -0.0887  0.8737  1.5815
  133SAPE  H18Z14431   1.017   0.817   8.761  1.4528 -0.0509 -0.4153
  134SAPE     N14432   3.590   1.810  10.920  0.1414  0.8638  0.5477
  134SAPE   HN114433   3.670   1.872  10.946  2.2180 -0.9242 -1.3158
  134SAPE   HN214434   3.514   1.847  10.981  0.5302  1.8642  0.4363
  134SAPE   HN314435   3.610   1.716  10.959  0.0935  0.2091 -0.9590
  134SAPE   C1214436   3.554   1.799  10.777  0.5713 -0.3667 -0.0211
  134SAPE  H12A14437   3.549   1.903  10.738  3.0713 -0.3035 -0.2649
  134SAPE  H12B14438   3.453   1.755  10.772 -0.2046  1.5197 -1.8531
  134SAPE   C1114439   3.672   1.725  10.706  0.2547 -0.0134  0.0923
  134SAPE  H11A14440   3.759   1.793  10.695  0.0645  0.1185 -0.6576
  134SAPE  H11B14441   3.655   1.702  10.599  1.5424  2.6352 -0.7266
  134SAPE     P14442   3.652   1.463  10.778  0.1912 -0.1699 -0.1921
  134SAPE   O1314443   3.731   1.369  10.861 -0.0109  0.0249  0.1571
  134SAPE   O1414444   3.512   1.487  10.815 -0.2681 -0.2583  0.2760
  134SAPE   O1214445   3.722   1.611  10.775 -0.2244 -0.2071 -0.3539
  134SAPE   O1114446   3.657   1.408  10.625  0.4509  0.1037 -0.2601
  134SAPE    C114447   3.780   1.368  10.556  0.1466 -0.6749 -0.2205
  134SAPE    HA14448   3.854   1.314  10.619 -0.0531  0.4195  0.9708
  134SAPE    HB14449   3.756   1.297  10.474 -0.7607  0.4461 -0.9313
  134SAPE    C214450   3.850   1.493  10.488 -0.8736  0.0179  0.1388
  134SAPE    HS14451   3.887   1.564  10.566  2.1697  0.7278 -1.8593
  134SAPE   O2114452   3.764   1.551  10.387 -0.2149  0.0777  0.3760
  134SAPE   C2114453   3.807   1.654  10.320  0.3034 -0.1771 -0.8828
  134SAPE   O2214454   3.903   1.727  10.353 -0.0481 -0.4609  0.2327
  134SAPE   C2214455   3.699   1.701  10.229  0.2327  0.1804  0.9010
  134SAPE   H2R14456   3.606   1.642  10.225  1.2957 -1.4158 -1.9340
  134SAPE   H2S14457   3.672   1.806  10.253  1.4584  0.7962 -0.2892
  134SAPE    C314458   3.982   1.447  10.410 -0.0865 -0.1785  0.3213
  134SAPE    HX14459   4.038   1.365  10.459  0.3552  0.0487  0.2006
  134SAPE    HY14460   4.054   1.531  10.417  3.7685 -3.1809 -1.5689
  134SAPE   O3114461   3.965   1.426  10.266 -0.1998  0.4112 -0.6269
  134SAPE   C3114462   3.934   1.308  10.222  0.3309 -0.3076  0.8574
  134SAPE   O3214463   3.954   1.204  10.280 -0.8875  0.7229  0.0277
  134SAPE   C3214464   3.891   1.315  10.073 -0.2870 -0.0695  0.2701
  134SAPE   H2X14465   3.972   1.379  10.030 -1.8138  1.6424 -0.1058
  134SAPE   H2Y14466   3.791   1.357  10.051 -0.7385 -0.6465  1.2135
  134SAPE   C2314467   3.766   1.713  10.083 -0.0428 -0.0241  0.0573
  134SAPE   H3R14468   3.813   1.616  10.056  0.8499  1.0275 -2.2537
  134SAPE   H3S14469   3.846   1.789  10.085 -1.5874  1.7276 -2.0947
  134SAPE   C2414470   3.666   1.770   9.974 -1.0084 -0.0649  0.0909
  134SAPE   H4R14471   3.606   1.853  10.017 -1.7682 -0.6282  0.1266
  134SAPE   H4S14472   3.591   1.691   9.954 -1.4511  0.9641 -2.6200
  134SAPE   C2514473   3.737   1.806   9.843  0.1314 -0.4501  0.4026
  134SAPE   H5R14474   3.770   1.910   9.826  2.9083 -1.7890 -2.8550
  134SAPE   C2614475   3.758   1.718   9.748 -0.7474  0.4538 -0.0861
  134SAPE   H6R14476   3.818   1.746   9.660 -3.5064  0.1802 -2.0953
  134SAPE   C2714477   3.726   1.567   9.749 -0.6646  0.1449  0.1137
  134SAPE   H7R14478   3.751   1.520   9.846 -1.2905 -0.5775 -0.0689
  134SAPE   H7S14479   3.796   1.520   9.677 -2.5206 -1.9327 -0.3534
  134SAPE   C2814480   3.578   1.553   9.712 -1.0580  0.3393 -0.7848
  134SAPE   H8R14481   3.511   1.580   9.794 -1.5252  0.6170 -1.2581
  134SAPE   C2914482   3.531   1.515   9.592  0.1186 -0.0942 -0.3413
  134SAPE   H9R14483   3.422   1.513   9.576  0.1382 -1.1434 -0.3702
  134SAPE  C21014484   3.605   1.474   9.466 -0.6230  0.6605  0.3000
  134SAPE  H10R14485   3.613   1.364   9.455 -2.3277  0.7022 -1.7124
  134SAPE  H10S14486   3.710   1.509   9.473  0.0317 -0.9538 -1.1487
  134SAPE  C21114487   3.544   1.525   9.335 -0.0055  0.3779 -0.2965
  134SAPE  H11R14488   3.483   1.454   9.278 -0.4669  1.1756 -0.8073
  134SAPE  C21214489   3.564   1.650   9.289 -0.3198 -0.0538 -0.2200
  134SAPE  H12R14490   3.521   1.673   9.190  2.6392 -0.1761 -1.5739
  134SAPE  C21314491   3.640   1.751   9.368 -0.0271 -0.4686  0.8589
  134SAPE  H13R14492   3.735   1.708   9.404 -0.3777 -0.0003  2.3894
  134SAPE  H13S14493   3.578   1.769   9.459 -2.1937 -0.1366 -0.6300
  134SAPE  C21414494   3.655   1.882   9.303 -0.9183 -0.3835 -1.2770
  134SAPE  H14R14495   3.659   1.870   9.193  1.0152  1.4216 -1.4384
  134SAPE  C21514496   3.668   2.010   9.354 -0.3593 -0.6106  0.2783
  134SAPE  H15R14497   3.671   2.092   9.281  3.0498  0.3233  1.3668
  134SAPE  C21614498   3.670   2.041   9.502 -0.7211  0.1447  0.0210
  134SAPE  H16R14499   3.771   2.047   9.546  0.5891 -1.2140 -2.6732
  134SAPE  H16S14500   3.616   1.966   9.564 -2.8098  0.4925 -1.3399
  134SAPE  C21714501   3.611   2.187   9.515 -0.8179 -0.1809  0.6151
  134SAPE  H17R14502   3.508   2.196   9.474 -0.4202 -0.2956 -0.4175
  134SAPE  H17S14503   3.678   2.259   9.462 -1.0393 -0.8393 -0.5849
  134SAPE  C21814504   3.622   2.236   9.663 -0.8641 -0.4139  0.5872
  134SAPE  H18R14505   3.574   2.335   9.674  0.5296  0.3295 -0.0253
  134SAPE  H18S14506   3.729   2.247   9.691 -0.6605 -1.0151  0.0546
  134SAPE  C21914507   3.552   2.146   9.769 -0.0483  0.2513 -0.1741
  134SAPE  H19R14508   3.579   2.039   9.769 -3.1734 -0.5970 -0.0208
  134SAPE  H19S14509   3.447   2.134   9.734 -0.1499  0.0039  0.2193
  134SAPE  C22014510   3.547   2.194   9.909 -0.1171  0.4669 -0.5949
  134SAPE  H20R14511   3.507   2.297   9.913  0.5648  0.7145  0.0860
  134SAPE  H20S14512   3.648   2.193   9.957  0.4005  0.5165 -1.6808
  134SAPE  H20T14513   3.479   2.128   9.967  0.2082 -0.8286 -1.6443
  134SAPE   C3314514   3.902   1.177   9.999  0.6861  0.3414  0.2876
  134SAPE   H3X14515   3.852   1.095  10.057 -1.2558 -0.9537 -3.0905
  134SAPE   H3Y14516   4.008   1.145  10.000  0.3918 -0.6432  0.2411
  134SAPE   C3414517   3.853   1.184   9.853  0.4480 -0.3070  0.2228
  134SAPE   H4X14518   3.895   1.270   9.796 -0.0915 -1.1157 -1.4259
  134SAPE   H4Y14519   3.742   1.187   9.857  0.3537  0.8239 -2.4646
  134SAPE   C3514520   3.903   1.059   9.783  0.4661 -0.1099 -0.1738
  134SAPE   H5X14521   3.862   0.973   9.839  0.1805  0.9263  1.2408
  134SAPE   H5Y14522   4.014   1.071   9.780  0.2241  2.0502 -1.5952
  134SAPE   C3614523   3.841   1.049   9.647  0.1144  0.6182 -0.0910
  134SAPE   H6X14524   3.738   1.010   9.662  0.1071  0.3025 -0.9072
  134SAPE   H6Y14525   3.893   0.966   9.593 -1.6472 -3.1590  3.7462
  134SAPE   C3714526   3.823   1.178   9.567 -0.8091 -0.2888  0.1263
  134SAPE   H7X14527   3.922   1.228   9.563 -0.9572  0.0704  0.7894
  134SAPE   H7Y14528   3.750   1.242   9.621 -2.1759 -0.1985 -1.8077
  134SAPE   C3814529   3.784   1.148   9.423 -0.1842  0.1126  0.3917
  134SAPE   H8X14530   3.770   1.247   9.373 -1.5911  0.2888  1.1146
  134SAPE   H8Y14531   3.687   1.094   9.419 -0.4569  0.7053 -1.6394
  134SAPE   C3914532   3.888   1.061   9.351  0.2687  0.6321  0.3445
  134SAPE   H9X14533   3.987   1.070   9.400  0.6367  0.1079 -0.2929
  134SAPE   H9Y14534   3.907   1.105   9.251  3.0180 -0.8499  0.1733
  134SAPE  C31014535   3.843   0.916   9.325 -0.5220  0.4460  0.8095
  134SAPE  H10X14536   3.762   0.880   9.392 -0.7702  4.3071  2.7643
  134SAPE  H10Y14537   3.932   0.851   9.331 -1.7072 -1.5304 -2.3527
  134SAPE  C31114538   3.789   0.892   9.182 -0.3252 -0.5846 -0.5588
  134SAPE  H11X14539   3.759   0.786   9.166  0.1644 -1.2270  2.3922
  134SAPE  H11Y14540   3.873   0.917   9.115  1.7488  1.5693  2.7006
  134SAPE  C31214541   3.665   0.973   9.150  0.0675 -0.7345  0.1180
  134SAPE  H12X14542   3.678   1.078   9.184 -1.9213  0.4611 -2.6261
  134SAPE  H12Y14543   3.586   0.937   9.219 -0.7499  1.9250  0.6216
  134SAPE  C31314544   3.608   0.968   9.011 -0.0705 -0.3072  0.3399
  134SAPE  H13X14545   3.540   1.055   9.011 -0.6487 -0.7593  0.9686
  134SAPE  H13Y14546   3.541   0.880   9.003 -0.8779  0.2558  0.8518
  134SAPE  C31414547   3.714   0.990   8.895  0.3303 -0.0142 -0.5002
  134SAPE  H14X14548   3.801   0.930   8.927 -0.4790 -0.0970  1.6320
  134SAPE  H14Y14549   3.747   1.096   8.898 -0.2341  0.1103  2.2655
  134SAPE  C31514550   3.661   0.946   8.763 -0.0839  0.5911 -0.0467
  134SAPE  H15X14551   3.563   0.998   8.755  1.2593  3.5098  1.5514
  134SAPE  H15Y14552   3.648   0.836   8.769 -0.3735  0.7716  4.1502
  134SAPE  C31614553   3.738   0.989   8.644  0.9442 -0.4465  0.4676
  134SAPE  H16X14554   3.732   1.098   8.625 -0.2362 -0.6221 -0.2195
  134SAPE  H16Y14555   3.685   0.938   8.561  0.0876  0.0842  0.6915
  134SAPE  C31714556   3.888   0.952   8.631  0.2600  0.1437  0.2366
  134SAPE  H17X14557   3.922   0.847   8.641  2.6995  1.0853  2.2546
  134SAPE  H17Y14558   3.943   1.013   8.705 -0.4729 -1.0790  1.8190
  134SAPE  C31814559   3.932   0.996   8.489  0.5121 -0.7745  0.0371
  134SAPE  H18X14560   3.910   0.915   8.416 -0.2040 -2.0023  1.5929
  134SAPE  H18Y14561   4.043   1.004   8.485  0.5312 -0.5671  0.8115
  134SAPE  H18Z14562   3.883   1.089   8.453  0.6511  0.2554  2.4267
  135SAPE     N14563   3.048   0.151  10.286  0.1972  0.3726  0.6736
  135SAPE   HN114564   2.984   0.190  10.214 -0.9794 -2.4205  0.1480
  135SAPE   HN214565   3.102   0.220  10.342  1.6407 -1.7796  2.0413
  135SAPE   HN314566   3.115   0.104  10.222 -0.6174  0.8039 -0.4959
  135SAPE   C1214567   2.978   0.041  10.359  0.4601 -0.0038  0.3709
  135SAPE  H12A14568   2.927  -0.024  10.285 -0.3959 -0.0767  1.0228
  135SAPE  H12B14569   2.918   0.094  10.436 -1.0525  0.8863 -1.3826
  135SAPE   C1114570   3.080  -0.045  10.432  0.7492  0.4336 -0.1389
  135SAPE  H11A14571   3.023  -0.115  10.497 -0.1869  0.7824 -0.5801
  135SAPE  H11B14572   3.126   0.029  10.502  2.3131 -0.0653 -0.6188
  135SAPE     P14573   3.244  -0.233  10.402  0.2874  0.1104  0.2042
  135SAPE   O1314574   3.344  -0.190  10.501 -0.2085  0.1645  0.0785
  135SAPE   O1414575   3.153  -0.346  10.444  0.3098 -0.0757 -0.2895
  135SAPE   O1214576   3.172  -0.107  10.340  0.4777  0.1558 -0.2742
  135SAPE   O1114577   3.327  -0.279  10.278  0.2342  0.0301 -0.0718
  135SAPE    C114578   3.265  -0.291  10.147 -0.5516 -0.5038  0.4389
  135SAPE    HA14579   3.177  -0.225  10.137 -0.2819 -0.2075  0.0243
  135SAPE    HB14580   3.334  -0.276  10.061 -0.6503  0.2440  0.4934
  135SAPE    C214581   3.223  -0.440  10.130 -0.1065 -0.7763  0.4375
  135SAPE    HS14582   3.157  -0.457  10.218  1.0640 -2.2434  1.0575
  135SAPE   O2114583   3.342  -0.522  10.147  0.1566 -0.5650 -0.2232
  135SAPE   C2114584   3.310  -0.654  10.153 -0.8512  0.0335  0.7259
  135SAPE   O2214585   3.201  -0.704  10.131  0.3273 -0.6663 -0.5674
  135SAPE   C2214586   3.438  -0.736  10.191  0.7014  0.7376  0.3966
  135SAPE   H2R14587   3.507  -0.663  10.239  0.1831  0.9822  0.7744
  135SAPE   H2S14588   3.408  -0.821  10.256  1.3671 -0.0168 -0.2660
  135SAPE    C314589   3.156  -0.459   9.998  0.1655 -0.3646 -0.1341
  135SAPE    HX14590   3.109  -0.560   9.991  0.8641 -0.7411  0.5851
  135SAPE    HY14591   3.231  -0.462   9.916  1.2022 -1.0509  0.8217
  135SAPE   O3114592   3.067  -0.353   9.961 -0.1566 -0.2415 -0.3421
  135SAPE   C3114593   2.939  -0.358   9.999 -0.5268 -0.1739  0.0336
  135SAPE   O3214594   2.892  -0.455  10.055  0.3730 -0.0471  0.2172
  135SAPE   C3214595   2.867  -0.230   9.970  0.5095 -0.1660 -0.3369
  135SAPE   H2X14596   2.898  -0.142  10.030 -0.2038  0.9280 -1.5460
  135SAPE   H2Y14597   2.760  -0.246   9.993  0.7754 -2.2872 -0.4115
  135SAPE   C2314598   3.494  -0.803  10.063  0.1155  0.2043  0.8477
  135SAPE   H3R14599   3.419  -0.878  10.028  1.8842 -2.5312  2.7377
  135SAPE   H3S14600   3.573  -0.868  10.105 -0.6585 -1.0618  0.3761
  135SAPE   C2414601   3.553  -0.703   9.961 -0.8058  0.5445  0.1243
  135SAPE   H4R14602   3.482  -0.621   9.938  1.7097  1.9805 -2.8212
  135SAPE   H4S14603   3.571  -0.769   9.873  0.3137 -2.4710  2.5039
  135SAPE   C2514604   3.676  -0.631  10.014  0.3418  0.1712  0.1901
  135SAPE   H5R14605   3.650  -0.551  10.084 -1.3632  0.0788 -0.2961
  135SAPE   C2614606   3.804  -0.651   9.974 -0.2546 -0.2612  0.0113
  135SAPE   H6R14607   3.879  -0.586  10.022  1.0247 -0.8707 -1.1393
  135SAPE   C2714608   3.848  -0.744   9.861 -0.0467  0.5983 -0.2573
  135SAPE   H7R14609   3.791  -0.836   9.888  2.2845 -0.1062  2.5394
  135SAPE   H7S14610   3.955  -0.771   9.865 -0.3581 -0.6348 -0.0005
  135SAPE   C2814611   3.824  -0.692   9.727 -0.2039 -0.5587  0.3995
  135SAPE   H8R14612   3.752  -0.609   9.724 -0.4545 -0.8092 -2.7816
  135SAPE   C2914613   3.895  -0.725   9.609  0.1258  0.6070  0.2787
  135SAPE   H9R14614   3.851  -0.681   9.519  1.1578  0.9014 -0.0798
  135SAPE  C21014615   4.012  -0.824   9.587  0.1139  0.3715  0.3100
  135SAPE  H10R14616   4.049  -0.856   9.687 -0.1131  0.9966  0.5961
  135SAPE  H10S14617   4.102  -0.766   9.555 -1.8399  3.1568 -0.3027
  135SAPE  C21114618   3.996  -0.932   9.489  0.1549  0.3393 -0.2102
  135SAPE  H11R14619   3.976  -1.026   9.542 -1.8750 -0.0296 -1.5923
  135SAPE  C21214620   4.011  -0.931   9.351  0.4819 -0.8304 -0.0141
  135SAPE  H12R14621   4.012  -1.029   9.301 -0.0090 -1.4750  1.2295
  135SAPE  C21314622   4.053  -0.810   9.280 -0.0450 -0.1488  0.4022
  135SAPE  H13R14623   4.084  -0.729   9.349 -1.7878 -1.4492  2.8110
  135SAPE  H13S14624   3.967  -0.769   9.222 -0.0571  1.0831  1.2782
  135SAPE  C21414625   4.159  -0.839   9.173  0.7159 -0.4277  0.0994
  135SAPE  H14R14626   4.258  -0.858   9.218  0.2192 -0.6046  1.1323
  135SAPE  C21514627   4.142  -0.868   9.042 -0.1738  0.2058  0.2189
  135SAPE  H15R14628   4.227  -0.871   8.972  0.0689  2.2783  0.3963
  135SAPE  C21614629   4.009  -0.868   8.973 -0.6362 -0.5876 -0.3178
  135SAPE  H16R14630   4.014  -0.812   8.877 -0.2744  0.2241  0.1720
  135SAPE  H16S14631   3.926  -0.819   9.027 -0.1613  1.2731 -1.2384
  135SAPE  C21714632   3.958  -1.014   8.947  0.2429 -0.3000 -0.1141
  135SAPE  H17R14633   3.970  -1.077   9.037 -1.5916 -0.6772 -0.1097
  135SAPE  H17S14634   4.032  -1.063   8.881  1.6074 -1.7566  2.4128
  135SAPE  C21814635   3.810  -1.026   8.898 -0.8993  0.4354 -0.2895
  135SAPE  H18R14636   3.784  -0.958   8.814 -2.8873 -1.6432 -1.4287
  135SAPE  H18S14637   3.747  -1.016   8.989  0.3412  2.8306  0.3316
  135SAPE  C21914638   3.794  -1.172   8.837 -0.0787  0.6837 -0.1451
  135SAPE  H19R14639   3.812  -1.248   8.916  1.0711 -1.6718 -2.5851
  135SAPE  H19S14640   3.881  -1.178   8.769 -0.9518 -1.5695 -1.1165
  135SAPE  C22014641   3.661  -1.192   8.768 -0.8673  0.6450  0.3075
  135SAPE  H20R14642   3.584  -1.172   8.846 -0.1257 -1.0106  1.4933
  135SAPE  H20S14643   3.641  -1.296   8.734 -0.4132  0.5634  0.2874
  135SAPE  H20T14644   3.649  -1.118   8.686  0.3805 -0.3384 -0.7911
  135SAPE   C3314645   2.893  -0.192   9.824 -0.2842 -0.6227 -0.3098
  135SAPE   H3X14646   3.000  -0.163   9.827 -0.1263 -0.9456 -2.4380
  135SAPE   H3Y14647   2.839  -0.100   9.794  1.2943  0.0104 -1.2598
  135SAPE   C3414648   2.868  -0.297   9.728  0.3633  0.2209  0.3585
  135SAPE   H4X14649   2.916  -0.394   9.755  0.8044  0.1801 -0.5424
  135SAPE   H4Y14650   2.913  -0.263   9.633  1.7034  0.3570  1.0280
  135SAPE   C3514651   2.715  -0.325   9.694 -0.4749  0.1398  0.3572
  135SAPE   H5X14652   2.648  -0.237   9.693 -0.5610  0.0705 -2.0985
  135SAPE   H5Y14653   2.662  -0.394   9.764  1.9987 -2.7238 -0.4667
  135SAPE   C3614654   2.694  -0.393   9.558 -0.0755 -0.5816  0.3233
  135SAPE   H6X14655   2.600  -0.452   9.561 -0.5092 -0.0022 -1.3673
  135SAPE   H6Y14656   2.766  -0.474   9.533 -0.2743 -0.5303 -0.4192
  135SAPE   C3714657   2.702  -0.299   9.442  0.7366 -0.5215  1.2514
  135SAPE   H7X14658   2.778  -0.218   9.453  0.9971 -0.7728  1.3001
  135SAPE   H7Y14659   2.606  -0.244   9.447  0.9189 -0.0508 -0.1157
  135SAPE   C3814660   2.727  -0.366   9.309 -0.0094  0.9184  0.1233
  135SAPE   H8X14661   2.655  -0.449   9.293  0.1032  1.0010 -0.8860
  135SAPE   H8Y14662   2.826  -0.416   9.304 -0.5603 -0.1527 -0.3300
  135SAPE   C3914663   2.706  -0.272   9.193  0.3311  0.6615 -0.3039
  135SAPE   H9X14664   2.748  -0.172   9.217 -0.8626  1.0663  0.1186
  135SAPE   H9Y14665   2.598  -0.258   9.173 -0.1885  0.4210  2.1626
  135SAPE  C31014666   2.777  -0.322   9.060  0.1755  0.5578 -0.1804
  135SAPE  H10X14667   2.753  -0.262   8.969  0.6812  0.8480 -0.1215
  135SAPE  H10Y14668   2.722  -0.416   9.037  1.2607  0.2380 -1.5590
  135SAPE  C31114669   2.928  -0.364   9.072 -0.3861  0.5852 -0.4483
  135SAPE  H11X14670   2.926  -0.464   9.121 -0.1850  0.3621 -0.8907
  135SAPE  H11Y14671   2.975  -0.294   9.143 -0.5031  0.3841 -0.1739
  135SAPE  C31214672   3.015  -0.342   8.943 -0.3963  0.5713  0.0759
  135SAPE  H12X14673   3.123  -0.335   8.966 -0.0729  4.2621 -2.1327
  135SAPE  H12Y14674   2.995  -0.237   8.914  2.3694  0.8452 -1.0508
  135SAPE  C31314675   2.996  -0.457   8.847 -0.0284 -0.4605 -0.1632
  135SAPE  H13X14676   2.897  -0.507   8.852  0.1137 -0.6744  0.5491
  135SAPE  H13Y14677   3.065  -0.533   8.888  0.6702 -0.1884 -0.8297
  135SAPE  C31414678   3.035  -0.405   8.710 -0.0989 -0.0378 -0.6147
  135SAPE  H14X14679   3.145  -0.390   8.716 -0.3041  1.4856 -0.4432
  135SAPE  H14Y14680   2.982  -0.310   8.692 -0.3885  0.3213  1.8598
  135SAPE  C31514681   3.008  -0.475   8.579  0.6015  0.3230 -0.4668
  135SAPE  H15X14682   3.053  -0.577   8.574 -0.8970 -0.3998  0.4525
  135SAPE  H15Y14683   3.059  -0.426   8.493  0.1963  0.2423 -0.7577
  135SAPE  C31614684   2.859  -0.471   8.546  0.0010  0.0189  0.0056
  135SAPE  H16X14685   2.828  -0.367   8.569  1.1337  0.6079 -1.0463
  135SAPE  H16Y14686   2.794  -0.530   8.614 -2.2674  2.5680  0.1101
  135SAPE  C31714687   2.827  -0.520   8.411 -0.2388  0.5065 -0.0117
  135SAPE  H17X14688   2.854  -0.627   8.410 -1.1117  0.2563  1.0812
  135SAPE  H17Y14689   2.866  -0.463   8.324 -2.1804  0.6566 -0.8142
  135SAPE  C31814690   2.679  -0.522   8.396 -0.2193  0.1047  0.9899
  135SAPE  H18X14691   2.616  -0.558   8.481 -0.1553  0.0444  1.0136
  135SAPE  H18Y14692   2.652  -0.581   8.306 -1.2040 -0.3519  1.5775
  135SAPE  H18Z14693   2.651  -0.416   8.378 -0.5544  0.0822  1.3724
  136SAPE     N14694   6.806   0.189  11.005  0.0954  0.0862  0.0879
  136SAPE   HN114695   6.759   0.234  11.085 -0.9989 -0.1146 -0.4264
  136SAPE   HN214696   6.903   0.169  11.036 -0.0125 -0.5314  0.0268
  136SAPE   HN314697   6.807   0.258  10.926  1.1136  0.7465  0.6738
  136SAPE   C1214698   6.738   0.063  10.964 -0.0533 -0.3050 -0.5550
  136SAPE  H12A14699   6.758  -0.013  11.042 -0.0733  1.4264  1.1709
  136SAPE  H12B14700   6.783   0.023  10.871  0.2206  0.6795 -0.8482
  136SAPE   C1114701   6.582   0.079  10.957 -0.0017 -0.0123  0.0863
  136SAPE  H11A14702   6.540  -0.009  10.904 -0.8753  0.7251 -0.4545
  136SAPE  H11B14703   6.568   0.162  10.885 -0.3865 -0.2668 -0.1357
  136SAPE     P14704   6.369   0.057  11.113  0.4151 -0.3573  0.1826
  136SAPE   O1314705   6.372  -0.085  11.154 -0.1453 -0.0524 -0.0726
  136SAPE   O1414706   6.307   0.151  11.215  0.3575  0.1477  0.3096
  136SAPE   O1214707   6.521   0.093  11.084 -0.1723 -0.0777  0.3583
  136SAPE   O1114708   6.295   0.071  10.973 -0.0853  0.6104  0.5761
  136SAPE    C114709   6.199  -0.024  10.925  0.0075  0.2134 -1.1127
  136SAPE    HA14710   6.187  -0.115  10.989 -0.4756  1.5023  0.6746
  136SAPE    HB14711   6.090  -0.004  10.920  0.0283  0.2154 -1.5411
  136SAPE    C214712   6.228  -0.059  10.773 -0.1354  0.3040 -0.2241
  136SAPE    HS14713   6.151  -0.133  10.745 -2.1861  1.8463  1.2588
  136SAPE   O2114714   6.365  -0.103  10.760  0.0712  0.4526 -0.5334
  136SAPE   C2114715   6.390  -0.231  10.784  0.6049 -0.3280 -0.2635
  136SAPE   O2214716   6.306  -0.314  10.809 -0.2005 -0.9552 -0.3224
  136SAPE   C2214717   6.541  -0.274  10.770  0.5520 -0.2118  0.0810
  136SAPE   H2R14718   6.592  -0.210  10.845 -1.2276 -0.3553  1.4633
  136SAPE   H2S14719   6.536  -0.377  10.809  1.8222 -0.0674  0.6385
  136SAPE    C314720   6.211   0.074  10.690 -0.0456 -0.0644 -0.0375
  136SAPE    HX14721   6.273   0.153  10.737  1.5586 -1.8461  0.9281
  136SAPE    HY14722   6.103   0.096  10.703  0.0453  0.4349 -0.1353
  136SAPE   O3114723   6.250   0.056  10.551 -0.3921  0.0775 -1.0844
  136SAPE   C3114724   6.160   0.064  10.463  0.4643 -0.5416  0.0278
  136SAPE   O3214725   6.039   0.077  10.481 -0.3944  0.2512 -0.6453
  136SAPE   C3214726   6.235   0.071  10.325  0.3814 -0.0612 -0.4849
  136SAPE   H2X14727   6.321   0.142  10.333 -1.6263  2.5181 -1.1058
  136SAPE   H2Y14728   6.162   0.131  10.267 -1.3013 -2.8878 -1.3931
  136SAPE   C2314729   6.583  -0.253  10.622  0.3820  0.4889 -0.3734
  136SAPE   H3R14730   6.573  -0.146  10.597 -0.8935 -0.6157 -5.0108
  136SAPE   H3S14731   6.503  -0.292  10.556 -0.7163  1.7088  0.2230
  136SAPE   C2414732   6.722  -0.313  10.571 -0.1215  1.1268 -0.1487
  136SAPE   H4R14733   6.736  -0.296  10.462  0.2792  1.3332 -0.0642
  136SAPE   H4S14734   6.714  -0.423  10.584  0.7973  0.9626 -0.8580
  136SAPE   C2514735   6.844  -0.265  10.642 -0.4682 -0.2958 -0.3629
  136SAPE   H5R14736   6.878  -0.336  10.719  0.9685 -0.8039 -1.4377
  136SAPE   C2614737   6.917  -0.155  10.627  0.1399  0.2749  0.1911
  136SAPE   H6R14738   7.014  -0.148  10.678 -0.2301 -0.3606  1.0036
  136SAPE   C2714739   6.894  -0.040  10.533 -0.1666  0.5489 -0.0175
  136SAPE   H7R14740   6.901   0.052  10.595  1.4641  2.2359 -2.6100
  136SAPE   H7S14741   6.794  -0.045  10.485 -1.5716  1.1185  2.7381
  136SAPE   C2814742   6.994  -0.029  10.425  0.7905 -0.2061  0.1613
  136SAPE   H8R14743   6.954  -0.055  10.326  0.7027  2.1936 -0.4466
  136SAPE   C2914744   7.116   0.025  10.430 -0.0459 -0.3529  0.3833
  136SAPE   H9R14745   7.185   0.028  10.344  0.0414 -0.2485  0.4559
  136SAPE  C21014746   7.181   0.071  10.556 -0.8768 -0.8986  0.3975
  136SAPE  H10R14747   7.250  -0.014  10.576 -1.1030 -1.2708 -0.4055
  136SAPE  H10S14748   7.124   0.062  10.651 -0.5985 -1.4659  0.5178
  136SAPE  C21114749   7.248   0.206  10.547  0.0512 -0.3565 -0.5138
  136SAPE  H11R14750   7.181   0.284  10.586 -1.1695 -1.6610  0.0550
  136SAPE  C21214751   7.369   0.238  10.497 -0.1078  1.1848  0.3355
  136SAPE  H12R14752   7.405   0.340  10.514  2.4403  0.2141  0.9751
  136SAPE  C21314753   7.458   0.138  10.432  0.0387 -0.4608 -0.4493
  136SAPE  H13R14754   7.406   0.041  10.419 -1.4325  0.3489 -0.7137
  136SAPE  H13S14755   7.545   0.110  10.495  0.7913  0.9065 -0.8402
  136SAPE  C21414756   7.500   0.187  10.294 -0.1842 -0.4337  0.8542
  136SAPE  H14R14757   7.536   0.291  10.292 -0.5854 -0.3078 -0.3414
  136SAPE  C21514758   7.487   0.123  10.175 -0.0674 -0.1170 -0.7250
  136SAPE  H15R14759   7.530   0.175  10.088 -1.0731 -0.7776 -1.6317
  136SAPE  C21614760   7.425  -0.014  10.149 -0.7979 -0.4190 -0.0849
  136SAPE  H16R14761   7.379  -0.054  10.242  0.1116 -0.6809  0.2548
  136SAPE  H16S14762   7.508  -0.082  10.121 -0.5111  0.9632 -2.7492
  136SAPE  C21714763   7.313  -0.005  10.044  0.0222  0.1904  0.0239
  136SAPE  H17R14764   7.235   0.061  10.087 -0.2464 -0.7999  1.0609
  136SAPE  H17S14765   7.276  -0.109  10.035 -0.2664  0.3389 -0.5617
  136SAPE  C21814766   7.364   0.043   9.906  0.1494  0.2147  0.9947
  136SAPE  H18R14767   7.447  -0.030   9.893 -0.6226 -0.2905 -1.5807
  136SAPE  H18S14768   7.390   0.151   9.899 -0.9751  0.4167 -0.3891
  136SAPE  C21914769   7.264   0.004   9.791 -0.7492 -0.3396  0.4099
  136SAPE  H19R14770   7.295   0.068   9.706 -2.6591 -0.7442 -0.6086
  136SAPE  H19S14771   7.157   0.007   9.819 -0.3055 -2.5302  2.5705
  136SAPE  C22014772   7.297  -0.141   9.749 -0.5404  0.7102  0.6909
  136SAPE  H20R14773   7.271  -0.198   9.840  0.9258 -0.7092  0.2542
  136SAPE  H20S14774   7.404  -0.151   9.719 -1.0609 -1.8113 -0.4510
  136SAPE  H20T14775   7.227  -0.157   9.664  0.1908 -0.6315  0.3196
  136SAPE   C3314776   6.271  -0.066  10.265  0.5420  0.1892  0.0736
  136SAPE   H3X14777   6.289  -0.050  10.157 -1.5695 -1.1677 -0.5065
  136SAPE   H3Y14778   6.182  -0.132  10.260  0.8237 -0.1464 -0.5958
  136SAPE   C3414779   6.399  -0.133  10.321 -0.1731 -0.1814 -0.0057
  136SAPE   H4X14780   6.390  -0.155  10.429  3.0271  0.1660  0.3726
  136SAPE   H4Y14781   6.476  -0.054  10.312 -0.8334  0.3809 -0.7777
  136SAPE   C3514782   6.432  -0.263  10.245 -0.2324  0.5299  0.2645
  136SAPE   H5X14783   6.342  -0.328  10.257  1.2681 -1.4962  0.6618
  136SAPE   H5Y14784   6.525  -0.307  10.286 -0.7668 -1.3068 -0.4479
  136SAPE   C3614785   6.465  -0.248  10.100 -0.6982  0.9742  0.6427
  136SAPE   H6X14786   6.554  -0.185  10.080 -1.5595  1.4158 -1.9653
  136SAPE   H6Y14787   6.385  -0.193  10.047  1.0362  1.5280 -1.4722
  136SAPE   C3714788   6.487  -0.380  10.021 -0.2279 -0.0232  0.0875
  136SAPE   H7X14789   6.402  -0.450  10.036  0.3658 -0.9758 -0.8884
  136SAPE   H7Y14790   6.576  -0.431  10.063 -0.3580  0.3479  0.8118
  136SAPE   C3814791   6.515  -0.366   9.864 -0.1026  0.4849  0.1700
  136SAPE   H8X14792   6.551  -0.465   9.829  1.1023  0.8714  0.2713
  136SAPE   H8Y14793   6.593  -0.292   9.837  0.8561 -0.4147  0.4546
  136SAPE   C3914794   6.387  -0.342   9.785 -0.3006 -0.1770  0.5416
  136SAPE   H9X14795   6.339  -0.247   9.817 -1.5041  0.5239 -3.0653
  136SAPE   H9Y14796   6.327  -0.434   9.803  0.5964 -0.6490  1.1419
  136SAPE  C31014797   6.417  -0.326   9.628  0.0764 -0.2610  0.0043
  136SAPE  H10X14798   6.477  -0.239   9.595 -0.1577 -0.2497 -0.3920
  136SAPE  H10Y14799   6.314  -0.309   9.590  0.2241 -0.8320 -0.6568
  136SAPE  C31114800   6.482  -0.441   9.571 -0.5091  0.3993  0.0871
  136SAPE  H11X14801   6.421  -0.533   9.588 -1.5903  1.7163  3.7845
  136SAPE  H11Y14802   6.587  -0.464   9.598 -1.2937  0.5241  3.4672
  136SAPE  C31214803   6.483  -0.434   9.414  0.2709 -0.5135 -0.1097
  136SAPE  H12X14804   6.535  -0.341   9.383  0.9076 -1.0576 -0.6835
  136SAPE  H12Y14805   6.377  -0.425   9.380  0.4771  2.2474 -0.1248
  136SAPE  C31314806   6.569  -0.536   9.349  0.2143  0.2718 -0.0023
  136SAPE  H13X14807   6.566  -0.636   9.398 -1.1603  0.2214 -0.1799
  136SAPE  H13Y14808   6.669  -0.502   9.384 -0.1493  0.7042  0.6268
  136SAPE  C31414809   6.562  -0.555   9.198  0.0896 -0.6497  0.3293
  136SAPE  H14X14810   6.573  -0.455   9.151 -0.2437 -1.6237 -1.9114
  136SAPE  H14Y14811   6.459  -0.586   9.170  0.9337 -0.6508 -2.9483
  136SAPE  C31514812   6.674  -0.645   9.128  0.2717 -0.5433 -0.1622
  136SAPE  H15X14813   6.642  -0.650   9.022  1.1029 -0.1043 -0.4310
  136SAPE  H15Y14814   6.667  -0.748   9.170 -1.3002 -0.5618 -0.4327
  136SAPE  C31614815   6.819  -0.598   9.144  0.1373 -0.3235  0.4090
  136SAPE  H16X14816   6.883  -0.680   9.106 -0.0743 -0.6775  0.8051
  136SAPE  H16Y14817   6.850  -0.581   9.250  1.9375 -2.4443  0.2298
  136SAPE  C31714818   6.852  -0.476   9.046 -0.1266  1.1266 -0.2223
  136SAPE  H17X14819   6.962  -0.463   9.049  0.0289 -0.0168 -0.7120
  136SAPE  H17Y14820   6.802  -0.388   9.092 -1.6880  0.4969 -0.6741
  136SAPE  C31814821   6.811  -0.504   8.899  0.2516  0.1930 -0.5568
  136SAPE  H18X14822   6.863  -0.599   8.876  1.2898  0.1414  1.8607
  136SAPE  H18Y14823   6.855  -0.426   8.834 -0.1369  3.2597  2.7370
  136SAPE  H18Z14824   6.700  -0.507   8.885  0.0990 -1.0443  0.8339
  137SAPE     N14825   4.757   2.722  11.003 -0.3187  0.0801 -0.3310
  137SAPE   HN114826   4.823   2.643  11.020 -0.0766  0.2559 -0.4372
  137SAPE   HN214827   4.796   2.812  11.035 -1.1435  0.3843 -0.1811
  137SAPE   HN314828   4.673   2.701  11.059  0.3420  1.1276  1.0676
  137SAPE   C1214829   4.730   2.735  10.859 -0.4408  0.2175  0.4305
  137SAPE  H12A14830   4.698   2.635  10.823  4.2069 -1.0243 -0.4962
  137SAPE  H12B14831   4.824   2.775  10.816  0.1553  1.3622  2.7018
  137SAPE   C1114832   4.606   2.827  10.839 -0.5756 -0.4170  0.3532
  137SAPE  H11A14833   4.592   2.844  10.730 -0.7435  1.3321  0.6409
  137SAPE  H11B14834   4.625   2.930  10.875  1.7444 -1.2127  1.5413
  137SAPE     P14835   4.357   2.853  10.926  0.1033  0.1497 -0.0429
  137SAPE   O1314836   4.261   2.767  10.998 -0.1171 -0.1386 -0.1821
  137SAPE   O1414837   4.403   2.973  10.995 -0.1163 -0.1218  0.2870
  137SAPE   O1214838   4.480   2.770  10.900 -0.7384  0.3527 -0.1877
  137SAPE   O1114839   4.308   2.896  10.782  0.0330 -0.4558 -0.1106
  137SAPE    C114840   4.310   2.793  10.676  0.4430 -0.1882  0.1933
  137SAPE    HA14841   4.404   2.734  10.673  1.7482  1.5749  3.5993
  137SAPE    HB14842   4.232   2.720  10.705 -0.2901 -0.0077 -1.2688
  137SAPE    C214843   4.287   2.846  10.533 -0.1947 -0.0566  0.0591
  137SAPE    HS14844   4.199   2.914  10.542  0.6422  1.1927 -1.0216
  137SAPE   O2114845   4.273   2.730  10.442  0.0067  0.0401  0.1579
  137SAPE   C2114846   4.146   2.690  10.432  0.6062  0.1063 -0.4272
  137SAPE   O2214847   4.048   2.756  10.470  0.5761 -0.6583  0.4249
  137SAPE   C2214848   4.131   2.551  10.369  0.0301 -0.1982 -0.2559
  137SAPE   H2R14849   4.208   2.534  10.291  0.2491 -0.7259  0.0704
  137SAPE   H2S14850   4.158   2.485  10.454 -0.1488  0.7802  0.5633
  137SAPE    C314851   4.399   2.942  10.495 -0.4803  0.7293  0.9557
  137SAPE    HX14852   4.490   2.879  10.496  0.4262  2.0098  0.2953
  137SAPE    HY14853   4.404   3.018  10.576 -0.9656  0.2079  1.4806
  137SAPE   O3114854   4.386   2.989  10.356 -0.2519  0.6154  0.2423
  137SAPE   C3114855   4.499   3.028  10.293  0.0401 -0.3443 -0.2315
  137SAPE   O3214856   4.608   3.039  10.345  0.3616 -0.7230  0.0722
  137SAPE   C3214857   4.459   3.066  10.144  0.4322  0.2564  0.0968
  137SAPE   H2X14858   4.358   3.112  10.149  0.5770  0.8958 -2.1904
  137SAPE   H2Y14859   4.461   2.975  10.080  1.6130  0.2481  0.1391
  137SAPE   C2314860   3.990   2.519  10.317 -0.2941  0.0212  0.7058
  137SAPE   H3R14861   3.917   2.550  10.395 -1.0977  1.5748 -0.6022
  137SAPE   H3S14862   3.974   2.410  10.312 -1.9454  0.2684  0.1259
  137SAPE   C2414863   3.953   2.596  10.187  0.4132  0.3678 -0.3428
  137SAPE   H4R14864   3.949   2.701  10.222 -0.2192 -0.2143  1.3613
  137SAPE   H4S14865   3.846   2.569  10.171  0.4007  0.1639  0.0793
  137SAPE   C2514866   4.028   2.566  10.063  0.0307  0.8894 -0.2931
  137SAPE   H5R14867   4.101   2.486  10.083 -2.3358 -1.1521  0.3298
  137SAPE   C2614868   4.008   2.615   9.939  0.0371 -0.3278 -0.2794
  137SAPE   H6R14869   4.048   2.561   9.852  0.6758  0.3289 -0.3962
  137SAPE   C2714870   3.894   2.706   9.897  0.2202 -0.2215  0.1925
  137SAPE   H7R14871   3.925   2.776   9.817  0.4000 -0.7994 -0.2510
  137SAPE   H7S14872   3.866   2.767   9.985 -0.5300 -1.2647  0.6788
  137SAPE   C2814873   3.774   2.630   9.833  0.2530 -0.4262 -0.5773
  137SAPE   H8R14874   3.705   2.587   9.907 -0.2173  2.8769  1.0253
  137SAPE   C2914875   3.767   2.595   9.705  0.2535  0.1851  0.5124
  137SAPE   H9R14876   3.671   2.554   9.668 -1.2060  1.8505  2.3127
  137SAPE  C21014877   3.865   2.641   9.596 -0.0894  0.2625 -0.2379
  137SAPE  H10R14878   3.901   2.744   9.613  1.0339 -0.4602  1.8911
  137SAPE  H10S14879   3.800   2.676   9.513 -1.4557  0.8689  1.0815
  137SAPE  C21114880   3.969   2.540   9.562 -0.0277  0.7173 -0.5615
  137SAPE  H11R14881   4.008   2.478   9.644  0.9824  0.9646 -0.8488
  137SAPE  C21214882   4.002   2.494   9.434 -0.1695  0.2230 -0.4057
  137SAPE  H12R14883   4.071   2.410   9.420  1.7963  1.7122  0.0567
  137SAPE  C21314884   3.946   2.539   9.305  0.4949  0.8826  0.0207
  137SAPE  H13R14885   4.015   2.524   9.220 -0.5484  1.4906 -0.9521
  137SAPE  H13S14886   3.933   2.649   9.305 -0.7625  0.7466 -0.5966
  137SAPE  C21414887   3.815   2.468   9.269  0.3286  0.1548  0.6512
  137SAPE  H14R14888   3.737   2.527   9.319 -0.1324 -0.5077  0.7116
  137SAPE  C21514889   3.786   2.356   9.207 -0.2334 -0.9876  0.0184
  137SAPE  H15R14890   3.686   2.312   9.193 -0.6169 -0.5365  1.2844
  137SAPE  C21614891   3.890   2.273   9.141 -0.1236 -0.7037  0.2890
  137SAPE  H16R14892   3.888   2.169   9.181  3.0941 -0.8853  0.1383
  137SAPE  H16S14893   3.994   2.306   9.158 -0.2862 -0.3893  0.6735
  137SAPE  C21714894   3.858   2.266   8.987  0.4245  0.0709  0.3803
  137SAPE  H17R14895   3.752   2.239   8.966  1.3301 -1.9871 -1.9431
  137SAPE  H17S14896   3.924   2.198   8.928 -0.3265  0.3622 -0.8166
  137SAPE  C21814897   3.878   2.405   8.919  1.2874  0.4159  0.1952
  137SAPE  H18R14898   3.981   2.426   8.955  1.9506 -1.0460 -0.7917
  137SAPE  H18S14899   3.813   2.488   8.953 -0.0960 -2.0167  3.7285
  137SAPE  C21914900   3.866   2.409   8.767  0.7343  0.2030  0.2678
  137SAPE  H19R14901   3.921   2.330   8.712 -0.2136  0.7814 -1.5500
  137SAPE  H19S14902   3.913   2.508   8.748  1.6476 -0.4424 -0.8087
  137SAPE  C22014903   3.720   2.416   8.711 -0.7833  0.0590 -0.2592
  137SAPE  H20R14904   3.735   2.434   8.602 -1.3588  1.0032 -0.1854
  137SAPE  H20S14905   3.669   2.506   8.750 -1.7764 -0.2245 -0.8781
  137SAPE  H20T14906   3.661   2.328   8.743 -0.3532 -0.2227 -0.2232
  137SAPE   C3314907   4.555   3.174  10.097  0.2144  0.3576 -0.0787
  137SAPE   H3X14908   4.662   3.144  10.102  0.3200  0.7795  0.1967
  137SAPE   H3Y14909   4.537   3.258  10.168 -3.8407 -0.7034  0.2803
  137SAPE   C3414910   4.513   3.222   9.955 -0.0103 -0.4539  0.8976
  137SAPE   H4X14911   4.554   3.323   9.931 -0.4491  0.2635  3.0387
  137SAPE   H4Y14912   4.405   3.247   9.967  0.3454  2.2670 -1.0092
  137SAPE   C3514913   4.529   3.116   9.851 -0.4124 -1.0578  0.0235
  137SAPE   H5X14914   4.460   3.031   9.869 -0.7522 -0.7389  0.2329
  137SAPE   H5Y14915   4.636   3.087   9.848  0.1010  0.9458 -2.9079
  137SAPE   C3614916   4.485   3.169   9.714 -0.0309 -0.4340  0.0757
  137SAPE   H6X14917   4.552   3.257   9.700 -0.2571  0.0336  1.8096
  137SAPE   H6Y14918   4.380   3.206   9.711  0.0068 -0.1856  1.4837
  137SAPE   C3714919   4.512   3.057   9.611  0.6524 -0.2470  0.1091
  137SAPE   H7X14920   4.427   2.985   9.618 -1.1537  1.8215  0.0412
  137SAPE   H7Y14921   4.605   3.006   9.643  1.6108  1.1352 -0.4347
  137SAPE   C3814922   4.531   3.118   9.469  0.0015 -0.2127  0.7285
  137SAPE   H8X14923   4.630   3.170   9.470  1.4484 -2.9101  2.8125
  137SAPE   H8Y14924   4.451   3.194   9.456  1.2585  1.1443  0.7345
  137SAPE   C3914925   4.506   3.026   9.348  0.5536  0.2763 -0.2530
  137SAPE   H9X14926   4.407   2.977   9.343  0.0497  1.2458  0.2584
  137SAPE   H9Y14927   4.585   2.956   9.382 -0.0557  0.0370  0.6843
  137SAPE  C31014928   4.555   3.082   9.210  0.0158 -0.4080  0.2547
  137SAPE  H10X14929   4.559   2.994   9.141  3.5131  0.7704 -1.1673
  137SAPE  H10Y14930   4.658   3.124   9.216 -0.6864  1.0454  2.3060
  137SAPE  C31114931   4.449   3.187   9.158  0.0280  0.9124 -0.3752
  137SAPE  H11X14932   4.449   3.276   9.224 -1.8687 -0.2218  1.2182
  137SAPE  H11Y14933   4.352   3.138   9.179  0.6984  0.1538  1.0673
  137SAPE  C31214934   4.459   3.217   9.008 -0.1015 -0.4383  0.2639
  137SAPE  H12X14935   4.561   3.250   8.980 -0.6442 -0.6367 -2.0613
  137SAPE  H12Y14936   4.389   3.303   8.995 -0.2382 -0.1652  2.6671
  137SAPE  C31314937   4.416   3.099   8.915  0.3109 -0.6316 -0.2938
  137SAPE  H13X14938   4.496   3.024   8.898 -2.3411 -3.3391 -1.1448
  137SAPE  H13Y14939   4.403   3.142   8.813  2.3434 -0.4984 -0.5319
  137SAPE  C31414940   4.290   3.021   8.959  0.1656 -0.1696  0.5393
  137SAPE  H14X14941   4.219   3.107   8.963  0.0851  0.0893 -4.0119
  137SAPE  H14Y14942   4.305   2.966   9.055  0.9204  0.5631  0.8448
  137SAPE  C31514943   4.249   2.917   8.842  0.1035 -0.2239  0.9452
  137SAPE  H15X14944   4.249   2.974   8.746  2.4339 -0.0302  1.0274
  137SAPE  H15Y14945   4.143   2.889   8.859 -0.4183  0.7115 -0.6838
  137SAPE  C31614946   4.341   2.796   8.838  0.1124  0.6816  0.1845
  137SAPE  H16X14947   4.442   2.839   8.823  0.9635 -1.9114 -2.0731
  137SAPE  H16Y14948   4.310   2.745   8.744 -1.6697  2.1077 -0.0328
  137SAPE  C31714949   4.332   2.703   8.955  0.3514  0.2754 -0.4558
  137SAPE  H17X14950   4.340   2.765   9.047  1.3474  0.4965 -0.6837
  137SAPE  H17Y14951   4.427   2.646   8.945  0.9751  1.3434 -0.7612
  137SAPE  C31814952   4.212   2.609   8.962  0.4462  0.1453  0.0835
  137SAPE  H18X14953   4.116   2.664   8.960  1.0321  1.2020  0.1561
  137SAPE  H18Y14954   4.213   2.544   9.052  1.2989 -0.0163 -0.0336
  137SAPE  H18Z14955   4.203   2.535   8.880  0.0387 -0.4141  0.6279
  138SAPE     N14956   0.076   2.958  10.742  0.8008 -0.1690 -0.0475
  138SAPE   HN114957   0.038   2.968  10.838 -2.7614 -0.0256 -1.3560
  138SAPE   HN214958   0.005   2.918  10.676  0.8921 -1.3821  0.5666
  138SAPE   HN314959   0.152   2.888  10.751  1.7485  0.9795  0.9347
  138SAPE   C1214960   0.132   3.095  10.701  0.5514 -0.0838 -1.2979
  138SAPE  H12A14961   0.134   3.155  10.794 -5.0252 -0.7967 -0.5688
  138SAPE  H12B14962   0.066   3.150  10.631  0.7180  0.4006 -1.0740
  138SAPE   C1114963   0.271   3.082  10.648 -0.2034  0.2377 -0.4997
  138SAPE  H11A14964   0.319   3.181  10.636  1.4011 -0.2541  1.5056
  138SAPE  H11B14965   0.273   3.028  10.551  1.6531 -1.3325  0.3747
  138SAPE     P14966   0.484   3.056  10.807 -0.3412  0.3006 -0.0590
  138SAPE   O1314967   0.508   3.197  10.778  0.3558 -0.3742  0.4595
  138SAPE   O1414968   0.477   3.023  10.951 -0.3350 -0.2701  0.5064
  138SAPE   O1214969   0.350   3.002  10.738 -0.0490 -0.3991  0.7049
  138SAPE   O1114970   0.590   2.967  10.739 -0.4460  0.1097 -0.3343
  138SAPE    C114971   0.590   2.903  10.612  1.0440  0.1128 -0.2198
  138SAPE    HA14972   0.660   2.817  10.619  0.6886 -0.2006 -0.4991
  138SAPE    HB14973   0.485   2.867  10.597  1.1638 -0.0265 -0.7620
  138SAPE    C214974   0.639   2.984  10.496 -0.4512  0.6876  0.1472
  138SAPE    HS14975   0.705   3.065  10.534  0.7448 -0.8543  1.3978
  138SAPE   O2114976   0.533   3.038  10.420 -0.1288 -0.2146  0.0501
  138SAPE   C2114977   0.552   3.156  10.359  0.1989  0.4572  0.6256
  138SAPE   O2214978   0.638   3.237  10.378  0.2518  0.1578 -0.1334
  138SAPE   C2214979   0.446   3.178  10.250  0.4151  0.4603 -0.7150
  138SAPE   H2R14980   0.427   3.092  10.183 -0.0956  0.6082 -0.7628
  138SAPE   H2S14981   0.346   3.186  10.298  0.8872  1.9410  0.0570
  138SAPE    C314982   0.742   2.910  10.403 -0.0506  0.6135 -0.3873
  138SAPE    HX14983   0.700   2.812  10.373  0.4882  0.3900 -0.3994
  138SAPE    HY14984   0.830   2.885  10.465 -1.2555  0.0088  1.1099
  138SAPE   O3114985   0.778   2.989  10.295  0.0892 -0.0759  0.0897
  138SAPE   C3114986   0.907   3.014  10.267 -0.5377  0.3822  0.0155
  138SAPE   O3214987   1.004   2.958  10.315 -0.2571  0.3780  0.2153
  138SAPE   C3214988   0.928   3.133  10.172  0.9709  0.3590  0.2409
  138SAPE   H2X14989   1.037   3.142  10.151  0.6815 -0.9281 -1.9970
  138SAPE   H2Y14990   0.884   3.227  10.210 -3.2840 -1.5252  0.2189
  138SAPE   C2314991   0.482   3.292  10.155 -0.2159  0.7263  0.0433
  138SAPE   H3R14992   0.578   3.278  10.101 -0.2302 -0.7974  0.3755
  138SAPE   H3S14993   0.501   3.378  10.222  0.2702 -0.9273  2.1051
  138SAPE   C2414994   0.371   3.330  10.054 -0.4105 -0.5359  0.0615
  138SAPE   H4R14995   0.282   3.371  10.106  0.9433  1.1839  1.0897
  138SAPE   H4S14996   0.342   3.239   9.996 -0.7274 -1.7072  1.9977
  138SAPE   C2514997   0.413   3.437   9.958  0.1503 -0.1275  0.3131
  138SAPE   H5R14998   0.415   3.538  10.003 -0.8868 -0.4027  0.9657
  138SAPE   C2614999   0.451   3.416   9.829 -0.2915  0.7642  0.2870
  138SAPE   H6R15000   0.480   3.505   9.770  0.5798 -0.8484 -1.8056
  138SAPE   C2715001   0.452   3.287   9.745  0.5819 -0.3259 -0.3814
  138SAPE   H7R15002   0.456   3.197   9.810  2.3751 -0.3457 -0.4719
  138SAPE   H7S15003   0.551   3.294   9.695  2.3339  0.9203  3.0383
  138SAPE   C2815004   0.340   3.270   9.652 -0.1465  0.0379 -0.2075
  138SAPE   H8R15005   0.239   3.273   9.696 -0.7509 -3.4114 -1.2344
  138SAPE   C2915006   0.336   3.275   9.518 -0.2143  0.1345 -0.2972
  138SAPE   H9R15007   0.239   3.275   9.466  0.2459  0.6576 -1.1870
  138SAPE  C21015008   0.459   3.291   9.432 -0.4322 -0.2200 -0.5620
  138SAPE  H10R15009   0.459   3.207   9.360  3.6789  0.2315 -1.1606
  138SAPE  H10S15010   0.553   3.272   9.487  0.6484  0.2384 -2.2018
  138SAPE  C21115011   0.469   3.421   9.355  0.5959  0.2077  0.3173
  138SAPE  H11R15012   0.526   3.503   9.401  1.7635 -0.5584  0.2534
  138SAPE  C21215013   0.400   3.444   9.243  0.1522 -0.3606 -0.4261
  138SAPE  H12R15014   0.413   3.538   9.187 -0.6948 -0.6710 -1.1734
  138SAPE  C21315015   0.305   3.353   9.164 -0.5196  0.0031  0.5660
  138SAPE  H13R15016   0.209   3.408   9.176 -0.5570  0.2260 -0.6894
  138SAPE  H13S15017   0.299   3.251   9.209 -1.3179  0.9388  2.6171
  138SAPE  C21415018   0.348   3.345   9.017 -0.4157 -0.7728  0.1240
  138SAPE  H14R15019   0.437   3.404   8.992  0.0252 -2.0767 -1.5068
  138SAPE  C21515020   0.295   3.259   8.930 -0.1684  0.1201 -0.1996
  138SAPE  H15R15021   0.331   3.270   8.827 -0.1485  3.1131  0.1002
  138SAPE  C21615022   0.181   3.168   8.963  0.5003 -0.0341 -0.1145
  138SAPE  H16R15023   0.114   3.160   8.875  3.0952  1.0230 -2.2776
  138SAPE  H16S15024   0.118   3.219   9.039 -1.1661 -1.0618 -0.7903
  138SAPE  C21715025   0.214   3.030   9.030 -0.5335  0.5142 -0.4598
  138SAPE  H17R15026   0.119   2.992   9.073  1.0330 -1.2841  1.5155
  138SAPE  H17S15027   0.273   3.048   9.123  0.1147 -0.3112 -0.6986
  138SAPE  C21815028   0.279   2.929   8.943 -0.1352  0.6567 -0.0986
  138SAPE  H18R15029   0.315   2.850   9.012  0.3060  0.6338 -0.3495
  138SAPE  H18S15030   0.366   2.971   8.888  1.9616  0.6350  3.0926
  138SAPE  C21915031   0.189   2.861   8.830 -0.5081 -0.6042 -0.4944
  138SAPE  H19R15032   0.173   2.933   8.747 -0.8286  0.8130  0.7715
  138SAPE  H19S15033   0.089   2.851   8.878 -0.9028  1.2041 -0.9047
  138SAPE  C22015034   0.242   2.719   8.785  0.7412  0.0337 -0.0726
  138SAPE  H20R15035   0.348   2.728   8.754  1.0399  0.8177  1.1228
  138SAPE  H20S15036   0.197   2.688   8.688  1.6387  2.0646 -1.1692
  138SAPE  H20T15037   0.241   2.647   8.870  0.2778  0.5402  0.3596
  138SAPE   C3315038   0.853   3.099  10.043  0.5498  0.4243  1.0564
  138SAPE   H3X15039   0.750   3.063  10.064  1.2108 -0.7317  2.3415
  138SAPE   H3Y15040   0.906   3.026   9.978  0.1446  0.8689  0.2150
  138SAPE   C3415041   0.843   3.231   9.966  1.1031  0.0056  1.0092
  138SAPE   H4X15042   0.939   3.283   9.953  0.8577 -0.2286 -2.2832
  138SAPE   H4Y15043   0.780   3.300  10.026 -1.8622 -2.2972  0.7082
  138SAPE   C3515044   0.796   3.222   9.819 -0.1854 -0.1938  0.5064
  138SAPE   H5X15045   0.761   3.320   9.782 -0.9519 -0.9794 -0.9125
  138SAPE   H5Y15046   0.710   3.153   9.803  0.8690 -1.4209  0.0941
  138SAPE   C3615047   0.901   3.165   9.721  0.9273  0.9540 -0.1612
  138SAPE   H6X15048   0.929   3.059   9.735  2.4522  1.3322 -0.3080
  138SAPE   H6Y15049   0.991   3.229   9.718  1.5539  0.0877  0.0368
  138SAPE   C3715050   0.836   3.186   9.579 -0.1351  0.3965  0.0541
  138SAPE   H7X15051   0.815   3.293   9.556 -0.3828 -0.0111 -1.6912
  138SAPE   H7Y15052   0.741   3.129   9.573  1.5017 -2.3547 -0.2318
  138SAPE   C3815053   0.928   3.111   9.475  0.0482 -0.3874 -0.1788
  138SAPE   H8X15054   0.963   3.012   9.510 -0.1524  0.0381  1.2408
  138SAPE   H8Y15055   1.015   3.179   9.477 -1.5771  1.7816 -0.7243
  138SAPE   C3915056   0.869   3.113   9.335 -0.0071 -0.0050 -0.0898
  138SAPE   H9X15057   0.774   3.056   9.332 -0.3829  0.4220  2.7010
  138SAPE   H9Y15058   0.927   3.053   9.262  0.7964 -1.9777  2.1023
  138SAPE  C31015059   0.820   3.247   9.275  0.0801 -0.7837 -0.1763
  138SAPE  H10X15060   0.894   3.316   9.321  0.0911 -0.8312 -0.1241
  138SAPE  H10Y15061   0.716   3.276   9.300  0.1838  0.0752 -0.7105
  138SAPE  C31115062   0.832   3.247   9.125  0.0336  0.2058  0.4317
  138SAPE  H11X15063   0.938   3.234   9.095 -0.1070  0.3995 -0.1759
  138SAPE  H11Y15064   0.801   3.349   9.095 -0.9103 -0.8324 -2.2877
  138SAPE  C31215065   0.742   3.138   9.066  0.1092 -0.5414  0.3470
  138SAPE  H12X15066   0.639   3.180   9.067  0.0551 -0.6788  0.5748
  138SAPE  H12Y15067   0.757   3.041   9.119 -2.2975 -1.1752 -0.0528
  138SAPE  C31315068   0.753   3.104   8.914 -0.1765  0.2900 -0.5383
  138SAPE  H13X15069   0.852   3.058   8.896  0.5312  1.3420  0.5779
  138SAPE  H13Y15070   0.751   3.204   8.865  0.0308  1.2364  1.3495
  138SAPE  C31415071   0.653   3.013   8.855  0.6446  0.1723  1.1711
  138SAPE  H14X15072   0.581   3.068   8.790 -0.2973  1.1910  3.0271
  138SAPE  H14Y15073   0.597   2.956   8.931 -0.3508 -0.9554 -0.3867
  138SAPE  C31515074   0.723   2.908   8.761  0.3971 -0.1214 -0.4760
  138SAPE  H15X15075   0.802   2.856   8.819  0.1781 -1.8990 -1.7582
  138SAPE  H15Y15076   0.761   2.972   8.679  0.5599  1.4479  0.7899
  138SAPE  C31615077   0.629   2.800   8.700  0.8527 -0.1167 -0.4446
  138SAPE  H16X15078   0.526   2.822   8.736 -0.0167 -2.5775 -1.3163
  138SAPE  H16Y15079   0.651   2.699   8.740  1.2328  0.3193  0.4570
  138SAPE  C31715080   0.636   2.796   8.547 -0.3663 -0.2308  0.0553
  138SAPE  H17X15081   0.743   2.796   8.517 -0.6370  0.9849 -0.9281
  138SAPE  H17Y15082   0.600   2.885   8.492 -0.3849  0.0412  0.5126
  138SAPE  C31815083   0.570   2.669   8.479  0.7220 -0.2490 -0.1982
  138SAPE  H18X15084   0.606   2.571   8.517  0.0811 -0.7233 -0.8016
  138SAPE  H18Y15085   0.582   2.676   8.369 -1.4547 -3.1403 -0.6867
  138SAPE  H18Z15086   0.462   2.669   8.505  0.4558  0.1637 -1.2746
  139SAPE     N15087   6.601   1.758  10.589  0.5961 -0.3080  0.0616
  139SAPE   HN115088   6.657   1.809  10.517  1.1574  2.1847  2.1739
  139SAPE   HN215089   6.542   1.684  10.547  0.9955 -0.8686  0.4780
  139SAPE   HN315090   6.549   1.821  10.653 -1.7130 -0.0006 -2.0595
  139SAPE   C1215091   6.692   1.679  10.680 -0.3947  0.6413  0.2348
  139SAPE  H12A15092   6.618   1.624  10.742 -0.5086  0.8383  0.2737
  139SAPE  H12B15093   6.752   1.746  10.744  0.6232  0.6858 -0.7405
  139SAPE   C1115094   6.787   1.594  10.596 -0.4177  0.3016 -0.7389
  139SAPE  H11A15095   6.719   1.515  10.556 -0.8837 -0.3840  1.3405
  139SAPE  H11B15096   6.857   1.532  10.656 -3.0808 -0.7053  1.4519
  139SAPE     P15097   6.964   1.762  10.526 -0.2902 -0.0199 -0.0667
  139SAPE   O1315098   6.926   1.895  10.574 -0.0034  1.1318  0.4103
  139SAPE   O1415099   7.047   1.684  10.623  0.3269  0.3282 -0.5928
  139SAPE   O1215100   6.841   1.670  10.486  0.2031 -0.2457 -0.5598
  139SAPE   O1115101   7.045   1.765  10.394 -0.0817 -0.1752 -0.3660
  139SAPE    C115102   7.081   1.653  10.313  0.4639  0.1518 -0.2716
  139SAPE    HA15103   7.117   1.574  10.382 -2.9471  0.0427  1.4965
  139SAPE    HB15104   6.995   1.611  10.256 -1.0815 -0.0437  2.1255
  139SAPE    C215105   7.189   1.689  10.211  0.1510 -0.0194  0.6471
  139SAPE    HS15106   7.283   1.713  10.265  1.4936 -2.6211 -0.4026
  139SAPE   O2115107   7.144   1.803  10.143 -0.3998 -0.3798  0.0355
  139SAPE   C2115108   7.224   1.885  10.077  0.6433 -0.6396 -0.1453
  139SAPE   O2215109   7.347   1.888  10.074  0.3191  0.4650 -0.6100
  139SAPE   C2215110   7.136   1.982  10.003  0.3641  0.7737  0.5287
  139SAPE   H2R15111   7.039   1.937   9.973  0.5502  0.9275 -0.3065
  139SAPE   H2S15112   7.108   2.065  10.072  0.6437 -0.3217  1.9766
  139SAPE    C315113   7.222   1.575  10.113  1.3699  0.3358 -1.0659
  139SAPE    HX15114   7.305   1.605  10.046  2.0995 -1.0560 -0.7920
  139SAPE    HY15115   7.129   1.554  10.056  0.4669 -1.0385  0.8764
  139SAPE   O3115116   7.255   1.465  10.195  0.2937  0.0948  0.0099
  139SAPE   C3115117   7.268   1.359  10.113  0.7473 -0.1634 -0.3163
  139SAPE   O3215118   7.249   1.365   9.993 -0.4254  0.2332 -0.0163
  139SAPE   C3215119   7.313   1.246  10.195 -0.5087  0.0288 -0.3174
  139SAPE   H2X15120   7.235   1.218  10.269  0.7350  0.9984  1.3717
  139SAPE   H2Y15121   7.410   1.271  10.243  0.0003  1.9361 -2.2552
  139SAPE   C2315122   7.197   2.036   9.862  0.0404 -0.3050 -0.2909
  139SAPE   H3R15123   7.282   2.103   9.886 -0.1438 -0.3999  0.6617
  139SAPE   H3S15124   7.110   2.090   9.818 -0.7593 -0.4239  1.1106
  139SAPE   C2415125   7.238   1.931   9.761 -0.3435 -0.0876 -0.0294
  139SAPE   H4R15126   7.324   1.870   9.796  0.0944  1.0701  0.9498
  139SAPE   H4S15127   7.278   1.984   9.673  0.5638  2.3839  1.8039
  139SAPE   C2515128   7.136   1.827   9.732 -1.3930  0.1563  0.1274
  139SAPE   H5R15129   7.095   1.768   9.815 -0.7480 -0.4780 -0.0025
  139SAPE   C2615130   7.086   1.805   9.610  0.4113 -0.1718  0.1029
  139SAPE   H6R15131   6.998   1.739   9.602  0.4879 -0.1562 -1.0249
  139SAPE   C2715132   7.115   1.875   9.485  0.6617  0.4188  0.0931
  139SAPE   H7R15133   7.222   1.859   9.462  0.8943  1.3076  0.5761
  139SAPE   H7S15134   7.094   1.984   9.493 -0.8464  0.0796  0.9731
  139SAPE   C2815135   7.039   1.826   9.367  0.2171 -0.4273  0.7451
  139SAPE   H8R15136   6.982   1.733   9.383  2.5050 -1.5073  2.8413
  139SAPE   C2915137   7.019   1.882   9.246 -0.4386 -0.4905 -0.3074
  139SAPE   H9R15138   6.943   1.855   9.171 -0.4285 -0.4628 -0.3273
  139SAPE  C21015139   7.074   2.017   9.213  0.4201  0.2084 -0.4401
  139SAPE  H10R15140   7.175   2.029   9.258 -1.0092 -1.2620  3.3850
  139SAPE  H10S15141   7.016   2.098   9.264  0.5991 -0.2932  0.5744
  139SAPE  C21115142   7.075   2.057   9.069 -0.8085  0.0577  0.5253
  139SAPE  H11R15143   7.036   1.984   8.997  0.3898  0.0104 -0.0879
  139SAPE  C21215144   7.117   2.182   9.022 -0.2351 -0.3573 -0.6807
  139SAPE  H12R15145   7.099   2.196   8.915  0.0420  1.0156 -0.5509
  139SAPE  C21315146   7.177   2.297   9.104 -0.2845  0.0663 -0.7163
  139SAPE  H13R15147   7.119   2.310   9.198  0.8706  0.3871 -0.0333
  139SAPE  H13S15148   7.158   2.395   9.056 -0.8638  0.8336  1.0532
  139SAPE  C21415149   7.322   2.289   9.137  0.1047 -0.5271 -0.0988
  139SAPE  H14R15150   7.377   2.264   9.045  1.3638  1.1805  0.1553
  139SAPE  C21515151   7.378   2.305   9.258 -0.3373 -0.7399  0.4964
  139SAPE  H15R15152   7.487   2.291   9.261 -0.0927  0.7795 -0.7165
  139SAPE  C21615153   7.301   2.324   9.387 -0.3396  0.0962  0.1902
  139SAPE  H16R15154   7.205   2.268   9.391  0.6841 -2.0657 -3.0937
  139SAPE  H16S15155   7.285   2.433   9.404 -0.4842 -0.2646  2.4678
  139SAPE  C21715156   7.374   2.268   9.514 -0.4574  0.1965 -0.7067
  139SAPE  H17R15157   7.481   2.296   9.526 -1.1885  2.3781  1.0391
  139SAPE  H17S15158   7.378   2.157   9.503  3.2573  0.2851 -0.6825
  139SAPE  C21815159   7.295   2.292   9.646  0.5137 -0.2678  0.0347
  139SAPE  H18R15160   7.365   2.268   9.729  3.3500  1.5750 -1.7402
  139SAPE  H18S15161   7.202   2.231   9.641  0.5287 -0.1111 -2.8182
  139SAPE  C21915162   7.235   2.428   9.667  0.1654  0.5631  0.4640
  139SAPE  H19R15163   7.148   2.450   9.601 -0.4395  1.8961  1.6866
  139SAPE  H19S15164   7.314   2.502   9.645  0.7024  0.2575  1.3461
  139SAPE  C22015165   7.179   2.436   9.808 -0.2752  0.9630 -0.4263
  139SAPE  H20R15166   7.094   2.507   9.810 -1.1741  0.0225 -2.8063
  139SAPE  H20S15167   7.252   2.474   9.882  0.8608 -0.6143 -0.7221
  139SAPE  H20T15168   7.147   2.339   9.853 -0.8580  1.0143 -0.7106
  139SAPE   C3315169   7.335   1.118  10.100  0.0749  0.7392  0.1761
  139SAPE   H3X15170   7.402   1.045  10.151 -0.1374  1.2724  1.2228
  139SAPE   H3Y15171   7.383   1.148  10.004  0.0240  1.4758  0.3779
  139SAPE   C3415172   7.201   1.050  10.062 -0.4794 -0.3230 -0.1091
  139SAPE   H4X15173   7.140   1.127  10.009  0.5983  0.2223 -0.5639
  139SAPE   H4Y15174   7.157   1.037  10.163 -0.0080  2.9054  0.5845
  139SAPE   C3515175   7.211   0.918   9.992 -0.1717 -0.0130 -0.7733
  139SAPE   H5X15176   7.109   0.876   9.982 -1.1647  2.3436 -0.7688
  139SAPE   H5Y15177   7.266   0.848  10.059 -2.7885 -0.5071  0.8959
  139SAPE   C3615178   7.279   0.906   9.855 -0.0075  0.1197 -0.2925
  139SAPE   H6X15179   7.267   0.807   9.806 -0.5769  0.8679 -1.6889
  139SAPE   H6Y15180   7.390   0.904   9.860 -0.0273 -1.0762 -0.0955
  139SAPE   C3715181   7.236   1.015   9.758 -0.1911  0.3746  0.4206
  139SAPE   H7X15182   7.273   1.106   9.809  1.4336 -0.2187  0.3248
  139SAPE   H7Y15183   7.128   1.007   9.734 -0.1328 -1.5218  0.6651
  139SAPE   C3815184   7.314   1.005   9.625  0.2992  0.5160  0.1202
  139SAPE   H8X15185   7.423   0.995   9.640  0.5485  0.5925 -1.5242
  139SAPE   H8Y15186   7.288   1.098   9.571  0.8911  0.8861  0.4653
  139SAPE   C3915187   7.263   0.899   9.534 -0.0342 -0.3042 -0.5976
  139SAPE   H9X15188   7.155   0.908   9.512 -0.2870 -0.0243  0.7460
  139SAPE   H9Y15189   7.269   0.805   9.593  0.6380  0.5548  0.7230
  139SAPE  C31015190   7.335   0.879   9.401 -0.9102  0.0545 -0.1456
  139SAPE  H10X15191   7.442   0.893   9.425 -1.5453 -1.1481  3.7730
  139SAPE  H10Y15192   7.310   0.961   9.331 -0.6914 -1.3509 -1.9155
  139SAPE  C31115193   7.289   0.752   9.328  0.2220 -0.2480  0.3074
  139SAPE  H11X15194   7.207   0.776   9.258 -0.6618  0.8471  1.6963
  139SAPE  H11Y15195   7.242   0.683   9.402 -2.3755 -0.3313 -1.3639
  139SAPE  C31215196   7.400   0.684   9.244  0.8843 -0.3299  0.3846
  139SAPE  H12X15197   7.450   0.771   9.196 -2.0449  0.4465 -1.3710
  139SAPE  H12Y15198   7.341   0.638   9.162 -0.6065  1.2080  0.5796
  139SAPE  C31315199   7.496   0.599   9.334 -0.1865  0.1290 -0.0107
  139SAPE  H13X15200   7.432   0.520   9.378 -0.5983  0.7371  0.4860
  139SAPE  H13Y15201   7.527   0.667   9.416 -1.2681  1.1134 -0.4066
  139SAPE  C31415202   7.615   0.538   9.249  0.1263 -0.4107 -0.0601
  139SAPE  H14X15203   7.644   0.621   9.180  0.9290 -1.6915 -1.2755
  139SAPE  H14Y15204   7.582   0.458   9.179 -1.5032  0.4575 -0.3266
  139SAPE  C31515205   7.740   0.509   9.344  0.1226 -0.5142  0.1769
  139SAPE  H15X15206   7.710   0.447   9.431 -0.9489  1.5420  1.3309
  139SAPE  H15Y15207   7.764   0.605   9.396  0.7976  1.0927 -3.0097
  139SAPE  C31615208   7.855   0.453   9.263 -0.1475 -0.8484 -0.3226
  139SAPE  H16X15209   7.923   0.412   9.341  0.5806  0.9589 -0.0019
  139SAPE  H16Y15210   7.818   0.368   9.202  3.5496 -2.4991 -0.3702
  139SAPE  C31715211   7.925   0.556   9.172 -0.5453  0.2061  0.5639
  139SAPE  H17X15212   7.968   0.634   9.238 -3.6613  1.0779  1.6197
  139SAPE  H17Y15213   7.854   0.601   9.099  0.5395  0.8631 -0.1027
  139SAPE  C31815214   8.048   0.494   9.101 -0.0695 -1.0155 -0.2883
  139SAPE  H18X15215   8.031   0.407   9.033 -1.3697 -0.6962 -0.3734
  139SAPE  H18Y15216   8.116   0.452   9.178 -1.0968 -0.9860  0.6444
  139SAPE  H18Z15217   8.105   0.566   9.039 -2.0916  0.6771 -0.2115
  140SAPE     N15218   3.452   5.767  11.296  0.1932 -0.1788  0.3913
  140SAPE   HN115219   3.463   5.780  11.398 -0.2200 -1.5627  0.6238
  140SAPE   HN215220   3.369   5.825  11.269  0.5802  0.2880  0.1925
  140SAPE   HN315221   3.428   5.669  11.271  0.5279 -0.1762  0.0424
  140SAPE   C1215222   3.564   5.829  11.214 -0.4315  0.8577  0.7987
  140SAPE  H12A15223   3.650   5.762  11.238 -1.7479 -1.3739 -0.5373
  140SAPE  H12B15224   3.573   5.933  11.251  1.5993  0.7510  0.6479
  140SAPE   C1115225   3.532   5.827  11.059 -0.1496  0.0139  0.2758
  140SAPE  H11A15226   3.619   5.876  11.009 -0.6173  0.8099  0.2225
  140SAPE  H11B15227   3.445   5.892  11.034  0.0443 -0.0161 -0.4709
  140SAPE     P15228   3.521   5.640  10.873 -0.2775  0.2531 -0.1828
  140SAPE   O1315229   3.657   5.580  10.870  0.1176 -0.2034 -0.1184
  140SAPE   O1415230   3.409   5.553  10.841  0.0999 -0.9676 -0.0235
  140SAPE   O1215231   3.498   5.690  11.019 -0.3749  0.6629  0.1405
  140SAPE   O1115232   3.521   5.771  10.788 -0.4368 -0.0632  0.0595
  140SAPE    C115233   3.400   5.820  10.725  0.7955  0.9998  0.4047
  140SAPE    HA15234   3.318   5.819  10.799 -0.8485 -3.7493 -1.3076
  140SAPE    HB15235   3.420   5.925  10.693  0.2301  1.0593  0.2477
  140SAPE    C215236   3.366   5.749  10.591 -0.8896  0.6484 -0.2509
  140SAPE    HS15237   3.336   5.645  10.616 -0.1057  0.3974 -0.3391
  140SAPE   O2115238   3.482   5.738  10.511 -0.0617  0.8375  0.4181
  140SAPE   C2115239   3.491   5.621  10.439 -0.1513  0.6063  0.6931
  140SAPE   O2215240   3.421   5.523  10.461 -0.3404 -0.2825 -0.0062
  140SAPE   C2215241   3.601   5.636  10.342 -0.1124 -0.2589 -0.1547
  140SAPE   H2R15242   3.614   5.744  10.322  0.1874 -0.4342 -0.9377
  140SAPE   H2S15243   3.691   5.596  10.392 -1.5538 -0.5056  2.3141
  140SAPE    C315244   3.260   5.828  10.513 -1.2483  0.2701 -0.4407
  140SAPE    HX15245   3.299   5.927  10.481  1.1083 -0.2220  0.8528
  140SAPE    HY15246   3.165   5.844  10.569 -0.7895 -0.2300  0.4897
  140SAPE   O3115247   3.233   5.748  10.392  0.3978 -0.3262  0.1799
  140SAPE   C3115248   3.121   5.673  10.389  0.0300  0.1791 -0.4110
  140SAPE   O3215249   3.035   5.669  10.473 -0.3548  0.8039  0.1877
  140SAPE   C3215250   3.133   5.586  10.266  0.7203 -0.4096 -0.3577
  140SAPE   H2X15251   3.209   5.510  10.293 -1.1059 -1.8323  0.9327
  140SAPE   H2Y15252   3.182   5.636  10.180  1.4296  1.1276  0.8969
  140SAPE   C2315253   3.568   5.556  10.219  0.2634  0.3382 -0.8583
  140SAPE   H3R15254   3.477   5.579  10.160  0.7149  1.4750 -1.1184
  140SAPE   H3S15255   3.558   5.449  10.246  0.7579  0.8579  1.4990
  140SAPE   C2415256   3.690   5.541  10.116 -0.0881 -0.1391  0.0869
  140SAPE   H4R15257   3.769   5.484  10.169  1.2100  0.4210 -1.2023
  140SAPE   H4S15258   3.738   5.640  10.100 -0.8867 -0.0623 -2.0397
  140SAPE   C2515259   3.662   5.461   9.989  1.0317  0.6110 -0.2556
  140SAPE   H5R15260   3.623   5.360  10.006  1.4710  0.4326 -0.3117
  140SAPE   C2615261   3.672   5.499   9.861  0.3227 -0.2111  0.3110
  140SAPE   H6R15262   3.649   5.434   9.775  1.3841  1.1388 -1.0308
  140SAPE   C2715263   3.718   5.635   9.818 -0.4747 -0.2320 -1.1075
  140SAPE   H7R15264   3.807   5.671   9.874 -0.4466 -2.1537  0.1067
  140SAPE   H7S15265   3.636   5.708   9.833  0.2741  0.2177  1.0143
  140SAPE   C2815266   3.759   5.623   9.670  0.5825  0.4065  0.4495
  140SAPE   H8R15267   3.857   5.576   9.652  0.7204  0.7583  0.2759
  140SAPE   C2915268   3.699   5.666   9.556 -0.1532  0.2212 -0.3762
  140SAPE   H9R15269   3.746   5.647   9.458 -0.3334 -0.4628 -0.3318
  140SAPE  C21015270   3.573   5.742   9.550 -0.7684 -0.2792 -0.8095
  140SAPE  H10R15271   3.495   5.685   9.605 -1.1518  1.4285  0.4604
  140SAPE  H10S15272   3.546   5.746   9.442 -1.3215 -0.5719 -0.6833
  140SAPE  C21115273   3.574   5.885   9.607 -0.0312  0.1596  0.1687
  140SAPE  H11R15274   3.597   5.893   9.714 -1.7111  1.3487  0.4541
  140SAPE  C21215275   3.544   5.995   9.539 -0.1824 -0.4264  0.1894
  140SAPE  H12R15276   3.541   6.093   9.588  0.4232  0.4697 -1.5058
  140SAPE  C21315277   3.511   5.999   9.389  0.1964  0.9815 -0.4605
  140SAPE  H13R15278   3.454   6.093   9.373  0.2188  1.2027  0.6930
  140SAPE  H13S15279   3.426   5.927   9.380 -0.2240  1.1333  1.9432
  140SAPE  C21415280   3.614   5.982   9.287 -0.3792 -0.0678 -0.4685
  140SAPE  H14R15281   3.711   5.993   9.337 -0.3482  1.6547 -0.8892
  140SAPE  C21515282   3.595   5.962   9.155  0.2373  0.3648  0.2692
  140SAPE  H15R15283   3.686   5.959   9.092 -0.4498  1.1101 -0.7731
  140SAPE  C21615284   3.458   5.960   9.092 -0.0558 -0.2719  0.3553
  140SAPE  H16R15285   3.467   5.983   8.984 -0.5126  0.2986  0.4420
  140SAPE  H16S15286   3.398   6.034   9.148  2.4793  0.8487  1.6721
  140SAPE  C21715287   3.385   5.826   9.085 -0.3988  0.1946 -0.6905
  140SAPE  H17R15288   3.357   5.798   9.189 -0.8660 -0.5396 -1.0088
  140SAPE  H17S15289   3.445   5.745   9.037  1.6976  1.2130  0.1269
  140SAPE  C21815290   3.260   5.829   8.995  0.2106  0.2920  0.6590
  140SAPE  H18R15291   3.184   5.760   9.037 -0.9350  1.9549  1.3596
  140SAPE  H18S15292   3.283   5.803   8.890  2.0159  2.4841  0.4792
  140SAPE  C21915293   3.186   5.965   8.984 -0.1600  0.6150 -0.3267
  140SAPE  H19R15294   3.256   6.038   8.937  3.0735 -1.0051  1.8002
  140SAPE  H19S15295   3.160   6.008   9.083 -1.2503 -0.1784 -0.2642
  140SAPE  C22015296   3.052   5.968   8.903  0.6477  0.1997 -0.4945
  140SAPE  H20R15297   3.039   6.073   8.869  2.9307  0.1024 -1.7770
  140SAPE  H20S15298   2.972   5.927   8.969  0.7261  1.9174  0.7211
  140SAPE  H20T15299   3.059   5.909   8.810 -1.8748  1.4189 -1.5112
  140SAPE   C3315300   3.012   5.497  10.229 -0.2032  0.1541  0.2968
  140SAPE   H3X15301   2.970   5.472  10.330 -0.2484 -0.1074  0.2132
  140SAPE   H3Y15302   3.041   5.394  10.201 -1.0498 -0.3818  1.3235
  140SAPE   C3415303   2.909   5.561  10.140 -0.2380 -0.0192  0.1335
  140SAPE   H4X15304   2.877   5.656  10.188 -0.3884 -0.2295  0.4479
  140SAPE   H4Y15305   2.819   5.496  10.137 -2.2501  2.6323  0.9112
  140SAPE   C3515306   2.976   5.581   9.993  0.2798  0.2571 -0.8248
  140SAPE   H5X15307   3.055   5.505   9.972 -0.4079 -0.6123 -0.2958
  140SAPE   H5Y15308   3.026   5.680  10.002  2.2757 -0.7710 -0.3570
  140SAPE   C3615309   2.874   5.588   9.874 -0.2334  0.0930  0.1399
  140SAPE   H6X15310   2.778   5.632   9.907 -0.0273  1.1035 -0.5826
  140SAPE   H6Y15311   2.843   5.487   9.837  0.0473 -0.2139  0.7337
  140SAPE   C3715312   2.934   5.668   9.753 -0.1940  0.1878 -0.0514
  140SAPE   H7X15313   3.040   5.635   9.756  0.4479  2.1934 -0.3228
  140SAPE   H7Y15314   2.926   5.778   9.765  0.0347  0.3931 -1.7468
  140SAPE   C3815315   2.853   5.623   9.623 -0.5793 -0.0737 -0.2905
  140SAPE   H8X15316   2.745   5.648   9.629 -0.6433 -0.9275  2.8420
  140SAPE   H8Y15317   2.872   5.514   9.617  1.3961  0.0617  2.6834
  140SAPE   C3915318   2.895   5.697   9.494 -0.1709  0.0364 -0.3326
  140SAPE   H9X15319   2.874   5.803   9.521 -0.5515  0.5376 -2.4839
  140SAPE   H9Y15320   2.828   5.667   9.411  1.1254 -1.3698 -0.9047
  140SAPE  C31015321   3.037   5.670   9.454  0.8754 -0.3140  0.0705
  140SAPE  H10X15322   3.102   5.710   9.534  2.5615 -0.7620 -1.0494
  140SAPE  H10Y15323   3.070   5.746   9.380 -0.7071 -1.2498 -1.6395
  140SAPE  C31115324   3.078   5.529   9.425  0.2102 -0.5515  0.2045
  140SAPE  H11X15325   3.039   5.498   9.325 -0.1561 -0.1624  0.2214
  140SAPE  H11Y15326   3.047   5.453   9.499  0.0463  0.8184  1.5524
  140SAPE  C31215327   3.240   5.518   9.420  0.3400  0.0550 -0.0516
  140SAPE  H12X15328   3.287   5.509   9.520  2.4362 -2.4811 -1.2251
  140SAPE  H12Y15329   3.274   5.613   9.373  0.7172  0.1740  0.4513
  140SAPE  C31315330   3.291   5.399   9.337  0.9013  0.1569 -0.1429
  140SAPE  H13X15331   3.224   5.312   9.361 -0.0012  1.1434  0.9746
  140SAPE  H13Y15332   3.395   5.384   9.371  0.7600  2.2925  1.3453
  140SAPE  C31415333   3.282   5.431   9.191  0.1184 -0.1370 -0.2154
  140SAPE  H14X15334   3.371   5.494   9.171  0.3636  0.0615  1.4591
  140SAPE  H14Y15335   3.189   5.488   9.170 -0.5519 -1.4851 -1.0302
  140SAPE  C31515336   3.268   5.312   9.094  0.2477  0.9251 -0.2257
  140SAPE  H15X15337   3.178   5.254   9.124 -0.0389  0.8142 -1.2809
  140SAPE  H15Y15338   3.356   5.244   9.098 -1.2421 -0.9658  1.6591
  140SAPE  C31615339   3.246   5.347   8.947 -0.0432 -0.0120 -0.4146
  140SAPE  H16X15340   3.297   5.439   8.912 -0.2657  0.0858 -0.4820
  140SAPE  H16Y15341   3.141   5.380   8.932  0.0966  0.2148 -0.9141
  140SAPE  C31715342   3.272   5.229   8.839  0.2204  0.2921  0.3542
  140SAPE  H17X15343   3.207   5.147   8.875  0.7903  0.0500  0.8364
  140SAPE  H17Y15344   3.378   5.198   8.847  0.3082  0.1465 -1.2977
  140SAPE  C31815345   3.241   5.273   8.699  0.1531  0.0513 -0.7051
  140SAPE  H18X15346   3.302   5.364   8.683  0.3091  0.3531  1.5013
  140SAPE  H18Y15347   3.135   5.307   8.703  0.9046  2.4379 -0.0314
  140SAPE  H18Z15348   3.270   5.197   8.623  1.0050 -1.2048  0.8606
  141SAPE     N15349   3.520   6.433  10.625 -0.5007 -0.4988  0.0797
  141SAPE   HN115350   3.429   6.385  10.611 -1.6914  1.8465 -0.4656
  141SAPE   HN215351   3.530   6.477  10.532 -0.2613 -0.4434  0.1310
  141SAPE   HN315352   3.602   6.370  10.638  0.0453  0.5553  2.0305
  141SAPE   C1215353   3.529   6.528  10.740  0.2189  0.6445  0.3345
  141SAPE  H12A15354   3.480   6.621  10.704 -2.1964 -0.5377  0.4895
  141SAPE  H12B15355   3.634   6.532  10.776  0.5101 -0.0401 -0.4161
  141SAPE   C1115356   3.435   6.472  10.855  0.5939 -0.8296 -0.0225
  141SAPE  H11A15357   3.348   6.410  10.825 -0.7910  1.1367 -0.1821
  141SAPE  H11B15358   3.390   6.565  10.897  0.2245  0.0679 -2.3520
  141SAPE     P15359   3.551   6.260  10.961 -0.5735 -0.3491  0.0677
  141SAPE   O1315360   3.646   6.227  11.074  0.6519 -0.1448 -0.6310
  141SAPE   O1415361   3.420   6.198  10.968  0.0684  0.0613  0.0953
  141SAPE   O1215362   3.517   6.416  10.957 -0.1901  0.3231  0.0427
  141SAPE   O1115363   3.619   6.233  10.820 -0.0249 -0.0459  0.4136
  141SAPE    C115364   3.759   6.223  10.803  0.4923  0.1985  0.9427
  141SAPE    HA15365   3.813   6.315  10.834  0.6854  0.8687 -1.3039
  141SAPE    HB15366   3.785   6.125  10.849 -0.7415 -0.8064 -0.4532
  141SAPE    C215367   3.796   6.200  10.651 -0.5840  0.1160 -0.0380
  141SAPE    HS15368   3.885   6.135  10.643 -0.0649  0.8144  0.0101
  141SAPE   O2115369   3.806   6.330  10.588 -0.3630  0.2755 -0.4281
  141SAPE   C2115370   3.900   6.339  10.498  0.1581 -0.4158  0.4338
  141SAPE   O2215371   3.985   6.253  10.469  0.3424  0.4800 -0.4426
  141SAPE   C2215372   3.910   6.483  10.463 -0.0259 -0.2801  1.2263
  141SAPE   H2R15373   3.811   6.531  10.482 -0.1281  0.4179 -0.9589
  141SAPE   H2S15374   3.985   6.510  10.540 -0.2104  0.2516  1.2214
  141SAPE    C315375   3.678   6.120  10.574 -0.4110 -0.3917 -0.5265
  141SAPE    HX15376   3.586   6.181  10.558  0.8759  1.9933  0.9037
  141SAPE    HY15377   3.642   6.030  10.627  1.5730 -1.7630 -1.4610
  141SAPE   O3115378   3.716   6.077  10.439 -0.0303 -0.1985 -0.2734
  141SAPE   C3115379   3.798   5.974  10.429 -0.2364 -0.2143  0.4748
  141SAPE   O3215380   3.824   5.898  10.519 -0.1525  0.5454  0.8373
  141SAPE   C3215381   3.858   5.984  10.284  0.2084 -0.3655 -1.0706
  141SAPE   H2X15382   3.910   6.082  10.285 -0.9162  0.2437 -0.2932
  141SAPE   H2Y15383   3.770   5.995  10.216 -0.9039  0.4267  0.4580
  141SAPE   C2315384   3.966   6.509  10.315 -0.3696 -0.1888 -0.1757
  141SAPE   H3R15385   4.053   6.441  10.314 -0.8880 -0.9045  1.3105
  141SAPE   H3S15386   4.007   6.612  10.320  0.8111 -0.5748 -1.7566
  141SAPE   C2415387   3.880   6.489  10.192 -0.6259  0.2732 -0.0772
  141SAPE   H4R15388   3.831   6.390  10.204 -1.9148  0.6408 -2.1381
  141SAPE   H4S15389   3.940   6.466  10.101 -0.7629  0.0255 -0.1053
  141SAPE   C2515390   3.775   6.592  10.182  0.3835  0.3932 -0.4803
  141SAPE   H5R15391   3.765   6.649  10.275  0.0652  1.7788 -1.3556
  141SAPE   C2615392   3.686   6.613  10.084 -0.4449 -0.5947 -0.3885
  141SAPE   H6R15393   3.606   6.687  10.098  1.1751  0.5367  3.4977
  141SAPE   C2715394   3.678   6.542   9.947 -0.5203 -0.0472 -0.0850
  141SAPE   H7R15395   3.603   6.461   9.960  0.4873 -0.7919  1.1500
  141SAPE   H7S15396   3.772   6.490   9.922  0.3642  1.7574 -0.5741
  141SAPE   C2815397   3.657   6.636   9.833 -0.4134  0.6024  0.3855
  141SAPE   H8R15398   3.718   6.727   9.829  0.5808 -0.1209 -0.8780
  141SAPE   C2915399   3.568   6.622   9.734 -0.4673 -0.4452  0.3824
  141SAPE   H9R15400   3.578   6.693   9.651  0.3251 -0.6696  0.2896
  141SAPE  C21015401   3.466   6.509   9.715  0.8447  0.3952 -0.1499
  141SAPE  H10R15402   3.360   6.533   9.738  1.4807  0.7863  2.4504
  141SAPE  H10S15403   3.473   6.430   9.793 -0.7393  0.3203 -0.0559
  141SAPE  C21115404   3.478   6.460   9.567 -0.8141  0.0274  0.4171
  141SAPE  H11R15405   3.570   6.486   9.513 -0.6324  1.9463  1.6365
  141SAPE  C21215406   3.392   6.378   9.515  0.5178  0.0751  0.4032
  141SAPE  H12R15407   3.409   6.321   9.422 -3.2698 -1.9169  0.8149
  141SAPE  C21315408   3.265   6.334   9.583  0.7481  0.3324 -0.4612
  141SAPE  H13R15409   3.198   6.412   9.625  0.2911 -1.0084  1.3302
  141SAPE  H13S15410   3.291   6.273   9.672 -0.8436  0.9648  0.4602
  141SAPE  C21415411   3.176   6.252   9.497  0.4293 -0.0462 -0.2813
  141SAPE  H14R15412   3.129   6.312   9.417  0.8814  2.0785  0.9864
  141SAPE  C21515413   3.144   6.121   9.515  0.7383  0.1229 -0.3612
  141SAPE  H15R15414   3.080   6.073   9.439 -1.2713  0.7262  0.9021
  141SAPE  C21615415   3.202   6.019   9.613  0.3285  0.0976 -0.4419
  141SAPE  H16R15416   3.288   6.068   9.665 -0.0008 -0.3368  0.5230
  141SAPE  H16S15417   3.221   5.927   9.555 -1.8331 -0.4292 -0.3509
  141SAPE  C21715418   3.110   5.987   9.733  0.0829  0.1014 -0.4122
  141SAPE  H17R15419   3.021   5.928   9.701 -0.0717 -0.3664  0.8105
  141SAPE  H17S15420   3.073   6.079   9.783 -1.1462 -0.0365 -1.0526
  141SAPE  C21815421   3.184   5.896   9.831 -0.2385 -0.5784  0.8077
  141SAPE  H18R15422   3.111   5.844   9.897 -2.1261  0.1763 -0.6250
  141SAPE  H18S15423   3.244   5.962   9.897 -0.2503 -0.1080  0.3502
  141SAPE  C21915424   3.270   5.779   9.781 -0.1224 -0.2524  0.5144
  141SAPE  H19R15425   3.339   5.810   9.700  0.1358 -1.4825  0.2566
  141SAPE  H19S15426   3.208   5.719   9.711  0.1487 -0.3581  0.3652
  141SAPE  C22015427   3.338   5.690   9.881  0.1859  0.0070 -0.0578
  141SAPE  H20R15428   3.384   5.607   9.822  1.7946  1.6734 -1.2048
  141SAPE  H20S15429   3.256   5.653   9.946 -1.0541  1.7812 -0.5700
  141SAPE  H20T15430   3.418   5.740   9.940 -1.2254  1.8452  0.3430
  141SAPE   C3315431   3.959   5.867  10.253  0.1477 -0.2435  0.9953
  141SAPE   H3X15432   3.911   5.768  10.269  1.8473 -1.2284  0.1501
  141SAPE   H3Y15433   4.045   5.878  10.322 -1.7254  1.2786  3.1341
  141SAPE   C3415434   4.009   5.872  10.111 -0.4066  0.2237  0.7203
  141SAPE   H4X15435   4.046   5.976  10.109 -1.4004  0.5823 -2.1485
  141SAPE   H4Y15436   3.917   5.862  10.049 -0.4666  2.3748  0.4364
  141SAPE   C3515437   4.117   5.775  10.071  0.3032  0.1030 -0.1778
  141SAPE   H5X15438   4.078   5.671  10.077  2.9153 -0.9406 -0.8189
  141SAPE   H5Y15439   4.196   5.773  10.149 -1.1182  1.6267  1.3596
  141SAPE   C3615440   4.175   5.786   9.931  0.1374 -0.4558 -0.3778
  141SAPE   H6X15441   4.190   5.888   9.890 -1.8099 -1.3296 -3.4164
  141SAPE   H6Y15442   4.101   5.737   9.865 -1.6526  0.3248  0.9797
  141SAPE   C3715443   4.314   5.725   9.918  0.3399  0.1630  0.0770
  141SAPE   H7X15444   4.309   5.615   9.933 -2.4057  0.0126 -1.6275
  141SAPE   H7Y15445   4.372   5.772  10.000 -1.0236  1.9617  0.0379
  141SAPE   C3815446   4.384   5.768   9.785  0.5706 -0.1349 -0.2336
  141SAPE   H8X15447   4.489   5.730   9.787  0.5823 -0.1204  3.2501
  141SAPE   H8Y15448   4.382   5.878   9.792 -1.2959 -0.0272 -1.8890
  141SAPE   C3915449   4.323   5.739   9.658  0.9598 -0.4574  0.3440
  141SAPE   H9X15450   4.230   5.793   9.631  2.1059  1.2225 -0.3722
  141SAPE   H9Y15451   4.301   5.631   9.644  1.6927 -0.4405 -1.0122
  141SAPE  C31015452   4.410   5.778   9.539 -0.1156  0.0820 -0.1407
  141SAPE  H10X15453   4.517   5.751   9.548 -0.3875 -1.0807 -0.2437
  141SAPE  H10Y15454   4.409   5.888   9.523  0.6374  0.1453  0.2301
  141SAPE  C31115455   4.374   5.710   9.405  0.2105  0.3406  0.3038
  141SAPE  H11X15456   4.268   5.721   9.373  0.9348  1.3869 -1.8004
  141SAPE  H11Y15457   4.408   5.605   9.409 -1.6554 -0.3484 -1.5734
  141SAPE  C31215458   4.462   5.773   9.295 -0.1578  0.7111 -0.7375
  141SAPE  H12X15459   4.566   5.766   9.335  0.0900 -1.2800 -1.6617
  141SAPE  H12Y15460   4.444   5.883   9.292 -1.1423  0.5178 -2.0129
  141SAPE  C31315461   4.430   5.703   9.163 -0.0247 -0.3858  0.2038
  141SAPE  H13X15462   4.466   5.767   9.080  2.1321 -3.0395 -0.9731
  141SAPE  H13Y15463   4.320   5.699   9.151  0.0505  1.0687 -1.1205
  141SAPE  C31415464   4.511   5.573   9.147 -0.2960  0.5725  0.1503
  141SAPE  H14X15465   4.462   5.490   9.203  1.5580  0.5024  1.7414
  141SAPE  H14Y15466   4.616   5.581   9.182 -0.3456 -0.0715  0.4567
  141SAPE  C31515467   4.517   5.527   9.000  0.7034 -0.0211 -1.0751
  141SAPE  H15X15468   4.584   5.438   9.003 -0.3208 -0.7465  2.9220
  141SAPE  H15Y15469   4.563   5.608   8.939 -1.5208  1.4961 -0.7707
  141SAPE  C31615470   4.380   5.494   8.939  0.4860  0.0742  0.3246
  141SAPE  H16X15471   4.391   5.492   8.829 -0.6200  1.4792  0.1628
  141SAPE  H16Y15472   4.314   5.583   8.954 -0.2573 -0.3852 -0.1632
  141SAPE  C31715473   4.318   5.375   9.016  0.1666  0.0517 -0.2442
  141SAPE  H17X15474   4.297   5.403   9.121 -0.2587  0.5861 -0.4772
  141SAPE  H17Y15475   4.399   5.300   9.001  0.5757  0.5529 -0.5306
  141SAPE  C31815476   4.199   5.322   8.954 -0.0597  0.4479 -0.6167
  141SAPE  H18X15477   4.153   5.245   9.020  0.7666  0.6938  0.2517
  141SAPE  H18Y15478   4.210   5.280   8.852 -0.9703 -0.7820 -0.2290
  141SAPE  H18Z15479   4.124   5.402   8.938 -0.1510  0.3412 -0.7250
  142SAPE     N15480   4.391   5.090  11.065  0.2917 -0.1718 -0.6415
  142SAPE   HN115481   4.319   5.163  11.083  0.7872  0.0917  0.3060
  142SAPE   HN215482   4.332   5.021  11.014  0.5329 -0.1731 -0.9159
  142SAPE   HN315483   4.423   5.053  11.157  0.6154 -1.8319 -1.4042
  142SAPE   C1215484   4.478   5.171  10.977  0.1404  0.4361 -0.0039
  142SAPE  H12A15485   4.529   5.250  11.037 -0.5578  1.5633 -0.8757
  142SAPE  H12B15486   4.416   5.220  10.899 -1.6054 -1.1130  0.3736
  142SAPE   C1115487   4.592   5.095  10.903 -0.4242  0.3649 -0.1079
  142SAPE  H11A15488   4.659   5.160  10.843  1.5633 -0.9192  0.7046
  142SAPE  H11B15489   4.549   5.023  10.830  0.2146 -0.1645  0.0338
  142SAPE     P15490   4.792   5.064  11.068  0.0119 -0.1782  0.0299
  142SAPE   O1315491   4.764   5.195  11.135  0.2578 -0.2253  0.1145
  142SAPE   O1415492   4.859   4.962  11.147 -0.7008  0.0575 -0.2059
  142SAPE   O1215493   4.667   5.010  10.997 -0.2543  0.1059  0.2855
  142SAPE   O1115494   4.878   5.090  10.940 -0.2925  0.0799  0.1866
  142SAPE    C115495   4.924   4.988  10.854 -0.6489  0.4359 -0.3010
  142SAPE    HA15496   5.024   4.953  10.886 -0.1752  1.6671 -0.4472
  142SAPE    HB15497   4.866   4.893  10.855  1.0368 -0.6613  3.0972
  142SAPE    C215498   4.930   5.030  10.710  0.0525  0.4408  0.2224
  142SAPE    HS15499   4.995   5.120  10.721 -0.1082  0.8306 -1.8881
  142SAPE   O2115500   4.790   5.063  10.663  0.1732 -0.4006 -0.3367
  142SAPE   C2115501   4.778   5.185  10.598 -0.4749 -0.4240 -0.3894
  142SAPE   O2215502   4.873   5.261  10.587  0.0841 -0.2323  0.0438
  142SAPE   C2215503   4.638   5.204  10.548 -0.0638 -0.7256 -0.0205
  142SAPE   H2R15504   4.618   5.121  10.477  1.7489  0.5470 -2.0806
  142SAPE   H2S15505   4.562   5.179  10.626 -0.5439  1.4682  0.2419
  142SAPE    C315506   4.993   4.918  10.618 -0.3239  0.6653 -0.0073
  142SAPE    HX15507   4.917   4.837  10.614 -1.1139  1.3698  0.4845
  142SAPE    HY15508   5.082   4.870  10.664 -2.1421 -3.8168 -0.8974
  142SAPE   O3115509   5.025   4.959  10.484  0.0725  0.2133  0.1103
  142SAPE   C3115510   5.140   5.020  10.477 -0.0658 -0.1618  1.3093
  142SAPE   O3215511   5.217   5.039  10.568  0.4991 -1.0785 -0.5683
  142SAPE   C3215512   5.158   5.091  10.350  0.2492 -0.1097 -0.8102
  142SAPE   H2X15513   5.266   5.108  10.331  0.6438 -1.0214  0.5088
  142SAPE   H2Y15514   5.105   5.187  10.364 -0.4065 -0.3401 -1.7020
  142SAPE   C2315515   4.613   5.332  10.477 -0.5622  0.0348  0.5717
  142SAPE   H3R15516   4.667   5.324  10.380  1.4014 -0.6734  1.6888
  142SAPE   H3S15517   4.651   5.424  10.527 -2.1141  1.1602 -0.2945
  142SAPE   C2415518   4.468   5.352  10.427 -0.0227 -0.6899  0.5295
  142SAPE   H4R15519   4.385   5.358  10.501  2.4677 -0.2450  3.3660
  142SAPE   H4S15520   4.435   5.257  10.380  0.1807 -0.4731 -0.0564
  142SAPE   C2515521   4.442   5.465  10.328 -0.7166 -0.3919 -1.1460
  142SAPE   H5R15522   4.481   5.563  10.362  1.7586 -1.5560 -0.4847
  142SAPE   C2615523   4.371   5.454  10.209 -0.3267  0.2438 -0.3782
  142SAPE   H6R15524   4.346   5.545  10.152 -1.7688  0.4840  0.6220
  142SAPE   C2715525   4.295   5.329  10.159  0.6651 -0.5748 -0.5054
  142SAPE   H7R15526   4.348   5.235  10.187  1.9814 -0.1382 -1.4831
  142SAPE   H7S15527   4.310   5.324  10.049  5.0573 -0.4368 -0.0360
  142SAPE   C2815528   4.146   5.318  10.195  0.2648 -0.0464 -0.0182
  142SAPE   H8R15529   4.123   5.322  10.303 -2.5110 -2.2078 -0.5037
  142SAPE   C2915530   4.044   5.328  10.107 -0.3577  0.9801  0.1022
  142SAPE   H9R15531   3.942   5.337  10.146 -0.5440  0.2274 -0.1963
  142SAPE  C21015532   4.051   5.345   9.956 -0.2931  0.3050  0.6516
  142SAPE  H10R15533   4.129   5.421   9.934  0.5339  0.0152  2.4673
  142SAPE  H10S15534   3.955   5.389   9.920  0.5502  0.5339 -1.4199
  142SAPE  C21115535   4.084   5.222   9.863  0.0984  0.8546  0.0026
  142SAPE  H11R15536   4.111   5.131   9.917  0.8857  0.2768 -1.3358
  142SAPE  C21215537   4.059   5.203   9.730  0.4094 -0.4537  0.1160
  142SAPE  H12R15538   4.090   5.105   9.691 -1.2187 -1.0351  0.2424
  142SAPE  C21315539   3.993   5.291   9.633  0.0619  0.3084 -0.4586
  142SAPE  H13R15540   3.889   5.321   9.660 -0.2864 -1.4310  0.2122
  142SAPE  H13S15541   3.982   5.223   9.545  0.3635 -0.0903 -0.1902
  142SAPE  C21415542   4.066   5.421   9.603  0.0447  0.1695 -0.3318
  142SAPE  H14R15543   4.083   5.486   9.690  0.9444 -0.2686 -0.1795
  142SAPE  C21515544   4.089   5.472   9.478  0.1389  0.0304 -0.2000
  142SAPE  H15R15545   4.149   5.562   9.458 -0.3890  1.3154  3.6207
  142SAPE  C21615546   4.061   5.397   9.349  0.5890  0.0767  0.1074
  142SAPE  H16R15547   4.075   5.287   9.360 -1.1038 -0.1258  0.4484
  142SAPE  H16S15548   4.124   5.429   9.263 -1.4045  5.2960  0.4326
  142SAPE  C21715549   3.910   5.429   9.323 -0.6841 -0.1669  0.3164
  142SAPE  H17R15550   3.890   5.534   9.290 -0.6855 -0.6645 -1.3180
  142SAPE  H17S15551   3.851   5.396   9.411  0.3931  1.4982  1.6950
  142SAPE  C21815552   3.867   5.354   9.197 -0.0145 -0.5669  0.5556
  142SAPE  H18R15553   3.878   5.243   9.205  0.7439 -0.4419  1.3960
  142SAPE  H18S15554   3.927   5.388   9.110 -0.2399 -0.4242  0.4572
  142SAPE  C21915555   3.719   5.371   9.164  0.0679 -0.1750 -0.1661
  142SAPE  H19R15556   3.693   5.477   9.147  0.6944 -0.2038 -1.3409
  142SAPE  H19S15557   3.659   5.342   9.254  1.3295 -0.6318  0.5374
  142SAPE  C22015558   3.660   5.302   9.042 -0.4790  0.2030  0.9131
  142SAPE  H20R15559   3.552   5.326   9.036 -0.9022 -1.7762  0.3914
  142SAPE  H20S15560   3.681   5.193   9.041 -0.0705  0.2899  0.0133
  142SAPE  H20T15561   3.707   5.344   8.951  0.1358 -2.1662  0.0993
  142SAPE   C3315562   5.113   5.012  10.230  0.2418  0.0168 -0.5789
  142SAPE   H3X15563   5.006   4.985  10.240  0.3959 -0.6194 -0.6214
  142SAPE   H3Y15564   5.167   4.915  10.223  1.4801  0.7160 -0.8422
  142SAPE   C3415565   5.125   5.087  10.089 -0.3222 -0.0662 -0.0796
  142SAPE   H4X15566   5.227   5.081  10.045 -0.1398 -3.1028  0.6181
  142SAPE   H4Y15567   5.122   5.192  10.125  1.5419 -0.6996  2.0359
  142SAPE   C3515568   5.009   5.061   9.991 -0.0512 -0.1802  0.1315
  142SAPE   H5X15569   4.992   5.155   9.933 -2.8575 -0.4235  0.4797
  142SAPE   H5Y15570   4.916   5.046  10.049 -1.6238  3.2160 -1.3290
  142SAPE   C3615571   5.026   4.948   9.893  0.5976  0.1859  0.1129
  142SAPE   H6X15572   5.030   4.853   9.950  0.9755 -0.1519 -0.4657
  142SAPE   H6Y15573   5.113   4.960   9.825 -0.2729  0.3341 -0.9898
  142SAPE   C3715574   4.893   4.951   9.808 -0.1378  0.1218 -0.3524
  142SAPE   H7X15575   4.882   5.048   9.756  1.3573 -0.8697 -2.6214
  142SAPE   H7Y15576   4.807   4.936   9.877  0.3780  1.5031  0.5926
  142SAPE   C3815577   4.905   4.860   9.686 -0.3936 -0.2361  0.6203
  142SAPE   H8X15578   4.892   4.759   9.730  4.3859 -0.2701  2.1606
  142SAPE   H8Y15579   5.008   4.863   9.645 -0.5323  0.2763  0.3130
  142SAPE   C3915580   4.800   4.881   9.572  0.0171 -0.4178  0.2169
  142SAPE   H9X15581   4.831   4.974   9.522  2.5039 -1.7174 -0.7400
  142SAPE   H9Y15582   4.698   4.892   9.614  0.0744 -0.9244  0.4961
  142SAPE  C31015583   4.819   4.772   9.466  0.8968 -0.0059  0.0414
  142SAPE  H10X15584   4.762   4.683   9.498 -1.6480  1.6061  0.1081
  142SAPE  H10Y15585   4.928   4.751   9.462  0.7761 -0.6571  0.1881
  142SAPE  C31115586   4.766   4.806   9.326  0.2607  0.3443  0.3182
  142SAPE  H11X15587   4.819   4.892   9.278  0.6308 -0.5466 -0.9095
  142SAPE  H11Y15588   4.658   4.833   9.333  0.5111  1.5991 -0.3584
  142SAPE  C31215589   4.780   4.673   9.244  0.3161 -0.3952  1.2121
  142SAPE  H12X15590   4.747   4.590   9.309  2.9807 -1.6798  0.9829
  142SAPE  H12Y15591   4.889   4.666   9.221 -0.1591  1.1143 -1.8142
  142SAPE  C31315592   4.683   4.672   9.130  1.0326  0.3480  0.2305
  142SAPE  H13X15593   4.704   4.759   9.064  0.9440 -0.0830 -0.3599
  142SAPE  H13Y15594   4.579   4.656   9.165  1.4004 -2.9539 -0.0546
  142SAPE  C31415595   4.722   4.551   9.043  0.6964 -0.6272 -0.2923
  142SAPE  H14X15596   4.726   4.461   9.108 -0.5777  0.2149  0.9822
  142SAPE  H14Y15597   4.826   4.566   9.007  1.7146 -1.4506  2.2136
  142SAPE  C31515598   4.622   4.524   8.929  0.3562  0.9039 -0.8465
  142SAPE  H15X15599   4.614   4.612   8.861 -1.4982  0.2274 -1.5410
  142SAPE  H15Y15600   4.519   4.506   8.967  1.4138  0.9150  2.1504
  142SAPE  C31615601   4.655   4.411   8.831  0.3103  0.3208  0.6895
  142SAPE  H16X15602   4.757   4.432   8.792 -1.0250  2.6154 -1.7949
  142SAPE  H16Y15603   4.581   4.408   8.749  0.6572 -2.8938  0.4433
  142SAPE  C31715604   4.640   4.263   8.886 -0.4199 -0.1650  0.4002
  142SAPE  H17X15605   4.537   4.246   8.925  0.2257 -1.8623  1.4385
  142SAPE  H17Y15606   4.713   4.241   8.966  0.7828 -2.5442 -1.2923
  142SAPE  C31815607   4.670   4.165   8.770 -0.0155 -0.4112 -0.2929
  142SAPE  H18X15608   4.654   4.066   8.817  1.2119  0.3005  1.7224
  142SAPE  H18Y15609   4.778   4.168   8.743  0.1527  0.6602  0.4438
  142SAPE  H18Z15610   4.601   4.168   8.683  0.0321 -0.7960 -0.3414
  143SAPE     N15611   6.615   5.813  11.238  0.5262  0.3733 -0.3137
  143SAPE   HN115612   6.645   5.911  11.224  1.6983  0.5661  3.2312
  143SAPE   HN215613   6.554   5.816  11.322  1.0981 -0.1714  0.1241
  143SAPE   HN315614   6.693   5.745  11.249 -1.8257 -2.2427  0.7663
  143SAPE   C1215615   6.523   5.788  11.117  0.1137 -0.1983 -0.3170
  143SAPE  H12A15616   6.583   5.757  11.029  0.2763 -0.3258 -0.1600
  143SAPE  H12B15617   6.479   5.886  11.087 -0.0919 -0.6196 -1.4309
  143SAPE   C1115618   6.411   5.692  11.153  0.0305  0.0252 -0.2417
  143SAPE  H11A15619   6.354   5.714  11.246  2.0732  0.1042  1.0221
  143SAPE  H11B15620   6.450   5.589  11.162  1.2451  0.0245 -4.2466
  143SAPE     P15621   6.162   5.718  11.062 -0.0645 -0.9160 -0.1989
  143SAPE   O1315622   6.087   5.597  11.099 -0.3138 -0.0658 -0.3894
  143SAPE   O1415623   6.153   5.845  11.146 -0.3066 -0.0594  0.4784
  143SAPE   O1215624   6.321   5.689  11.048  0.0416 -0.2748 -0.2430
  143SAPE   O1115625   6.118   5.754  10.923  0.4638  0.8096 -0.4533
  143SAPE    C115626   6.207   5.782  10.812  0.5077 -0.1571 -0.4315
  143SAPE    HA15627   6.165   5.848  10.734 -0.1968 -2.1099 -1.7310
  143SAPE    HB15628   6.301   5.835  10.840  0.6640 -0.2735 -0.7393
  143SAPE    C215629   6.244   5.660  10.725  1.2151  0.2872  0.1866
  143SAPE    HS15630   6.280   5.695  10.626  2.2548 -0.2148  0.3890
  143SAPE   O2115631   6.129   5.572  10.714  0.0194 -0.4548 -0.2704
  143SAPE   C2115632   6.047   5.608  10.618 -0.1338 -0.0798 -0.5271
  143SAPE   O2215633   6.065   5.696  10.539 -1.0190  0.5156  0.4783
  143SAPE   C2215634   5.920   5.508  10.631  0.0746  0.1101  0.1366
  143SAPE   H2R15635   5.879   5.532  10.731  0.2758 -0.8168  0.4550
  143SAPE   H2S15636   5.846   5.546  10.557  0.9568  0.0711 -0.7902
  143SAPE    C315637   6.370   5.575  10.781  0.5878  0.1160 -0.7992
  143SAPE    HX15638   6.342   5.534  10.880 -2.4323  0.2967 -1.5167
  143SAPE    HY15639   6.459   5.638  10.800  0.3922 -0.0812  0.8878
  143SAPE   O3115640   6.398   5.469  10.687 -0.1023 -0.1677 -0.3671
  143SAPE   C3115641   6.410   5.345  10.743  0.4407 -0.8060  0.0444
  143SAPE   O3215642   6.439   5.321  10.857 -0.4594 -0.3848 -0.2006
  143SAPE   C3215643   6.383   5.239  10.631 -0.1653  0.2162 -0.2688
  143SAPE   H2X15644   6.272   5.235  10.627 -0.2150  1.1652  0.0985
  143SAPE   H2Y15645   6.436   5.150  10.671  0.3119  0.1836 -0.9603
  143SAPE   C2315646   5.939   5.355  10.609  1.1071 -0.2179  0.1050
  143SAPE   H3R15647   5.844   5.298  10.620  1.1189 -0.8979 -2.8085
  143SAPE   H3S15648   5.998   5.321  10.696 -2.9968  0.3929  3.2555
  143SAPE   C2415649   6.002   5.322  10.471  0.3633 -0.1672  0.3765
  143SAPE   H4R15650   6.024   5.213  10.469  0.7665 -0.0639 -1.1027
  143SAPE   H4S15651   6.095   5.379  10.455 -0.5400  0.8317 -1.5889
  143SAPE   C2515652   5.907   5.364  10.358 -0.2479 -0.6394 -0.2096
  143SAPE   H5R15653   5.806   5.324  10.375 -0.1400 -1.4818 -1.4880
  143SAPE   C2615654   5.934   5.439  10.251 -0.1074 -0.1213 -0.4574
  143SAPE   H6R15655   5.860   5.440  10.169 -2.6734  0.3861  1.8041
  143SAPE   C2715656   6.067   5.500  10.217 -0.3468 -0.1774 -0.3206
  143SAPE   H7R15657   6.106   5.440  10.132 -1.0288 -0.2906 -0.5610
  143SAPE   H7S15658   6.129   5.486  10.308  1.0410 -0.9261 -1.3669
  143SAPE   C2815659   6.053   5.652  10.192  0.0833 -0.2511 -0.1857
  143SAPE   H8R15660   6.008   5.703  10.279  0.0913 -1.0258  0.2736
  143SAPE   C2915661   6.102   5.721  10.087 -0.2578  0.7489 -0.1983
  143SAPE   H9R15662   6.081   5.828  10.076 -1.5198  0.4818 -0.4887
  143SAPE  C21015663   6.186   5.659   9.977  0.9627 -0.2054  0.0982
  143SAPE  H10R15664   6.136   5.563   9.951 -1.8136  1.1322  0.3043
  143SAPE  H10S15665   6.289   5.641  10.015  0.8460  0.5842  0.7987
  143SAPE  C21115666   6.175   5.738   9.847 -0.1563 -0.0162 -0.6025
  143SAPE  H11R15667   6.094   5.813   9.846  1.5844  1.9353 -0.4424
  143SAPE  C21215668   6.248   5.707   9.737 -0.5857 -0.4051  0.1923
  143SAPE  H12R15669   6.244   5.765   9.644  3.8709 -0.8585 -0.3926
  143SAPE  C21315670   6.349   5.599   9.725 -1.0069  0.8093  0.0678
  143SAPE  H13R15671   6.371   5.566   9.828  1.3361 -1.6631 -1.1791
  143SAPE  H13S15672   6.448   5.639   9.692 -1.9209  1.7474 -1.6501
  143SAPE  C21415673   6.302   5.487   9.637  0.6712 -0.6217  0.0221
  143SAPE  H14R15674   6.296   5.393   9.694 -2.9981 -1.6664 -1.9744
  143SAPE  C21515675   6.292   5.491   9.499  0.1167  0.0817  0.1755
  143SAPE  H15R15676   6.261   5.399   9.448  2.4289 -0.0639 -1.0493
  143SAPE  C21615677   6.324   5.616   9.419 -0.6625 -0.2415 -0.8204
  143SAPE  H16R15678   6.383   5.691   9.477 -1.0613  0.8932 -1.8781
  143SAPE  H16S15679   6.225   5.662   9.398 -2.3984 -3.7168 -0.6337
  143SAPE  C21715680   6.403   5.590   9.292 -0.7550  0.1667  0.3988
  143SAPE  H17R15681   6.338   5.545   9.214  0.8333  0.9549 -1.4360
  143SAPE  H17S15682   6.489   5.522   9.310 -1.5901 -1.1245 -0.3857
  143SAPE  C21815683   6.456   5.717   9.233 -0.5498  0.0371 -0.0616
  143SAPE  H18R15684   6.535   5.753   9.302  0.2027  0.4961 -1.1327
  143SAPE  H18S15685   6.371   5.785   9.249  1.1934  1.8505  1.8016
  143SAPE  C21915686   6.500   5.717   9.085 -0.1103 -0.3523  1.1504
  143SAPE  H19R15687   6.407   5.690   9.030  0.5321 -1.8612  0.8060
  143SAPE  H19S15688   6.571   5.633   9.072 -0.5454 -0.5907  0.2675
  143SAPE  C22015689   6.564   5.846   9.016 -0.0130  0.1466 -0.2051
  143SAPE  H20R15690   6.574   5.834   8.906 -2.8153  3.5894 -0.9318
  143SAPE  H20S15691   6.662   5.870   9.063  0.0561 -2.0089  0.7967
  143SAPE  H20T15692   6.503   5.939   9.015  0.8895  0.7301 -1.3128
  143SAPE   C3315693   6.433   5.271  10.488  0.0981  0.1886  0.0530
  143SAPE   H3X15694   6.534   5.316  10.482 -0.1886  0.8690  0.3247
  143SAPE   H3Y15695   6.372   5.357  10.453  0.5603 -0.3757 -2.2130
  143SAPE   C3415696   6.422   5.140  10.405  0.6524 -0.0045  0.5905
  143SAPE   H4X15697   6.317   5.106  10.408  0.0924  1.7217  1.9067
  143SAPE   H4Y15698   6.475   5.069  10.472 -1.0071 -1.7513  0.0764
  143SAPE   C3515699   6.479   5.130  10.268  0.9074 -0.0855  0.1161
  143SAPE   H5X15700   6.489   5.028  10.226 -1.6622 -1.1474  1.9521
  143SAPE   H5Y15701   6.583   5.159  10.296  0.7417  2.0110 -1.3122
  143SAPE   C3615702   6.403   5.214  10.161  0.2940  0.3970 -0.1448
  143SAPE   H6X15703   6.466   5.271  10.091  1.4745 -0.0682  0.5158
  143SAPE   H6Y15704   6.346   5.297  10.207 -0.5021  0.9789 -2.1460
  143SAPE   C3715705   6.295   5.145  10.080 -0.0489  0.0628 -0.9243
  143SAPE   H7X15706   6.242   5.211  10.008  1.0856  0.8171 -1.0729
  143SAPE   H7Y15707   6.235   5.094  10.159  0.6898 -2.2204 -1.8230
  143SAPE   C3815708   6.341   5.035   9.988  0.0087  0.4436 -0.3908
  143SAPE   H8X15709   6.265   4.964   9.952  0.0546 -0.7309  1.7237
  143SAPE   H8Y15710   6.421   4.968  10.025  0.7047  0.7394 -1.3306
  143SAPE   C3915711   6.400   5.099   9.861  0.1346 -0.0368  0.2925
  143SAPE   H9X15712   6.477   5.171   9.895  0.3471 -0.2170  0.1989
  143SAPE   H9Y15713   6.325   5.156   9.803  1.5000  1.2354 -0.2451
  143SAPE  C31015714   6.453   4.997   9.760  0.1416  0.0494 -0.0797
  143SAPE  H10X15715   6.369   4.937   9.719 -0.0929  0.6890 -0.5418
  143SAPE  H10Y15716   6.535   4.929   9.792 -0.3774 -0.9623 -0.8605
  143SAPE  C31115717   6.506   5.052   9.632 -0.0541  0.0297 -0.6837
  143SAPE  H11X15718   6.592   5.120   9.650 -1.3677  1.4159  0.4622
  143SAPE  H11Y15719   6.416   5.099   9.588 -0.9508 -1.4725 -0.4958
  143SAPE  C31215720   6.564   4.958   9.526  0.2390 -0.2194 -1.0208
  143SAPE  H12X15721   6.480   4.891   9.497  1.2923 -1.9627 -0.1178
  143SAPE  H12Y15722   6.644   4.895   9.571 -0.0634  0.3459  0.3373
  143SAPE  C31315723   6.622   5.034   9.411 -0.7989 -0.4528 -0.2171
  143SAPE  H13X15724   6.683   5.115   9.457 -1.6309  0.3114 -0.4471
  143SAPE  H13Y15725   6.535   5.092   9.374 -0.6958  0.5275  1.0506
  143SAPE  C31415726   6.690   4.949   9.301 -0.0581 -0.4617 -0.1248
  143SAPE  H14X15727   6.667   4.841   9.312  0.0148 -0.3940  0.6901
  143SAPE  H14Y15728   6.800   4.953   9.316 -0.0063  1.3177 -0.8667
  143SAPE  C31515729   6.643   4.991   9.165 -0.4433  0.1098 -0.4443
  143SAPE  H15X15730   6.666   5.098   9.146 -0.9061  0.6729  1.9832
  143SAPE  H15Y15731   6.534   4.972   9.175  0.0280 -1.2175  2.8883
  143SAPE  C31615732   6.710   4.902   9.062  0.5430  0.3902  0.5177
  143SAPE  H16X15733   6.716   4.795   9.092 -1.3305 -0.7210 -2.7659
  143SAPE  H16Y15734   6.802   4.958   9.036  0.4581 -0.2127 -1.1608
  143SAPE  C31715735   6.633   4.898   8.923 -0.5945  0.0317 -0.4847
  143SAPE  H17X15736   6.601   5.002   8.903 -1.7934 -0.2696 -0.2261
  143SAPE  H17Y15737   6.536   4.844   8.933 -2.0465  2.7216  0.2557
  143SAPE  C31815738   6.723   4.833   8.813  0.0129 -1.0936  0.1077
  143SAPE  H18X15739   6.761   4.734   8.847  0.9785 -1.5721 -2.3008
  143SAPE  H18Y15740   6.811   4.890   8.775 -0.6651 -0.4302 -0.4931
  143SAPE  H18Z15741   6.660   4.815   8.723  0.7418  1.9432 -1.0618
  144SAPE     N15742   3.036   3.292  10.814 -0.4416  0.3634  0.4786
  144SAPE   HN115743   3.078   3.385  10.793 -0.3759  0.3144  0.3936
  144SAPE   HN215744   2.986   3.298  10.905 -0.5752 -1.6482  0.5507
  144SAPE   HN315745   3.107   3.220  10.836  0.0672  0.8673  0.4969
  144SAPE   C1215746   2.938   3.234  10.719 -0.3284 -0.3069  0.2390
  144SAPE  H12A15747   2.883   3.148  10.765 -1.5210 -0.0092 -0.6202
  144SAPE  H12B15748   2.990   3.207  10.624 -0.1091  0.3050  0.1872
  144SAPE   C1115749   2.832   3.339  10.674  0.1120  0.0121  0.4951
  144SAPE  H11A15750   2.758   3.310  10.597  1.0178 -0.0302 -0.3588
  144SAPE  H11B15751   2.883   3.418  10.616 -0.8615 -0.6222 -1.2634
  144SAPE     P15752   2.625   3.359  10.823 -0.0514  0.0647  0.4525
  144SAPE   O1315753   2.619   3.217  10.847 -0.0097  0.3049  0.6268
  144SAPE   O1415754   2.579   3.452  10.930  0.1221 -0.0409 -0.4744
  144SAPE   O1215755   2.773   3.401  10.784 -0.0102  0.6655 -0.0448
  144SAPE   O1115756   2.544   3.390  10.690 -0.4939  0.5504 -0.4936
  144SAPE    C115757   2.545   3.507  10.606  0.5827  0.6570  0.0224
  144SAPE    HA15758   2.527   3.594  10.673 -1.5740  1.1344 -1.1218
  144SAPE    HB15759   2.641   3.522  10.553  0.4492  3.0570  0.3962
  144SAPE    C215760   2.429   3.512  10.505 -0.0793  0.9820  1.4658
  144SAPE    HS15761   2.331   3.518  10.558 -0.3821  0.1548  1.0189
  144SAPE   O2115762   2.415   3.389  10.426  0.3043  0.3351 -0.0922
  144SAPE   C2115763   2.509   3.368  10.328  0.3360  0.1787 -0.6644
  144SAPE   O2215764   2.609   3.427  10.321 -0.4687  0.1718 -0.7440
  144SAPE   C2215765   2.471   3.238  10.262  0.7396 -1.0515  0.3600
  144SAPE   H2R15766   2.563   3.177  10.274  2.1943  1.2225  1.0858
  144SAPE   H2S15767   2.391   3.182  10.316  0.8975 -1.4472  0.1845
  144SAPE    C315768   2.433   3.641  10.419  0.0002  0.0626 -0.3846
  144SAPE    HX15769   2.540   3.662  10.395  0.2161  0.3984  0.8271
  144SAPE    HY15770   2.402   3.727  10.482 -0.7414 -1.5169  1.4437
  144SAPE   O3115771   2.349   3.626  10.306  0.5376  0.3698 -0.3719
  144SAPE   C3115772   2.391   3.663  10.193 -0.9486 -0.3119  0.5205
  144SAPE   O3215773   2.508   3.702  10.170 -0.1106 -0.5327 -0.1205
  144SAPE   C3215774   2.286   3.642  10.084  0.4406  0.4930 -0.3002
  144SAPE   H2X15775   2.197   3.707  10.096 -0.9465 -1.9113  3.2971
  144SAPE   H2Y15776   2.248   3.537  10.082  3.1706 -0.5535  0.8860
  144SAPE   C2315777   2.432   3.265  10.122 -0.6421 -0.4766  0.4643
  144SAPE   H3R15778   2.343   3.332  10.121 -1.3082 -1.2270 -4.4803
  144SAPE   H3S15779   2.392   3.172  10.078 -0.8026 -0.2945  0.2218
  144SAPE   C2415780   2.538   3.315  10.027 -0.1148 -0.0107  0.2936
  144SAPE   H4R15781   2.556   3.417  10.066 -1.6295  0.8773 -1.2211
  144SAPE   H4S15782   2.495   3.328   9.925 -0.5534 -0.4838  0.4145
  144SAPE   C2515783   2.667   3.239  10.021 -0.0139 -0.2667 -1.2514
  144SAPE   H5R15784   2.698   3.196  10.117 -0.1244 -0.2924 -1.2263
  144SAPE   C2615785   2.748   3.214   9.922 -0.2002 -0.0934  0.3924
  144SAPE   H6R15786   2.845   3.166   9.941 -0.7002 -0.3198  2.4055
  144SAPE   C2715787   2.724   3.259   9.781 -0.3820 -0.2463  0.3633
  144SAPE   H7R15788   2.813   3.245   9.716 -1.9534 -4.0484 -1.1319
  144SAPE   H7S15789   2.708   3.368   9.790 -1.2922 -0.2774 -0.8518
  144SAPE   C2815790   2.605   3.183   9.710 -0.1634  0.1803  0.2612
  144SAPE   H8R15791   2.557   3.098   9.761 -1.6188  1.3210  0.8445
  144SAPE   C2915792   2.559   3.215   9.588  0.0091 -0.7058  0.0478
  144SAPE   H9R15793   2.468   3.179   9.539  0.1790 -1.5096  0.3143
  144SAPE  C21015794   2.625   3.333   9.513  0.6731 -0.4691  0.6502
  144SAPE  H10R15795   2.724   3.297   9.477  1.4061  1.1256  1.0300
  144SAPE  H10S15796   2.659   3.411   9.584 -2.0765 -0.5325  2.0786
  144SAPE  C21115797   2.526   3.391   9.414  0.0145  0.0346  0.0656
  144SAPE  H11R15798   2.421   3.364   9.433 -0.1984  0.6179 -0.2786
  144SAPE  C21215799   2.555   3.456   9.300  0.4116 -0.9228  0.5955
  144SAPE  H12R15800   2.468   3.482   9.237  0.4310  2.6207  1.8849
  144SAPE  C21315801   2.691   3.493   9.234 -0.2135 -0.4653  0.4591
  144SAPE  H13R15802   2.782   3.504   9.297  0.9425  1.6087 -1.4856
  144SAPE  H13S15803   2.666   3.591   9.187  2.2042  0.5262  1.1524
  144SAPE  C21415804   2.743   3.412   9.121  0.5671  0.1866  0.3807
  144SAPE  H14R15805   2.806   3.332   9.163  1.1327  1.3005  1.6956
  144SAPE  C21515806   2.722   3.426   8.987 -0.5566  0.2238 -0.6401
  144SAPE  H15R15807   2.766   3.358   8.913  2.0674 -0.6911  1.6992
  144SAPE  C21615808   2.635   3.542   8.927  0.0040 -0.9514  0.0082
  144SAPE  H16R15809   2.687   3.627   8.878  0.5364  0.1266  2.4174
  144SAPE  H16S15810   2.562   3.578   9.002 -0.9234 -0.6665 -1.0264
  144SAPE  C21715811   2.532   3.489   8.825  0.2619  0.3813  0.4749
  144SAPE  H17R15812   2.467   3.573   8.795  1.0032  1.2239  1.1947
  144SAPE  H17S15813   2.468   3.411   8.874  0.8786  0.3094  1.1763
  144SAPE  C21815814   2.588   3.425   8.700  0.0350  0.0612  0.8519
  144SAPE  H18R15815   2.513   3.351   8.666  1.6305 -0.9874 -0.4484
  144SAPE  H18S15816   2.692   3.390   8.717  0.3812  1.7161  2.3496
  144SAPE  C21915817   2.599   3.514   8.576 -0.0525  0.6638 -0.0626
  144SAPE  H19R15818   2.512   3.584   8.572 -0.1353  0.7233  2.3352
  144SAPE  H19S15819   2.583   3.437   8.497 -2.5755  2.5628 -1.4820
  144SAPE  C22015820   2.731   3.583   8.561  0.1700 -0.1980 -0.9889
  144SAPE  H20R15821   2.735   3.646   8.470 -0.7783 -0.5768 -1.2981
  144SAPE  H20S15822   2.807   3.502   8.550 -0.1020 -0.8004  1.2516
  144SAPE  H20T15823   2.757   3.643   8.651 -0.8865 -1.0971 -0.0581
  144SAPE   C3315824   2.340   3.683   9.946 -0.1344 -0.5742  0.6404
  144SAPE   H3X15825   2.441   3.646   9.918 -1.9572 -3.1141 -2.9936
  144SAPE   H3Y15826   2.356   3.793   9.956  2.0685 -0.8547  0.5032
  144SAPE   C3415827   2.253   3.643   9.828 -0.0782 -0.5790 -0.1930
  144SAPE   H4X15828   2.151   3.686   9.839 -0.2406 -1.4136  1.6287
  144SAPE   H4Y15829   2.239   3.533   9.824 -0.0720 -0.6480  1.4626
  144SAPE   C3515830   2.310   3.678   9.695  0.4299 -0.0766 -0.5467
  144SAPE   H5X15831   2.403   3.621   9.672  0.6049 -0.4515  1.0573
  144SAPE   H5Y15832   2.344   3.783   9.695 -0.4257  0.2032 -0.5477
  144SAPE   C3615833   2.206   3.665   9.583  0.3978  0.3258 -0.7333
  144SAPE   H6X15834   2.114   3.722   9.608  0.5875  0.2458  0.1454
  144SAPE   H6Y15835   2.181   3.559   9.560 -0.5638  0.2884  0.4598
  144SAPE   C3715836   2.280   3.710   9.453  0.3774 -0.2277 -0.9505
  144SAPE   H7X15837   2.382   3.665   9.452 -0.6998 -2.8124 -0.1058
  144SAPE   H7Y15838   2.291   3.818   9.473  1.2975 -0.1901 -1.5925
  144SAPE   C3815839   2.198   3.684   9.320  0.3181 -0.1726 -0.2153
  144SAPE   H8X15840   2.099   3.735   9.325  1.1652  1.3346  2.3916
  144SAPE   H8Y15841   2.183   3.575   9.310  2.1640 -0.5211  0.5986
  144SAPE   C3915842   2.272   3.739   9.198  0.9138  0.5201 -0.3175
  144SAPE   H9X15843   2.371   3.692   9.188  0.4867 -0.6736  0.9581
  144SAPE   H9Y15844   2.293   3.846   9.221  2.5194 -0.5363  3.5048
  144SAPE  C31015845   2.203   3.730   9.060  0.0407 -0.3976  0.1998
  144SAPE  H10X15846   2.106   3.784   9.068  0.8179  0.7351  2.3378
  144SAPE  H10Y15847   2.183   3.624   9.031 -2.0523 -0.1272  0.5872
  144SAPE  C31115848   2.266   3.804   8.941 -0.5897  0.3316 -0.3743
  144SAPE  H11X15849   2.352   3.747   8.900 -0.9722  0.7098 -1.7033
  144SAPE  H11Y15850   2.311   3.898   8.980 -1.3050  1.1283 -1.4449
  144SAPE  C31215851   2.164   3.823   8.831 -0.3543 -0.1789 -0.5650
  144SAPE  H12X15852   2.213   3.888   8.755  1.4799 -0.1590  0.6175
  144SAPE  H12Y15853   2.074   3.878   8.866 -0.9536 -0.9190 -0.9323
  144SAPE  C31315854   2.128   3.692   8.764  0.0686  0.0991  0.5273
  144SAPE  H13X15855   2.040   3.658   8.822  1.1146 -1.7150  1.0873
  144SAPE  H13Y15856   2.213   3.622   8.776  0.1437 -0.0090 -0.5383
  144SAPE  C31415857   2.082   3.700   8.617 -0.1214 -0.7651  0.1128
  144SAPE  H14X15858   1.997   3.770   8.608 -0.2582 -1.2182 -2.5035
  144SAPE  H14Y15859   2.039   3.598   8.601 -0.8060 -0.6075  0.9028
  144SAPE  C31515860   2.183   3.720   8.505  0.0589 -1.0271 -0.3250
  144SAPE  H15X15861   2.245   3.632   8.479  0.7536  0.3995 -3.7298
  144SAPE  H15Y15862   2.254   3.800   8.538 -0.7156 -0.3469 -0.3051
  144SAPE  C31615863   2.110   3.762   8.375 -0.2424  0.5998  0.0948
  144SAPE  H16X15864   2.027   3.689   8.364  1.5428 -1.1195 -2.6156
  144SAPE  H16Y15865   2.177   3.751   8.286  0.0476  1.3266  0.2210
  144SAPE  C31715866   2.047   3.902   8.360  0.2604 -0.2814  0.3583
  144SAPE  H17X15867   2.121   3.964   8.305 -0.1381 -1.6859 -1.8312
  144SAPE  H17Y15868   2.032   3.944   8.461  1.1430  1.6747 -0.3101
  144SAPE  C31815869   1.907   3.904   8.297  0.1625  0.1725  0.5985
  144SAPE  H18X15870   1.919   3.872   8.191  0.5698  4.4530 -0.7427
  144SAPE  H18Y15871   1.866   4.005   8.277 -0.1033 -0.2208 -0.8556
  144SAPE  H18Z15872   1.837   3.851   8.365  1.7026 -1.3590  1.0443
  145SAPE     N15873   6.518   5.236  11.140 -0.4101 -0.3660 -0.5810
  145SAPE   HN115874   6.442   5.282  11.086  0.2228  1.8201  0.3188
  145SAPE   HN215875   6.593   5.309  11.143 -0.4364 -0.2215 -2.5234
  145SAPE   HN315876   6.556   5.147  11.102 -3.4706 -2.3628  0.8428
  145SAPE   C1215877   6.461   5.225  11.275  0.3225  0.0946 -0.1484
  145SAPE  H12A15878   6.416   5.320  11.310 -2.7212 -0.5243 -2.0903
  145SAPE  H12B15879   6.545   5.188  11.337 -0.3184 -0.0398  0.6559
  145SAPE   C1115880   6.351   5.122  11.265  0.0632  0.1307  0.5941
  145SAPE  H11A15881   6.312   5.127  11.161 -2.7117 -0.4373  1.5606
  145SAPE  H11B15882   6.271   5.158  11.334  0.1254 -0.7758  1.1436
  145SAPE     P15883   6.299   4.871  11.266  0.0448 -0.2455 -0.5838
  145SAPE   O1315884   6.367   4.743  11.286 -0.2917 -0.8453 -0.3777
  145SAPE   O1415885   6.172   4.892  11.336 -0.3618  0.2130  0.0189
  145SAPE   O1215886   6.397   4.990  11.301  0.1369  0.0250 -0.0407
  145SAPE   O1115887   6.279   4.903  11.110 -0.1389 -0.1064 -0.2810
  145SAPE    C115888   6.369   4.844  11.009  0.4287  0.3838 -0.2923
  145SAPE    HA15889   6.471   4.888  11.014  0.0685  1.0682  1.2702
  145SAPE    HB15890   6.371   4.733  11.005 -1.5569  0.3619 -2.1888
  145SAPE    C215891   6.313   4.894  10.871  0.3111  0.0499  0.3095
  145SAPE    HS15892   6.308   5.005  10.878 -1.8466  0.0146 -0.1486
  145SAPE   O2115893   6.181   4.838  10.851  0.0766 -0.5928  0.2547
  145SAPE   C2115894   6.104   4.923  10.780 -0.8112  0.3633  0.2017
  145SAPE   O2215895   6.124   5.040  10.767 -0.1860 -0.2386 -0.1237
  145SAPE   C2215896   6.011   4.844  10.692  0.4359  0.4060  0.0145
  145SAPE   H2R15897   5.962   4.761  10.746  0.8803  0.6812  0.8346
  145SAPE   H2S15898   5.928   4.911  10.659  0.7159 -0.5204 -2.7334
  145SAPE    C315899   6.405   4.876  10.750 -0.0343 -0.4978 -0.1313
  145SAPE    HX15900   6.509   4.911  10.768 -0.9208  1.0209  2.2755
  145SAPE    HY15901   6.365   4.940  10.669 -0.3896  0.4537  0.7737
  145SAPE   O3115902   6.413   4.738  10.715 -0.1270  0.1994  0.0280
  145SAPE   C3115903   6.488   4.710  10.605  0.1892  0.1572  0.5138
  145SAPE   O3215904   6.542   4.797  10.538 -0.0087 -0.3692 -0.5113
  145SAPE   C3215905   6.485   4.558  10.572 -0.0077  0.3791 -0.2389
  145SAPE   H2X15906   6.385   4.521  10.603 -0.3151  2.4179  1.3466
  145SAPE   H2Y15907   6.569   4.505  10.621 -0.1467 -1.1939 -1.6599
  145SAPE   C2315908   6.076   4.796  10.564  0.4934  0.1186  0.1295
  145SAPE   H3R15909   6.011   4.721  10.515  1.4558  0.3500 -1.5590
  145SAPE   H3S15910   6.179   4.762  10.587  0.3035  0.5178  1.6453
  145SAPE   C2415911   6.083   4.917  10.458 -0.3860 -0.3643 -0.0821
  145SAPE   H4R15912   6.162   4.891  10.384 -1.1940 -0.8702 -0.7825
  145SAPE   H4S15913   6.121   5.011  10.505 -0.1511 -1.0239  1.0507
  145SAPE   C2515914   5.958   4.940  10.392 -0.3344 -0.3381  0.2355
  145SAPE   H5R15915   5.880   4.984  10.456 -0.0495  0.9899 -0.3232
  145SAPE   C2615916   5.931   4.915  10.264  0.3388  0.0708 -0.0294
  145SAPE   H6R15917   5.830   4.907  10.222 -0.9952 -0.7054  3.1605
  145SAPE   C2715918   6.031   4.859  10.161  0.1859 -0.1508  0.1722
  145SAPE   H7R15919   6.121   4.920  10.185  1.3230 -1.7439  0.0783
  145SAPE   H7S15920   5.991   4.893  10.062  2.7230 -0.1519 -0.8976
  145SAPE   C2815921   6.036   4.708  10.184 -0.2430  0.5133  0.3581
  145SAPE   H8R15922   6.051   4.663  10.283 -1.1029 -0.8666 -0.1281
  145SAPE   C2915923   6.040   4.624  10.077 -0.0226  0.3090  0.6840
  145SAPE   H9R15924   6.035   4.514  10.089  1.5028  0.2545  0.8352
  145SAPE  C21015925   6.038   4.657   9.933 -0.3155 -0.5467 -0.2844
  145SAPE  H10R15926   5.963   4.736   9.913 -0.4008 -0.4827  0.2879
  145SAPE  H10S15927   6.005   4.570   9.873 -1.8690 -1.0431  1.2635
  145SAPE  C21115928   6.177   4.691   9.892  0.0734 -0.0610  0.1835
  145SAPE  H11R15929   6.243   4.741   9.964 -1.1825 -0.1091  1.3829
  145SAPE  C21215930   6.223   4.683   9.767 -0.5178 -0.6058  0.2281
  145SAPE  H12R15931   6.325   4.720   9.754 -1.1144  0.5513 -1.2984
  145SAPE  C21315932   6.152   4.653   9.634 -1.0584 -0.4634 -0.9018
  145SAPE  H13R15933   6.102   4.743   9.595 -0.6910 -0.0851 -0.5028
  145SAPE  H13S15934   6.069   4.582   9.654 -2.7669  0.3378 -4.8510
  145SAPE  C21415935   6.256   4.603   9.535 -0.4794  1.0588 -0.8505
  145SAPE  H14R15936   6.324   4.528   9.577 -2.0604 -0.0950 -0.3266
  145SAPE  C21515937   6.264   4.629   9.404  0.5288  0.0709 -0.1151
  145SAPE  H15R15938   6.349   4.590   9.347  2.7559  3.4091  0.7651
  145SAPE  C21615939   6.163   4.713   9.321  0.3874 -0.4528 -0.0853
  145SAPE  H16R15940   6.075   4.745   9.379  2.7488  0.6896  3.0343
  145SAPE  H16S15941   6.128   4.645   9.241 -0.9561  1.2995 -0.9964
  145SAPE  C21715942   6.221   4.835   9.243  0.3837 -0.6897  0.1826
  145SAPE  H17R15943   6.311   4.810   9.182  0.1780  0.2936 -0.5440
  145SAPE  H17S15944   6.241   4.908   9.325 -2.3611 -0.5857  0.8167
  145SAPE  C21815945   6.120   4.910   9.162  0.2196  0.1190  0.8125
  145SAPE  H18R15946   6.054   4.969   9.230 -0.3029 -2.4862  2.6431
  145SAPE  H18S15947   6.053   4.846   9.101  1.9426  0.4333 -1.4724
  145SAPE  C21915948   6.185   5.023   9.064  0.1954  0.1068 -0.0804
  145SAPE  H19R15949   6.266   4.968   9.010 -0.1445 -1.1779  0.6859
  145SAPE  H19S15950   6.248   5.089   9.127  1.3419  1.4476 -2.5512
  145SAPE  C22015951   6.078   5.083   8.975 -0.6426  0.2004  0.5017
  145SAPE  H20R15952   6.035   5.010   8.904  0.8343 -0.5076  0.3251
  145SAPE  H20S15953   6.117   5.160   8.905 -1.9708  2.2738  1.9967
  145SAPE  H20T15954   6.002   5.127   9.043  0.3708 -1.3332  2.7086
  145SAPE   C3315955   6.514   4.541  10.418 -0.1141 -1.1058  0.1426
  145SAPE   H3X15956   6.533   4.434  10.395  1.1948 -1.0340  0.8314
  145SAPE   H3Y15957   6.607   4.590  10.382 -0.8015 -1.4952 -2.2502
  145SAPE   C3415958   6.400   4.589  10.332  0.0227  0.8735  0.2008
  145SAPE   H4X15959   6.363   4.691  10.354 -3.0306 -0.4330  1.5499
  145SAPE   H4Y15960   6.315   4.520  10.350  0.8949 -0.0772  0.7475
  145SAPE   C3515961   6.440   4.592  10.188  0.0018 -0.4491  0.2594
  145SAPE   H5X15962   6.344   4.585  10.133  0.1521  1.3903 -0.2744
  145SAPE   H5Y15963   6.498   4.500  10.164  0.5652  0.6079 -2.6785
  145SAPE   C3615964   6.520   4.712  10.157  0.6371 -0.2722 -0.0200
  145SAPE   H6X15965   6.607   4.726  10.224 -0.1533  0.8220  0.7980
  145SAPE   H6Y15966   6.460   4.805  10.170  3.0376  1.2517  0.4649
  145SAPE   C3715967   6.564   4.705  10.016 -0.6350  0.6823  0.4671
  145SAPE   H7X15968   6.601   4.801   9.973 -0.5321  0.8793  0.9895
  145SAPE   H7Y15969   6.472   4.678   9.961  0.5866 -0.1373 -1.2225
  145SAPE   C3815970   6.684   4.612   9.994 -0.2659 -0.5901  0.2957
  145SAPE   H8X15971   6.655   4.508  10.023 -0.3509 -0.8984 -0.8893
  145SAPE   H8Y15972   6.761   4.640  10.070  0.7248 -1.7363 -0.2790
  145SAPE   C3915973   6.745   4.616   9.854 -0.1980 -0.0260  0.3045
  145SAPE   H9X15974   6.817   4.532   9.844 -0.0881  0.2858 -1.6969
  145SAPE   H9Y15975   6.797   4.714   9.845 -0.7600  0.6204  3.3581
  145SAPE  C31015976   6.653   4.599   9.730  0.1696  0.4814 -0.2498
  145SAPE  H10X15977   6.585   4.687   9.731 -0.6700 -0.1715  0.8320
  145SAPE  H10Y15978   6.598   4.503   9.740  2.1678 -0.9024 -2.2968
  145SAPE  C31115979   6.728   4.591   9.596 -0.2276  0.1393  0.2222
  145SAPE  H11X15980   6.791   4.500   9.599 -1.6544 -0.8647  0.4123
  145SAPE  H11Y15981   6.802   4.670   9.572  1.2267 -1.5777 -1.1011
  145SAPE  C31215982   6.641   4.593   9.475  0.1124  0.4104  0.3441
  145SAPE  H12X15983   6.600   4.696   9.469  0.0577  0.3377 -0.5749
  145SAPE  H12Y15984   6.554   4.525   9.491 -0.3981  1.1150  0.5682
  145SAPE  C31315985   6.706   4.555   9.344 -0.0635 -0.3770  0.2433
  145SAPE  H13X15986   6.760   4.461   9.366  0.7173  0.0896  0.3689
  145SAPE  H13Y15987   6.782   4.634   9.327  0.7577 -0.7580  1.9845
  145SAPE  C31415988   6.620   4.532   9.218 -0.4445 -0.8471 -0.0984
  145SAPE  H14X15989   6.574   4.624   9.178  1.5575  1.0111  1.6793
  145SAPE  H14Y15990   6.530   4.477   9.251 -1.9583  0.9982 -1.0347
  145SAPE  C31515991   6.700   4.466   9.111 -0.2492  0.6404 -0.1451
  145SAPE  H15X15992   6.725   4.362   9.138  0.6545  0.2693 -2.2422
  145SAPE  H15Y15993   6.790   4.530   9.092 -1.5154  1.5351 -3.5714
  145SAPE  C31615994   6.618   4.457   8.980  0.0111 -0.4654 -0.9542
  145SAPE  H16X15995   6.554   4.548   8.982 -1.4461 -1.4851  2.6297
  145SAPE  H16Y15996   6.561   4.362   8.982 -1.3664  0.3221 -1.7870
  145SAPE  C31715997   6.698   4.446   8.850 -0.2858  0.1614 -0.0476
  145SAPE  H17X15998   6.760   4.354   8.849 -1.5727 -0.7344  1.3663
  145SAPE  H17Y15999   6.787   4.513   8.847  0.5383 -0.9292 -0.2067
  145SAPE  C31816000   6.613   4.467   8.722 -0.3429 -0.4081 -0.0555
  145SAPE  H18X16001   6.673   4.464   8.629 -0.0763  0.0681  0.0993
  145SAPE  H18Y16002   6.551   4.560   8.727  0.0167 -0.2672  2.6076
  145SAPE  H18Z16003   6.533   4.390   8.732 -2.1839  1.7369  2.3379
  146SAPE     N16004   3.886   4.716  10.741  0.3810 -0.1097  0.2017
  146SAPE   HN116005   3.824   4.663  10.805 -3.3387  0.5727 -2.6735
  146SAPE   HN216006   3.985   4.713  10.774  1.8202 -1.8027 -4.0152
  146SAPE   HN316007   3.850   4.813  10.737 -2.3032 -1.0691 -0.3997
  146SAPE   C1216008   3.875   4.660  10.602 -0.1323 -0.4255  0.2208
  146SAPE  H12A16009   3.976   4.668  10.557  0.0331 -0.5045  0.5751
  146SAPE  H12B16010   3.797   4.717  10.547 -0.3260  0.7727  1.6901
  146SAPE   C1116011   3.830   4.511  10.594 -0.3998 -0.3476  0.5343
  146SAPE  H11A16012   3.907   4.442  10.635  0.8368  1.2528  0.9317
  146SAPE  H11B16013   3.812   4.476  10.490  3.2530 -0.0580 -0.2755
  146SAPE     P16014   3.661   4.371  10.739 -0.1262  0.1648 -0.1175
  146SAPE   O1316015   3.773   4.313  10.816 -0.5052 -0.0386  1.1718
  146SAPE   O1416016   3.544   4.416  10.823 -0.7207  0.4696  0.1049
  146SAPE   O1216017   3.710   4.498  10.662  0.0367  0.2425 -0.2778
  146SAPE   O1116018   3.601   4.280  10.632 -0.0171 -0.0991 -0.6818
  146SAPE    C116019   3.654   4.152  10.601 -0.1474  0.0935  0.5678
  146SAPE    HA16020   3.718   4.105  10.679  0.1678  1.4686  1.1495
  146SAPE    HB16021   3.564   4.087  10.593 -1.3470  1.3498  3.1864
  146SAPE    C216022   3.734   4.150  10.466 -0.0268  0.4563 -0.7753
  146SAPE    HS16023   3.736   4.040  10.446 -0.8260  0.2884  0.0074
  146SAPE   O2116024   3.863   4.214  10.471  0.0876  0.1751  0.0426
  146SAPE   C2116025   3.949   4.141  10.400 -0.2057  0.5104 -0.1352
  146SAPE   O2216026   3.932   4.038  10.337 -0.3241 -0.6141  0.1458
  146SAPE   C2216027   4.082   4.211  10.416 -0.2464 -0.1071  0.4542
  146SAPE   H2R16028   4.069   4.320  10.430  0.3294 -0.2367  2.1439
  146SAPE   H2S16029   4.111   4.173  10.516  0.6858 -1.7568 -0.4095
  146SAPE    C316030   3.656   4.219  10.350 -0.3909 -0.4314 -0.1771
  146SAPE    HX16031   3.653   4.326  10.380 -0.3270  0.2312 -2.4227
  146SAPE    HY16032   3.558   4.167  10.356  1.2103 -3.3925  1.6037
  146SAPE   O3116033   3.715   4.209  10.224  0.1766 -0.4124  0.1017
  146SAPE   C3116034   3.694   4.095  10.160 -0.0671  0.0996  0.1635
  146SAPE   O3216035   3.639   3.994  10.209  0.2863  0.0296 -0.4085
  146SAPE   C3216036   3.762   4.101  10.027 -0.4376 -1.0286  0.0166
  146SAPE   H2X16037   3.871   4.080  10.039 -0.1986 -0.2348 -0.7214
  146SAPE   H2Y16038   3.741   4.200   9.982  3.3931 -0.0308  0.1904
  146SAPE   C2316039   4.183   4.194  10.310  0.1501 -0.3634 -0.2396
  146SAPE   H3R16040   4.187   4.103  10.246  1.3810  0.3461 -1.2202
  146SAPE   H3S16041   4.278   4.191  10.368  1.0795  0.2283 -1.6859
  146SAPE   C2416042   4.197   4.318  10.225  0.3266 -0.1092  0.6215
  146SAPE   H4R16043   4.273   4.296  10.147  0.1595  2.0703 -0.2022
  146SAPE   H4S16044   4.220   4.408  10.287 -0.9910 -0.9886  2.4443
  146SAPE   C2516045   4.066   4.353  10.157  0.0579  0.0483 -0.3090
  146SAPE   H5R16046   3.997   4.408  10.222  1.2882  2.1649 -0.7056
  146SAPE   C2616047   4.020   4.329  10.029 -0.1743 -0.4668  0.1686
  146SAPE   H6R16048   3.926   4.370   9.989  0.6042 -1.3103 -2.6998
  146SAPE   C2716049   4.098   4.251   9.926 -0.2098  0.4990  0.3107
  146SAPE   H7R16050   4.031   4.169   9.892 -0.1616  0.6668 -0.1894
  146SAPE   H7S16051   4.189   4.211   9.976 -0.3766  2.1001  1.9555
  146SAPE   C2816052   4.131   4.315   9.795 -0.7789  0.8896 -0.5913
  146SAPE   H8R16053   4.049   4.375   9.754 -2.8587 -1.5130 -0.1448
  146SAPE   C2916054   4.231   4.271   9.715  0.4845  0.3866 -0.3784
  146SAPE   H9R16055   4.251   4.326   9.623  1.7302  0.2349 -0.2027
  146SAPE  C21016056   4.322   4.147   9.738  0.7154  0.4223  0.0865
  146SAPE  H10R16057   4.309   4.121   9.845 -0.0686  0.6761  0.0513
  146SAPE  H10S16058   4.427   4.181   9.724  0.4785  0.8960 -0.5768
  146SAPE  C21116059   4.289   4.034   9.640 -0.0928  0.5987 -0.4350
  146SAPE  H11R16060   4.182   4.012   9.633 -0.7444  3.0469  0.9857
  146SAPE  C21216061   4.373   3.962   9.570 -0.6066  0.8498  0.2141
  146SAPE  H12R16062   4.328   3.881   9.511 -1.5723  2.2229 -0.9901
  146SAPE  C21316063   4.522   3.975   9.560 -0.6952 -0.5163 -0.1753
  146SAPE  H13R16064   4.566   3.976   9.662 -0.1763  2.1220 -0.3872
  146SAPE  H13S16065   4.536   4.079   9.524  0.3586  0.1351  2.0121
  146SAPE  C21416066   4.589   3.875   9.477 -0.1089  0.5627  0.1569
  146SAPE  H14R16067   4.585   3.887   9.367 -1.0238  0.0279  0.1228
  146SAPE  C21516068   4.647   3.762   9.526  0.0630 -0.1141 -0.2272
  146SAPE  H15R16069   4.698   3.696   9.454  0.0273 -0.8053  0.3841
  146SAPE  C21616070   4.646   3.731   9.672  0.2220 -0.4932  0.3378
  146SAPE  H16R16071   4.628   3.622   9.685 -1.2961 -0.4645 -1.2299
  146SAPE  H16S16072   4.555   3.775   9.719 -0.3600 -0.1634 -1.0642
  146SAPE  C21716073   4.774   3.768   9.751 -0.4554  0.4699 -0.4658
  146SAPE  H17R16074   4.780   3.879   9.746 -0.3325  0.5402  0.9809
  146SAPE  H17S16075   4.868   3.721   9.715 -0.7141 -0.0964 -0.4113
  146SAPE  C21816076   4.753   3.742   9.900 -0.4494 -0.0947 -0.0061
  146SAPE  H18R16077   4.660   3.791   9.934 -0.1951 -1.1905  2.3361
  146SAPE  H18S16078   4.831   3.797   9.957 -0.8487 -0.3428  0.7821
  146SAPE  C21916079   4.743   3.589   9.944 -0.6772  0.4833 -0.0765
  146SAPE  H19R16080   4.842   3.542   9.921  0.4184  1.1997  2.9944
  146SAPE  H19S16081   4.672   3.528   9.885 -1.1247  0.3585  0.5980
  146SAPE  C22016082   4.712   3.566  10.092 -0.4232  0.6407 -0.3671
  146SAPE  H20R16083   4.796   3.584  10.162  0.3274 -2.4422 -0.3954
  146SAPE  H20S16084   4.695   3.456  10.101  0.5332  0.5071 -0.1276
  146SAPE  H20T16085   4.622   3.621  10.125 -1.5403 -0.1171 -2.0714
  146SAPE   C3316086   3.700   3.995   9.932  0.0095 -0.0150 -0.0954
  146SAPE   H3X16087   3.592   4.007   9.911  0.3249  1.3347 -0.9862
  146SAPE   H3Y16088   3.722   3.902   9.988  0.0001 -1.1342 -1.9025
  146SAPE   C3416089   3.771   3.992   9.797 -0.2102 -0.2751 -0.9027
  146SAPE   H4X16090   3.740   3.902   9.740 -0.2119 -1.1466  0.4556
  146SAPE   H4Y16091   3.881   3.979   9.811 -0.2150  1.4533  1.0379
  146SAPE   C3516092   3.730   4.117   9.706  0.5299 -0.0858 -1.6751
  146SAPE   H5X16093   3.825   4.172   9.689 -0.8004  1.6251 -3.8872
  146SAPE   H5Y16094   3.655   4.179   9.759  0.1043 -1.3942 -0.7169
  146SAPE   C3616095   3.695   4.093   9.555  0.5931 -0.0591  0.3109
  146SAPE   H6X16096   3.670   4.192   9.512 -1.5867 -0.2736  1.0477
  146SAPE   H6Y16097   3.608   4.025   9.541  0.1614  0.5158  0.1823
  146SAPE   C3716098   3.807   4.015   9.481 -0.4928 -0.5413 -0.2238
  146SAPE   H7X16099   3.840   3.929   9.544  0.3059 -0.8455 -1.0352
  146SAPE   H7Y16100   3.895   4.078   9.456  0.4182 -1.4860  0.5452
  146SAPE   C3816101   3.750   3.956   9.352 -0.0518 -0.0429 -0.9229
  146SAPE   H8X16102   3.728   4.045   9.291 -2.0858  0.5399  0.6348
  146SAPE   H8Y16103   3.660   3.896   9.378 -0.2981  0.0550 -1.5313
  146SAPE   C3916104   3.851   3.873   9.278 -0.3986  0.3543 -0.4493
  146SAPE   H9X16105   3.907   3.807   9.348 -1.0898  1.1231  0.8579
  146SAPE   H9Y16106   3.912   3.955   9.234 -0.5586 -0.6854 -2.6945
  146SAPE  C31016107   3.793   3.799   9.159 -0.3701 -0.5368  0.9899
  146SAPE  H10X16108   3.692   3.757   9.180 -0.5560 -0.5765  0.0379
  146SAPE  H10Y16109   3.863   3.719   9.128  1.2237  1.3448 -0.4210
  146SAPE  C31116110   3.771   3.882   9.024  0.1796 -0.4339 -0.6360
  146SAPE  H11X16111   3.869   3.906   8.977  0.3689  0.0923  0.0154
  146SAPE  H11Y16112   3.711   3.972   9.049  0.5951 -0.5795  0.9749
  146SAPE  C31216113   3.699   3.799   8.913 -0.9489  0.1294 -0.5506
  146SAPE  H12X16114   3.599   3.784   8.959 -0.5674 -1.7554 -0.2788
  146SAPE  H12Y16115   3.746   3.699   8.899 -2.4336 -0.5900 -0.5277
  146SAPE  C31316116   3.697   3.885   8.787 -0.3075  0.6465 -0.5686
  146SAPE  H13X16117   3.803   3.904   8.760 -0.1419  0.7026  0.1128
  146SAPE  H13Y16118   3.636   3.975   8.807 -3.4575 -0.8818 -2.7175
  146SAPE  C31416119   3.617   3.811   8.674 -0.5699  0.2614  0.2284
  146SAPE  H14X16120   3.514   3.797   8.712  0.3348 -1.1190  2.2038
  146SAPE  H14Y16121   3.663   3.711   8.660 -1.4509 -0.4236  2.1470
  146SAPE  C31516122   3.600   3.897   8.549  0.8034 -0.3636 -0.4977
  146SAPE  H15X16123   3.696   3.913   8.495  1.8710  1.4317  1.8355
  146SAPE  H15Y16124   3.559   3.998   8.572  4.7148  0.6360  2.5629
  146SAPE  C31616125   3.491   3.841   8.457 -0.0836  0.4292 -0.3443
  146SAPE  H16X16126   3.481   3.909   8.370  1.7012  2.1319  0.7509
  146SAPE  H16Y16127   3.388   3.833   8.498  1.0128  3.9343  3.4646
  146SAPE  C31716128   3.521   3.703   8.397 -0.2945  0.2768  0.1257
  146SAPE  H17X16129   3.535   3.640   8.488  1.7249 -1.1931 -1.1611
  146SAPE  H17Y16130   3.619   3.717   8.346 -1.9961 -0.1809 -3.3972
  146SAPE  C31816131   3.412   3.655   8.299 -0.0220 -0.0241 -0.1362
  146SAPE  H18X16132   3.418   3.699   8.197 -3.5974 -3.0216 -1.7497
  146SAPE  H18Y16133   3.311   3.688   8.330 -0.3381  0.1160 -1.3121
  146SAPE  H18Z16134   3.420   3.546   8.280 -1.0488  0.2824 -2.4741
  147SAPE     N16135   0.466   1.760   6.351 -0.1652 -0.1834  0.1630
  147SAPE   HN116136   0.373   1.805   6.334 -0.5131 -0.3221  1.5909
  147SAPE   HN216137   0.539   1.813   6.300  0.9404  0.2788  2.1655
  147SAPE   HN316138   0.463   1.666   6.306  1.1366 -0.8219  1.3798
  147SAPE   C1216139   0.494   1.748   6.500 -0.0636  0.3645  0.1079
  147SAPE  H12A16140   0.582   1.681   6.515  1.3173  1.9915 -0.6025
  147SAPE  H12B16141   0.407   1.705   6.554 -0.7624  1.3625 -0.2022
  147SAPE   C1116142   0.520   1.887   6.561 -0.2422 -0.3686 -0.0257
  147SAPE  H11A16143   0.600   1.940   6.505  0.0572  0.4865  1.1992
  147SAPE  H11B16144   0.566   1.870   6.660 -0.8051 -0.5822  0.2040
  147SAPE     P16145   0.385   2.119   6.577 -0.1218  0.1929  0.2537
  147SAPE   O1316146   0.440   2.170   6.445 -0.0530 -0.0801 -0.2341
  147SAPE   O1416147   0.248   2.157   6.605  0.0895 -0.6483 -0.0311
  147SAPE   O1216148   0.400   1.964   6.577 -0.2522 -0.4328 -0.3139
  147SAPE   O1116149   0.474   2.166   6.695  0.1937 -0.2134  0.0241
  147SAPE    C116150   0.588   2.256   6.695  0.0977 -0.5206  0.1486
  147SAPE    HA16151   0.653   2.219   6.613 -1.5531 -1.4436 -0.7778
  147SAPE    HB16152   0.553   2.358   6.670 -0.0910 -0.6851 -0.2694
  147SAPE    C216153   0.664   2.257   6.830  0.1425  0.6144 -0.4802
  147SAPE    HS16154   0.721   2.352   6.830  0.6931  0.4139 -4.7102
  147SAPE   O2116155   0.749   2.140   6.851 -0.5478 -0.0375 -0.1237
  147SAPE   C2116156   0.862   2.140   6.777  0.2897 -0.6606 -0.3735
  147SAPE   O2216157   0.915   2.241   6.734  0.2121  0.0974  1.0516
  147SAPE   C2216158   0.910   1.997   6.743  0.2566 -0.6991 -0.6120
  147SAPE   H2R16159   1.014   1.999   6.781 -0.0298  4.0771  0.2759
  147SAPE   H2S16160   0.844   1.922   6.792  0.8438 -2.1286 -1.9686
  147SAPE    C316161   0.553   2.263   6.937 -0.2924 -0.1655 -0.2297
  147SAPE    HX16162   0.500   2.166   6.949  0.6118 -0.5844  0.4559
  147SAPE    HY16163   0.471   2.332   6.908 -0.5321 -0.4182 -0.1524
  147SAPE   O3116164   0.608   2.295   7.064 -0.1113 -0.0002 -0.5026
  147SAPE   C3116165   0.579   2.410   7.124 -0.6123  0.0735 -0.0936
  147SAPE   O3216166   0.520   2.502   7.069  0.0521  0.3213  0.3280
  147SAPE   C3216167   0.648   2.418   7.260  0.3619 -0.2047  0.3613
  147SAPE   H2X16168   0.746   2.374   7.235  0.2174  0.2146 -1.0256
  147SAPE   H2Y16169   0.587   2.355   7.329 -2.1846  2.0500  0.2846
  147SAPE   C2316170   0.925   1.986   6.589 -0.3186  0.0589  0.2939
  147SAPE   H3R16171   0.963   2.081   6.544 -0.8917 -0.1714 -0.7033
  147SAPE   H3S16172   0.818   1.972   6.564  0.2464 -1.7820 -1.2458
  147SAPE   C2416173   1.003   1.869   6.546 -0.2898  0.4298  0.3239
  147SAPE   H4R16174   0.991   1.855   6.437 -1.9836 -0.3029  0.5944
  147SAPE   H4S16175   0.957   1.785   6.602  0.5465  0.6699  1.3885
  147SAPE   C2516176   1.149   1.866   6.562 -0.1606 -0.1303  0.3422
  147SAPE   H5R16177   1.200   1.927   6.486 -0.1233 -0.3108  0.2232
  147SAPE   C2616178   1.219   1.808   6.661  0.4239  0.3235 -0.5785
  147SAPE   H6R16179   1.329   1.810   6.665  0.5006 -1.5107 -1.2103
  147SAPE   C2716180   1.154   1.730   6.773 -0.7662  0.1295  0.7457
  147SAPE   H7R16181   1.044   1.721   6.761 -0.7631 -1.2793  1.6645
  147SAPE   H7S16182   1.178   1.775   6.872 -0.8146 -2.2037  1.8517
  147SAPE   C2816183   1.214   1.594   6.783  0.0268  0.3598 -0.7100
  147SAPE   H8R16184   1.265   1.554   6.694  0.2457  1.9058 -1.2969
  147SAPE   C2916185   1.214   1.514   6.892  0.1195 -0.7166 -0.1218
  147SAPE   H9R16186   1.266   1.418   6.883 -0.2711 -1.1843  2.3164
  147SAPE  C21016187   1.158   1.548   7.024 -0.2811  0.3526 -0.3235
  147SAPE  H10R16188   1.071   1.482   7.045  2.2586 -2.6797  1.0846
  147SAPE  H10S16189   1.108   1.647   7.019 -2.1539 -0.5234  0.7883
  147SAPE  C21116190   1.260   1.553   7.133  0.8756  0.2284 -0.1904
  147SAPE  H11R16191   1.359   1.522   7.098  0.1379  0.9343 -2.9676
  147SAPE  C21216192   1.237   1.604   7.256 -0.3742  0.0987 -0.3369
  147SAPE  H12R16193   1.307   1.592   7.340  0.0617 -3.1896 -1.1164
  147SAPE  C21316194   1.111   1.674   7.299 -0.0035  0.8943  0.0794
  147SAPE  H13R16195   1.047   1.716   7.218  0.8737  1.4132 -0.3576
  147SAPE  H13S16196   1.148   1.762   7.355  0.5807 -1.1632  3.0644
  147SAPE  C21416197   1.028   1.563   7.367 -0.0126 -0.3245  0.2954
  147SAPE  H14R16198   1.033   1.463   7.322 -0.3527 -0.0545 -0.3392
  147SAPE  C21516199   0.940   1.585   7.470 -0.8339  0.0763  0.3156
  147SAPE  H15R16200   0.893   1.498   7.517  0.6653 -0.5321  0.7189
  147SAPE  C21616201   0.922   1.719   7.537 -0.2465 -0.5813  0.2772
  147SAPE  H16R16202   0.812   1.736   7.541  0.2136  3.6951 -1.9233
  147SAPE  H16S16203   0.958   1.805   7.476 -1.9799  0.2501  0.3952
  147SAPE  C21716204   0.976   1.738   7.679  0.3187  0.5401 -0.1036
  147SAPE  H17R16205   0.959   1.839   7.721  0.5944 -0.5810  2.8200
  147SAPE  H17S16206   1.087   1.741   7.669  0.6185 -2.2059  1.8315
  147SAPE  C21816207   0.944   1.633   7.787  0.3120 -0.3634  0.6751
  147SAPE  H18R16208   1.000   1.545   7.749  0.2435 -1.2001  2.4281
  147SAPE  H18S16209   0.839   1.600   7.769  0.4852 -0.5004 -0.0906
  147SAPE  C21916210   0.970   1.667   7.933 -0.3915  0.1525 -0.0386
  147SAPE  H19R16211   0.990   1.579   7.998 -4.8715 -0.6190  0.4546
  147SAPE  H19S16212   0.878   1.715   7.972 -0.6804 -0.8451  0.5259
  147SAPE  C22016213   1.084   1.776   7.964  0.4522 -0.8380 -0.8922
  147SAPE  H20R16214   1.047   1.874   7.925 -1.0053 -2.2341 -3.1201
  147SAPE  H20S16215   1.191   1.756   7.942  1.2427  0.5486  1.4888
  147SAPE  H20T16216   1.091   1.792   8.074 -0.8529 -1.8847 -0.6524
  147SAPE   C3316217   0.659   2.565   7.317  0.4881 -0.6802  0.2887
  147SAPE   H3X16218   0.574   2.627   7.281  0.1771 -1.0057  0.4604
  147SAPE   H3Y16219   0.743   2.618   7.269  0.7102 -1.4946 -0.2345
  147SAPE   C3416220   0.663   2.564   7.475 -0.1643 -0.5079  0.6087
  147SAPE   H4X16221   0.677   2.669   7.506 -1.1668 -0.5179  1.1139
  147SAPE   H4Y16222   0.751   2.512   7.518 -0.9552 -0.9121  1.7523
  147SAPE   C3516223   0.541   2.504   7.541  0.1512 -0.0545 -0.2851
  147SAPE   H5X16224   0.542   2.394   7.528  0.2332  0.0691 -1.3488
  147SAPE   H5Y16225   0.449   2.540   7.491  0.4723 -2.0859 -2.3780
  147SAPE   C3616226   0.524   2.556   7.689 -0.4144  0.2439 -0.5030
  147SAPE   H6X16227   0.418   2.575   7.718 -0.9282 -0.9080 -1.5735
  147SAPE   H6Y16228   0.564   2.659   7.693  0.6496 -0.0874 -2.2463
  147SAPE   C3716229   0.585   2.460   7.799  0.6543 -0.0335 -0.0181
  147SAPE   H7X16230   0.685   2.430   7.762 -0.5603 -1.2562 -2.3761
  147SAPE   H7Y16231   0.517   2.373   7.788 -0.1193  0.1276  3.0308
  147SAPE   C3816232   0.585   2.524   7.932  0.3931  0.0126  0.2358
  147SAPE   H8X16233   0.488   2.491   7.976 -0.5106  0.4386 -1.4263
  147SAPE   H8Y16234   0.587   2.634   7.916  0.5365 -0.2061 -1.2931
  147SAPE   C3916235   0.708   2.489   8.022  0.2392 -0.9670  0.4645
  147SAPE   H9X16236   0.688   2.540   8.118  0.6846 -1.2621  0.7164
  147SAPE   H9Y16237   0.799   2.532   7.977 -0.7532 -0.6613 -1.3073
  147SAPE  C31016238   0.727   2.339   8.042  0.5728 -0.2636 -0.5318
  147SAPE  H10X16239   0.751   2.289   7.946 -0.5903 -3.1839  0.6330
  147SAPE  H10Y16240   0.624   2.298   8.052  0.3223  0.6104  0.5409
  147SAPE  C31116241   0.796   2.301   8.168  0.3513 -0.2254  0.0166
  147SAPE  H11X16242   0.770   2.348   8.266  1.2211  1.5021 -0.5695
  147SAPE  H11Y16243   0.899   2.338   8.149  0.7759 -1.2938  0.2178
  147SAPE  C31216244   0.780   2.157   8.202  0.0274  0.5929  0.2123
  147SAPE  H12X16245   0.821   2.090   8.123  0.3455  0.6149  0.3581
  147SAPE  H12Y16246   0.670   2.137   8.201 -0.1694  1.6164  1.5458
  147SAPE  C31316247   0.829   2.105   8.338  0.0096  0.7594  0.0922
  147SAPE  H13X16248   0.760   2.156   8.409  0.4408 -1.4723  2.1980
  147SAPE  H13Y16249   0.929   2.147   8.363 -0.2801  0.9677  0.9188
  147SAPE  C31416250   0.817   1.952   8.345  0.4294  0.0935  0.1141
  147SAPE  H14X16251   0.852   1.935   8.449  1.8449  1.3446 -0.1463
  147SAPE  H14Y16252   0.873   1.897   8.267  2.1953  0.9732  0.7411
  147SAPE  C31516253   0.664   1.908   8.362  0.1072  0.0289  0.4126
  147SAPE  H15X16254   0.615   1.954   8.274 -0.6719  0.4344  1.0480
  147SAPE  H15Y16255   0.621   1.959   8.451 -0.6064  2.2309 -1.1687
  147SAPE  C31616256   0.660   1.754   8.364  0.5914 -0.4848 -0.6053
  147SAPE  H16X16257   0.575   1.717   8.426 -0.4176 -1.4136 -2.4852
  147SAPE  H16Y16258   0.748   1.722   8.423 -0.0356 -0.2715  0.4706
  147SAPE  C31716259   0.656   1.684   8.224 -0.4663 -0.2657  0.8742
  147SAPE  H17X16260   0.712   1.751   8.155 -2.3081  0.9157  0.4927
  147SAPE  H17Y16261   0.552   1.682   8.184 -0.9078  3.5048  1.5989
  147SAPE  C31816262   0.716   1.546   8.231 -0.3105  0.7430  0.1896
  147SAPE  H18X16263   0.650   1.480   8.293  1.7166 -1.9763 -0.4616
  147SAPE  H18Y16264   0.811   1.536   8.287 -0.1146 -0.7298 -0.3793
  147SAPE  H18Z16265   0.713   1.507   8.127 -2.8768  0.6883  0.2445
  148SAPE     N16266   0.090   6.674   6.776  0.5637 -0.0341 -0.3388
  148SAPE   HN116267   0.180   6.651   6.821 -0.9772 -3.6751  1.0761
  148SAPE   HN216268   0.068   6.620   6.690  0.3321  0.4454 -0.5850
  148SAPE   HN316269   0.092   6.768   6.733  2.2460 -0.2532 -0.7716
  148SAPE   C1216270  -0.024   6.649   6.867 -0.1115 -0.2930  0.3080
  148SAPE  H12A16271   0.006   6.688   6.967  0.4440 -0.9420  0.3995
  148SAPE  H12B16272  -0.040   6.540   6.882 -1.7800  0.3190  3.2299
  148SAPE   C1116273  -0.138   6.730   6.819  0.2892 -0.1746 -0.7545
  148SAPE  H11A16274  -0.096   6.832   6.811 -0.5651  0.2718  0.3268
  148SAPE  H11B16275  -0.215   6.735   6.899  0.8077 -1.1546 -0.1780
  148SAPE     P16276  -0.290   6.798   6.614 -0.0426 -0.0821 -0.4353
  148SAPE   O1316277  -0.216   6.825   6.493  0.3727  0.0025 -0.1879
  148SAPE   O1416278  -0.421   6.736   6.595  0.0539  0.7192  0.0766
  148SAPE   O1216279  -0.195   6.696   6.694 -0.3251  0.0137 -0.5030
  148SAPE   O1116280  -0.312   6.919   6.715 -0.2345  0.0278 -0.0909
  148SAPE    C116281  -0.230   7.037   6.700 -0.9408 -0.7279 -0.1806
  148SAPE    HA16282  -0.124   7.002   6.697 -1.4919 -2.5277  0.2135
  148SAPE    HB16283  -0.257   7.099   6.613  0.7189  1.5392  0.8582
  148SAPE    C216284  -0.233   7.134   6.827 -0.2297  0.0570  0.0833
  148SAPE    HS16285  -0.138   7.192   6.832  1.1177 -2.0682 -0.1739
  148SAPE   O2116286  -0.252   7.068   6.950 -0.8927  0.3959 -0.1913
  148SAPE   C2116287  -0.152   7.024   7.012 -0.1807 -0.7894 -0.4642
  148SAPE   O2216288  -0.031   7.047   6.988 -0.0397  0.4548  0.1476
  148SAPE   C2216289  -0.208   6.938   7.129 -1.1801  0.4365  0.2266
  148SAPE   H2R16290  -0.260   7.007   7.199  0.6611 -0.9282  3.0387
  148SAPE   H2S16291  -0.287   6.866   7.101 -0.1340 -0.9125  0.7205
  148SAPE    C316292  -0.345   7.234   6.810  0.3595  0.0761  0.1928
  148SAPE    HX16293  -0.436   7.171   6.797  1.0177 -1.2756  2.0569
  148SAPE    HY16294  -0.341   7.292   6.715  1.3329  1.0009  0.7893
  148SAPE   O3116295  -0.349   7.325   6.922 -0.6848 -0.0038  0.2336
  148SAPE   C3116296  -0.438   7.297   7.019  0.2548  0.3254 -0.8170
  148SAPE   O3216297  -0.511   7.199   7.026 -0.1386 -0.0847 -0.2609
  148SAPE   C3216298  -0.446   7.417   7.119 -0.0875  0.2203 -0.3793
  148SAPE   H2X16299  -0.533   7.476   7.083 -0.0204 -0.9846 -2.5856
  148SAPE   H2Y16300  -0.351   7.474   7.106  0.7947 -0.9392  0.7935
  148SAPE   C2316301  -0.099   6.864   7.198 -0.7589 -0.3413 -0.3633
  148SAPE   H3R16302  -0.005   6.923   7.198  1.4060 -3.6276 -1.7938
  148SAPE   H3S16303  -0.066   6.775   7.140  1.9587  0.2359  0.2460
  148SAPE   C2416304  -0.146   6.820   7.339  0.8086 -0.2029 -0.2254
  148SAPE   H4R16305  -0.220   6.739   7.325 -1.1622  1.3255  1.1209
  148SAPE   H4S16306  -0.203   6.902   7.387 -1.6312 -1.2350 -1.2762
  148SAPE   C2516307  -0.041   6.760   7.434 -0.8210 -0.7027 -0.0629
  148SAPE   H5R16308   0.005   6.663   7.411  1.3261  0.4606 -0.8262
  148SAPE   C2616309   0.013   6.821   7.534  0.2386 -0.4759  0.0934
  148SAPE   H6R16310   0.095   6.775   7.592  0.5731 -1.1976 -0.9555
  148SAPE   C2716311  -0.028   6.950   7.599  0.0400 -0.0937  0.6525
  148SAPE   H7R16312  -0.102   6.937   7.680 -1.2502  0.5901 -0.3960
  148SAPE   H7S16313  -0.076   7.013   7.521 -0.9047  0.6301  1.8042
  148SAPE   C2816314   0.091   7.019   7.654  0.8138  0.5005  0.5547
  148SAPE   H8R16315   0.161   7.059   7.580  1.0651  1.8793  1.5117
  148SAPE   C2916316   0.124   7.025   7.787  0.1200  0.7634  0.3789
  148SAPE   H9R16317   0.217   7.076   7.816  0.6848 -1.5262  2.7132
  148SAPE  C21016318   0.041   6.961   7.899  0.1757  0.4370 -0.3193
  148SAPE  H10R16319  -0.066   6.966   7.872  0.4246  1.8488 -1.1326
  148SAPE  H10S16320   0.046   7.031   7.986 -2.3891 -0.2570  0.4110
  148SAPE  C21116321   0.085   6.819   7.945 -0.2571 -0.2057  0.4349
  148SAPE  H11R16322   0.052   6.735   7.882  0.9498 -0.2444 -0.1581
  148SAPE  C21216323   0.160   6.787   8.057  0.2200 -0.5345 -0.6952
  148SAPE  H12R16324   0.188   6.681   8.067 -0.5735 -0.6511  0.3064
  148SAPE  C21316325   0.217   6.883   8.154  0.0790  0.0157 -0.6827
  148SAPE  H13R16326   0.200   6.986   8.118 -0.7879 -0.0506 -0.4648
  148SAPE  H13S16327   0.325   6.857   8.153 -0.2194 -1.2719 -0.3459
  148SAPE  C21416328   0.159   6.864   8.292  0.6508  0.2987 -0.1062
  148SAPE  H14R16329   0.049   6.866   8.298  0.7413  0.1012  2.2558
  148SAPE  C21516330   0.220   6.846   8.410 -0.9862  0.5247 -0.4532
  148SAPE  H15R16331   0.150   6.831   8.493  0.1514  1.3869  0.6818
  148SAPE  C21616332   0.366   6.839   8.445  0.0704  0.0102  0.1517
  148SAPE  H16R16333   0.426   6.914   8.390 -4.0893  3.4314  0.0924
  148SAPE  H16S16334   0.404   6.735   8.436  1.2795  0.3817  0.7653
  148SAPE  C21716335   0.385   6.865   8.591 -0.3298 -0.2847 -0.2034
  148SAPE  H17R16336   0.492   6.844   8.613 -0.2866 -0.4748 -0.5860
  148SAPE  H17S16337   0.332   6.787   8.650  0.8142  1.6789  3.6017
  148SAPE  C21816338   0.355   7.007   8.629 -0.3598 -0.4771  0.9584
  148SAPE  H18R16339   0.252   7.026   8.591 -0.3137  1.3123  1.7050
  148SAPE  H18S16340   0.429   7.071   8.577 -0.6843 -1.0783 -0.2543
  148SAPE  C21916341   0.362   7.038   8.782 -0.1947  0.7145  0.4837
  148SAPE  H19R16342   0.291   6.970   8.833 -0.3977  1.4494  1.1862
  148SAPE  H19S16343   0.330   7.143   8.802  0.2254  0.6084  1.7689
  148SAPE  C22016344   0.495   7.006   8.856 -0.0800 -0.5415 -0.3702
  148SAPE  H20R16345   0.506   7.064   8.950  0.9611 -0.0724 -0.7725
  148SAPE  H20S16346   0.579   7.041   8.792 -1.9695  2.2145 -1.4274
  148SAPE  H20T16347   0.504   6.898   8.882 -0.0132 -0.3670  0.3433
  148SAPE   C3316348  -0.480   7.361   7.261  0.2538  1.3420 -0.3004
  148SAPE   H3X16349  -0.430   7.270   7.299 -2.2405  0.6596  1.4672
  148SAPE   H3Y16350  -0.585   7.325   7.263  0.7625 -0.2341 -0.9658
  148SAPE   C3416351  -0.471   7.462   7.375  0.5762 -0.7782  0.1901
  148SAPE   H4X16352  -0.547   7.543   7.371  0.6489 -0.7470 -0.5259
  148SAPE   H4Y16353  -0.373   7.512   7.383  0.3381  0.0343 -1.8000
  148SAPE   C3516354  -0.494   7.380   7.503 -0.2884 -0.0015  0.5436
  148SAPE   H5X16355  -0.420   7.297   7.509 -0.8039 -0.3612  2.0059
  148SAPE   H5Y16356  -0.594   7.333   7.501  0.8822 -2.5524 -3.3145
  148SAPE   C3616357  -0.483   7.471   7.635  0.0317 -0.3779  0.6145
  148SAPE   H6X16358  -0.560   7.551   7.630 -0.7013 -1.1868 -2.3248
  148SAPE   H6Y16359  -0.382   7.518   7.642 -0.2703  0.1701  1.3683
  148SAPE   C3716360  -0.494   7.378   7.759 -0.2853  0.0645  0.6760
  148SAPE   H7X16361  -0.418   7.297   7.762 -0.7179 -0.3283  1.0928
  148SAPE   H7Y16362  -0.589   7.321   7.744 -0.7524  0.8622  0.5226
  148SAPE   C3816363  -0.502   7.453   7.885  0.3849  0.4523 -0.2049
  148SAPE   H8X16364  -0.606   7.463   7.923  0.7165 -1.6789  1.3536
  148SAPE   H8Y16365  -0.455   7.554   7.887 -0.0423  0.6194  2.4665
  148SAPE   C3916366  -0.434   7.377   7.990  0.9899  0.0026  0.1537
  148SAPE   H9X16367  -0.329   7.346   7.971  0.3947 -2.2080  0.2892
  148SAPE   H9Y16368  -0.503   7.294   8.017  0.5291  0.6759  1.0628
  148SAPE  C31016369  -0.418   7.466   8.108 -0.4074 -0.0467  0.1720
  148SAPE  H10X16370  -0.511   7.492   8.163  0.8231  3.3472  0.8255
  148SAPE  H10Y16371  -0.370   7.564   8.084 -0.2955  0.1587  1.2050
  148SAPE  C31116372  -0.334   7.399   8.223 -0.8192  0.0731  0.2264
  148SAPE  H11X16373  -0.339   7.449   8.323 -0.7470  3.6299 -1.4795
  148SAPE  H11Y16374  -0.229   7.410   8.190 -0.9906 -1.7019 -0.9655
  148SAPE  C31216375  -0.364   7.248   8.254 -0.6835 -0.6279  0.1904
  148SAPE  H12X16376  -0.322   7.203   8.161  1.8286 -0.2797  1.1064
  148SAPE  H12Y16377  -0.474   7.236   8.254 -0.4961 -2.5985  1.2409
  148SAPE  C31316378  -0.291   7.194   8.380 -0.4940 -0.7907  0.2980
  148SAPE  H13X16379  -0.328   7.092   8.407 -0.4958 -1.1139 -0.9255
  148SAPE  H13Y16380  -0.313   7.260   8.466  0.5638  0.0363 -0.0619
  148SAPE  C31416381  -0.144   7.182   8.359  0.7314  0.2066 -0.2041
  148SAPE  H14X16382  -0.100   7.266   8.301 -1.8190 -0.6016 -3.4160
  148SAPE  H14Y16383  -0.131   7.089   8.301 -0.9710  0.3503 -0.8368
  148SAPE  C31516384  -0.059   7.175   8.492 -0.3529  0.6634  0.4980
  148SAPE  H15X16385   0.041   7.153   8.448 -1.2636  0.7818 -1.6810
  148SAPE  H15Y16386  -0.094   7.090   8.554  1.0858  1.2665  2.2225
  148SAPE  C31616387  -0.058   7.304   8.571  0.0586  0.8954 -0.5581
  148SAPE  H16X16388   0.025   7.289   8.642 -1.0143 -3.3074 -0.0567
  148SAPE  H16Y16389  -0.150   7.302   8.634  0.7948  1.1320  0.5253
  148SAPE  C31716390  -0.062   7.441   8.492 -0.6021  0.1426  0.2424
  148SAPE  H17X16391  -0.152   7.450   8.427  0.3928 -0.4568 -1.2694
  148SAPE  H17Y16392   0.023   7.436   8.420 -0.5793 -2.8909  0.4208
  148SAPE  C31816393  -0.029   7.564   8.575  0.1107  0.5599 -0.1270
  148SAPE  H18X16394   0.070   7.562   8.623 -0.7808 -1.3104  1.6996
  148SAPE  H18Y16395  -0.102   7.577   8.658 -0.4853 -1.9945 -0.1980
  148SAPE  H18Z16396  -0.035   7.649   8.503 -1.0477  1.2684  0.7793
  149SAPE     N16397   6.439   0.730   6.463  0.0650 -0.5940 -0.0606
  149SAPE   HN116398   6.521   0.668   6.476  1.2793  0.7462 -1.2298
  149SAPE   HN216399   6.385   0.724   6.552  0.5201 -0.2333  0.2436
  149SAPE   HN316400   6.383   0.695   6.383 -0.7822  1.2303 -0.2807
  149SAPE   C1216401   6.501   0.868   6.435  0.5401  0.1758  0.2378
  149SAPE  H12A16402   6.508   0.870   6.324  1.1316  1.0523  0.2811
  149SAPE  H12B16403   6.600   0.878   6.485  1.3832 -1.8818 -0.9843
  149SAPE   C1116404   6.400   0.972   6.485  0.2744  0.3553  0.1573
  149SAPE  H11A16405   6.435   1.066   6.437  1.0081 -0.0712 -0.1690
  149SAPE  H11B16406   6.401   0.993   6.594  0.3743  0.6074  0.1075
  149SAPE     P16407   6.195   1.030   6.335 -0.3142 -0.0387 -0.0308
  149SAPE   O1316408   6.291   1.126   6.268 -0.5253  0.4193 -0.4599
  149SAPE   O1416409   6.123   0.949   6.233 -0.4798  0.2438 -0.2408
  149SAPE   O1216410   6.265   0.938   6.438 -0.2954 -0.3372 -0.6839
  149SAPE   O1116411   6.079   1.098   6.417 -0.0119 -0.0490  0.0631
  149SAPE    C116412   6.028   1.048   6.536  0.3206 -1.2319  0.1265
  149SAPE    HA16413   5.924   1.016   6.514  1.2521 -3.0571 -1.7873
  149SAPE    HB16414   6.080   0.955   6.567  2.4617 -0.5418 -1.2715
  149SAPE    C216415   6.034   1.152   6.657  0.1400 -0.8864 -0.1922
  149SAPE    HS16416   5.970   1.235   6.619  1.3193 -0.1679 -0.6179
  149SAPE   O2116417   6.166   1.184   6.687 -0.7596 -0.3023 -0.1047
  149SAPE   C2116418   6.202   1.310   6.683 -0.2726 -0.2501 -0.4518
  149SAPE   O2216419   6.124   1.397   6.646  0.3239 -0.4409  0.2679
  149SAPE   C2216420   6.346   1.327   6.727  0.0717 -0.6496 -1.0191
  149SAPE   H2R16421   6.365   1.246   6.801  1.2735  0.9607  0.4684
  149SAPE   H2S16422   6.408   1.301   6.639  1.4857  1.7424 -0.7744
  149SAPE    C316423   5.964   1.098   6.781  0.4674  0.1684  0.0459
  149SAPE    HX16424   5.964   1.171   6.864 -0.7231  0.9156 -0.5927
  149SAPE    HY16425   6.015   1.007   6.819  1.2427  0.3879 -0.4693
  149SAPE   O3116426   5.833   1.058   6.757 -0.8703 -1.0940 -0.4476
  149SAPE   C3116427   5.735   1.149   6.780 -0.0481 -1.3643  0.0598
  149SAPE   O3216428   5.764   1.263   6.820  0.6952  0.7643 -0.7921
  149SAPE   C3216429   5.595   1.084   6.772  0.3365 -0.2891 -0.5516
  149SAPE   H2X16430   5.612   0.979   6.739  0.4818 -0.0018 -1.3871
  149SAPE   H2Y16431   5.536   1.126   6.688 -2.5453  1.0965  2.0673
  149SAPE   C2316432   6.380   1.466   6.780 -0.3875  0.2544  0.3263
  149SAPE   H3R16433   6.349   1.550   6.714 -2.6861 -1.4368 -0.8432
  149SAPE   H3S16434   6.489   1.484   6.779 -0.6181  1.7788 -3.0364
  149SAPE   C2416435   6.352   1.491   6.922  0.9246 -0.5510 -0.2817
  149SAPE   H4R16436   6.399   1.589   6.949  0.1701 -0.3088  0.1628
  149SAPE   H4S16437   6.402   1.414   6.985  0.1983 -1.8409 -1.2663
  149SAPE   C2516438   6.204   1.510   6.958  0.0453  0.4708 -0.3586
  149SAPE   H5R16439   6.150   1.577   6.889 -0.3162  0.0204 -0.5191
  149SAPE   C2616440   6.133   1.445   7.052 -0.0106 -0.6622 -0.1132
  149SAPE   H6R16441   6.029   1.478   7.070  0.4563  0.8068 -0.0857
  149SAPE   C2716442   6.179   1.333   7.145 -0.2595 -0.4228 -0.5720
  149SAPE   H7R16443   6.111   1.322   7.232 -0.4650  0.8934 -0.5569
  149SAPE   H7S16444   6.284   1.355   7.173 -0.2063 -0.8753 -0.4070
  149SAPE   C2816445   6.179   1.199   7.078  0.0782  0.1254  0.4058
  149SAPE   H8R16446   6.204   1.202   6.971 -2.2214 -0.5136 -0.1782
  149SAPE   C2916447   6.161   1.069   7.126  0.2715 -0.7626  0.6084
  149SAPE   H9R16448   6.175   0.985   7.058  0.6682 -0.9273  0.8934
  149SAPE  C21016449   6.135   1.028   7.268 -0.2445 -0.5264  0.7402
  149SAPE  H10R16450   6.071   0.937   7.265  0.4620 -1.1667  3.4328
  149SAPE  H10S16451   6.078   1.113   7.311  0.4497  0.9700 -1.2191
  149SAPE  C21116452   6.265   1.016   7.346  0.1445 -0.6469 -0.0742
  149SAPE  H11R16453   6.344   0.954   7.301 -1.3634 -1.8990 -1.0100
  149SAPE  C21216454   6.281   1.043   7.475  0.3034 -0.2799 -0.0888
  149SAPE  H12R16455   6.374   1.014   7.524 -1.2515 -1.9783  1.9588
  149SAPE  C21316456   6.181   1.101   7.572 -0.0592  0.4448 -0.0905
  149SAPE  H13R16457   6.120   1.019   7.619  1.3418  1.1210  3.0685
  149SAPE  H13S16458   6.107   1.176   7.539 -0.6522 -0.3020 -0.4810
  149SAPE  C21416459   6.260   1.179   7.674  0.1880  0.5972  0.2306
  149SAPE  H14R16460   6.322   1.256   7.625  5.2847 -2.1030  2.0394
  149SAPE  C21516461   6.257   1.172   7.807  0.9696 -0.1177 -0.5471
  149SAPE  H15R16462   6.334   1.227   7.863  0.4356 -0.4273  0.5039
  149SAPE  C21616463   6.164   1.073   7.877 -0.0318 -0.3003 -0.2951
  149SAPE  H16R16464   6.143   0.976   7.827 -3.7170  0.2949 -0.0904
  149SAPE  H16S16465   6.066   1.124   7.886  0.3255  0.3550 -0.1274
  149SAPE  C21716466   6.220   1.027   8.016 -0.0640 -0.0067  0.0691
  149SAPE  H17R16467   6.237   1.116   8.079 -0.8136  1.3461 -1.5955
  149SAPE  H17S16468   6.324   0.993   7.998 -0.3117  0.1324 -1.7141
  149SAPE  C21816469   6.140   0.925   8.076  0.0815  0.1565  0.6697
  149SAPE  H18R16470   6.188   0.913   8.176 -0.4400  0.6422  0.9851
  149SAPE  H18S16471   6.142   0.828   8.022  1.4337  1.5690 -1.8827
  149SAPE  C21916472   5.988   0.965   8.098 -0.6732  0.5145 -0.6416
  149SAPE  H19R16473   5.932   0.954   8.003 -1.7610  0.2665  0.0083
  149SAPE  H19S16474   5.994   1.073   8.121 -3.2101  0.4842  0.3214
  149SAPE  C22016475   5.932   0.896   8.221 -0.4149 -0.5222 -0.2356
  149SAPE  H20R16476   5.870   0.811   8.184 -0.7821 -0.7798  0.9792
  149SAPE  H20S16477   5.879   0.974   8.279  0.1323  0.2208 -0.7322
  149SAPE  H20T16478   6.007   0.865   8.297 -0.2182  1.1796  0.2785
  149SAPE   C3316479   5.506   1.100   6.901 -0.1752 -0.4256  0.1779
  149SAPE   H3X16480   5.401   1.082   6.870 -0.0004 -1.2891  0.0855
  149SAPE   H3Y16481   5.523   1.203   6.939 -2.4027  0.3776 -0.9345
  149SAPE   C3416482   5.544   0.996   7.005  0.7094  0.3872  0.7844
  149SAPE   H4X16483   5.653   1.008   7.026  0.2756 -1.1658  4.2741
  149SAPE   H4Y16484   5.537   0.888   6.979  0.4307  0.5819  0.0430
  149SAPE   C3516485   5.475   1.019   7.139 -0.1415 -0.1586 -0.2831
  149SAPE   H5X16486   5.365   1.006   7.141 -0.0821 -1.2542 -2.4666
  149SAPE   H5Y16487   5.495   1.127   7.158  0.8966  0.0039 -2.2072
  149SAPE   C3616488   5.539   0.938   7.248 -0.3314 -0.3352  0.6006
  149SAPE   H6X16489   5.646   0.968   7.244  0.0224 -1.7663 -1.0279
  149SAPE   H6Y16490   5.530   0.830   7.227  1.1943 -0.1556 -1.0576
  149SAPE   C3716491   5.475   0.977   7.382 -0.0651 -0.5776 -0.6532
  149SAPE   H7X16492   5.371   0.938   7.389 -0.5106  0.9429  1.4813
  149SAPE   H7Y16493   5.463   1.087   7.397 -0.8737 -0.8838  0.9787
  149SAPE   C3816494   5.547   0.911   7.507  0.2218  0.1311 -0.1856
  149SAPE   H8X16495   5.651   0.950   7.501  0.6672 -1.0561 -0.2174
  149SAPE   H8Y16496   5.543   0.801   7.492  2.8068  0.1898 -1.6202
  149SAPE   C3916497   5.503   0.962   7.644  0.7572 -0.0628  0.7617
  149SAPE   H9X16498   5.399   0.935   7.672  0.0731  0.8419 -0.8330
  149SAPE   H9Y16499   5.503   1.073   7.643  1.3746 -0.0693 -1.5917
  149SAPE  C31016500   5.597   0.925   7.756  0.9476 -0.0104 -0.5242
  149SAPE  H10X16501   5.701   0.955   7.730  0.1443  1.4983 -2.1878
  149SAPE  H10Y16502   5.588   0.815   7.758  0.6816  0.0117 -0.4377
  149SAPE  C31116503   5.545   0.990   7.883 -0.1980 -0.2512 -0.0898
  149SAPE  H11X16504   5.440   0.957   7.900  0.1748 -0.7522  1.3499
  149SAPE  H11Y16505   5.543   1.101   7.879 -2.2404 -0.1838  1.8670
  149SAPE  C31216506   5.615   0.957   8.005 -0.0357  0.4932 -0.0607
  149SAPE  H12X16507   5.584   1.030   8.083  0.9287  1.5967 -0.6910
  149SAPE  H12Y16508   5.724   0.971   7.986  0.0477 -2.4628 -2.0742
  149SAPE  C31316509   5.576   0.825   8.072  0.1947 -0.1569  0.3984
  149SAPE  H13X16510   5.655   0.787   8.140 -1.2724  0.3390  2.4294
  149SAPE  H13Y16511   5.568   0.759   7.983  1.3496 -1.1768  1.0451
  149SAPE  C31416512   5.448   0.816   8.162  0.7558  1.2517 -0.1650
  149SAPE  H14X16513   5.418   0.716   8.199  1.0943  1.4107  0.5304
  149SAPE  H14Y16514   5.365   0.866   8.106  0.0813  0.6431  0.2873
  149SAPE  C31516515   5.462   0.888   8.296 -0.5536 -0.0076 -0.1593
  149SAPE  H15X16516   5.464   0.992   8.257 -0.2141  1.0696  2.6143
  149SAPE  H15Y16517   5.560   0.874   8.345  0.0859  2.9684 -0.4789
  149SAPE  C31616518   5.342   0.883   8.396 -0.0058 -0.4715  0.2478
  149SAPE  H16X16519   5.366   0.963   8.469  3.6234 -0.9469 -0.3133
  149SAPE  H16Y16520   5.337   0.781   8.439 -0.9512 -0.7732 -0.5781
  149SAPE  C31716521   5.209   0.908   8.333 -0.2865 -0.0334 -0.2857
  149SAPE  H17X16522   5.188   0.834   8.253  0.9506 -2.5332  1.6755
  149SAPE  H17Y16523   5.207   1.008   8.284 -0.5565  0.2414  0.2773
  149SAPE  C31816524   5.097   0.895   8.437 -0.3272  0.3186  0.4742
  149SAPE  H18X16525   5.069   0.790   8.457 -0.6810  0.2097 -0.5619
  149SAPE  H18Y16526   5.006   0.939   8.391 -0.2915 -0.2492 -0.1321
  149SAPE  H18Z16527   5.106   0.954   8.531  1.9728  3.2526 -1.5020
  150SAPE     N16528   4.890   2.545   6.223 -0.3921  0.5162  0.0242
  150SAPE   HN116529   4.856   2.641   6.246  1.0163  0.7325  1.2633
  150SAPE   HN216530   4.989   2.553   6.190  0.2204 -0.1571  1.6209
  150SAPE   HN316531   4.843   2.497   6.144  0.9272  1.1897 -1.2162
  150SAPE   C1216532   4.897   2.448   6.344  0.2278  0.2758  0.0333
  150SAPE  H12A16533   4.984   2.477   6.407 -1.0343  0.2700  1.7836
  150SAPE  H12B16534   4.900   2.346   6.300 -1.5090  0.2235 -0.0115
  150SAPE   C1116535   4.765   2.456   6.413  0.7941  0.6604 -0.1433
  150SAPE  H11A16536   4.751   2.557   6.456  0.9037  0.1071  1.2373
  150SAPE  H11B16537   4.777   2.383   6.496  0.2785  1.2738  0.4830
  150SAPE     P16538   4.511   2.392   6.407  0.8679 -0.1879 -0.5588
  150SAPE   O1316539   4.456   2.506   6.474 -0.5541 -0.3934 -0.4168
  150SAPE   O1416540   4.418   2.344   6.307  0.2399 -0.2213  0.0396
  150SAPE   O1216541   4.652   2.429   6.335 -0.1835 -0.2428  0.2018
  150SAPE   O1116542   4.543   2.274   6.507  0.3483 -0.3395 -0.4601
  150SAPE    C116543   4.528   2.291   6.647  0.2069 -0.4276  0.2505
  150SAPE    HA16544   4.555   2.392   6.685  1.7037  0.0881 -2.1052
  150SAPE    HB16545   4.427   2.273   6.689 -0.0296  2.1288  0.9143
  150SAPE    C216546   4.612   2.198   6.726  0.3247 -0.3250 -0.6401
  150SAPE    HS16547   4.565   2.195   6.827  0.5193  2.0094 -0.4388
  150SAPE   O2116548   4.750   2.247   6.727  0.1454  0.4185  0.3686
  150SAPE   C2116549   4.815   2.250   6.837 -0.0762 -0.5048 -0.8512
  150SAPE   O2216550   4.767   2.216   6.948 -0.3121 -0.4372  0.0227
  150SAPE   C2216551   4.940   2.334   6.814  0.0379 -0.1378  1.1268
  150SAPE   H2R16552   5.018   2.261   6.785 -0.2969  0.0246 -0.1764
  150SAPE   H2S16553   4.923   2.404   6.730  3.9774 -1.0687 -0.5400
  150SAPE    C316554   4.615   2.052   6.670  0.6360  0.1849  0.5796
  150SAPE    HX16555   4.645   2.059   6.563  0.5933  1.4793  0.6451
  150SAPE    HY16556   4.512   2.013   6.664  0.1665  1.6035 -1.3006
  150SAPE   O3116557   4.705   1.958   6.738  0.3009 -0.9849  0.0790
  150SAPE   C3116558   4.831   1.940   6.700  0.6907  0.4268  0.1710
  150SAPE   O3216559   4.885   2.003   6.609  0.9530 -0.1404 -0.0511
  150SAPE   C3216560   4.893   1.827   6.783 -0.9549 -0.2182 -0.1949
  150SAPE   H2X16561   4.996   1.818   6.742 -0.5808  1.1709  0.4247
  150SAPE   H2Y16562   4.839   1.734   6.756  0.8031 -1.2138 -0.3383
  150SAPE   C2316563   4.975   2.406   6.945 -0.5248  0.4249  0.7682
  150SAPE   H3R16564   5.016   2.343   7.027  0.7048  2.9175  2.1240
  150SAPE   H3S16565   4.882   2.453   6.985 -0.1200  2.2622 -0.3930
  150SAPE   C2416566   5.081   2.510   6.910 -0.5953 -0.1172 -0.0802
  150SAPE   H4R16567   5.057   2.586   6.987  1.0067 -0.3077  0.6369
  150SAPE   H4S16568   5.061   2.563   6.815  0.7871  0.6877  0.0576
  150SAPE   C2516569   5.221   2.462   6.920 -0.3205 -1.0541  0.3160
  150SAPE   H5R16570   5.260   2.420   6.826  1.9123 -0.5517  0.9939
  150SAPE   C2616571   5.306   2.470   7.026  0.9009  0.0809 -0.2542
  150SAPE   H6R16572   5.407   2.427   7.024 -0.2519 -2.6888 -0.7748
  150SAPE   C2716573   5.263   2.519   7.164  0.9199  0.1712 -0.5614
  150SAPE   H7R16574   5.273   2.439   7.241 -0.5961 -1.2214 -1.7934
  150SAPE   H7S16575   5.164   2.568   7.155  1.7117  1.6257 -1.6232
  150SAPE   C2816576   5.356   2.640   7.184  0.5287 -0.2475  0.7518
  150SAPE   H8R16577   5.331   2.724   7.118  0.4101 -0.5940  0.3561
  150SAPE   C2916578   5.457   2.662   7.276 -0.2179  1.3196 -1.3334
  150SAPE   H9R16579   5.515   2.755   7.267 -0.4058  1.4761 -0.9264
  150SAPE  C21016580   5.497   2.565   7.391  0.5589 -0.1360  0.5343
  150SAPE  H10R16581   5.587   2.602   7.444  1.2801 -0.5784 -0.3730
  150SAPE  H10S16582   5.524   2.468   7.345  1.4865  0.2187  0.3216
  150SAPE  C21116583   5.384   2.544   7.493  0.0674 -0.0869  0.1225
  150SAPE  H11R16584   5.284   2.536   7.447 -0.0084 -0.7144  0.3975
  150SAPE  C21216585   5.387   2.528   7.626 -0.2509  0.4381 -0.0121
  150SAPE  H12R16586   5.298   2.519   7.689 -1.5159  2.7104 -1.3940
  150SAPE  C21316587   5.509   2.523   7.710  0.3877  0.1327 -0.2109
  150SAPE  H13R16588   5.601   2.504   7.651  1.0768  0.1422  0.8444
  150SAPE  H13S16589   5.500   2.428   7.768 -0.0886  1.5027  2.0045
  150SAPE  C21416590   5.537   2.633   7.804  0.2901 -0.1604 -0.9351
  150SAPE  H14R16591   5.607   2.710   7.769 -0.1334  0.7207  0.1413
  150SAPE  C21516592   5.484   2.632   7.933 -0.3103 -0.1370  0.5817
  150SAPE  H15R16593   5.511   2.721   7.992 -1.1138  0.8116 -0.4713
  150SAPE  C21616594   5.397   2.523   7.996  0.1981  0.0504  0.7492
  150SAPE  H16R16595   5.332   2.474   7.921 -0.2061  2.0309 -0.2271
  150SAPE  H16S16596   5.329   2.573   8.069  2.2737  1.0604  2.0359
  150SAPE  C21716597   5.464   2.408   8.074  0.1257 -0.5069  0.2189
  150SAPE  H17R16598   5.498   2.331   8.002 -3.1471 -2.0042  0.1952
  150SAPE  H17S16599   5.382   2.357   8.128  0.1872  0.1507  0.9526
  150SAPE  C21816600   5.571   2.461   8.176  0.1452 -0.5974 -0.2166
  150SAPE  H18R16601   5.640   2.529   8.122 -1.8112  1.6305  0.0173
  150SAPE  H18S16602   5.639   2.384   8.219  0.4966 -0.4644 -0.5298
  150SAPE  C21916603   5.517   2.546   8.292  0.0961 -0.0003  0.3703
  150SAPE  H19R16604   5.444   2.489   8.354 -1.2313  0.7933 -0.4407
  150SAPE  H19S16605   5.455   2.626   8.247 -1.2639 -0.1335  1.9599
  150SAPE  C22016606   5.631   2.597   8.372 -0.6877  0.0918  0.0827
  150SAPE  H20R16607   5.687   2.511   8.414 -1.3082 -0.1465  0.4330
  150SAPE  H20S16608   5.590   2.664   8.451  1.0395 -0.0983  1.1677
  150SAPE  H20T16609   5.695   2.671   8.320 -1.5014  0.9483  0.2867
  150SAPE   C3316610   4.883   1.836   6.940 -0.8142 -0.2502 -0.3601
  150SAPE   H3X16611   4.924   1.740   6.980 -0.5628  0.1848  0.4453
  150SAPE   H3Y16612   4.776   1.849   6.967 -0.5538 -2.5907  1.9958
  150SAPE   C3416613   4.963   1.945   7.009 -0.3362  0.5756  0.1037
  150SAPE   H4X16614   4.922   1.942   7.113 -0.8418  2.7592  0.0051
  150SAPE   H4Y16615   4.933   2.044   6.969  0.7873  1.0399  0.3944
  150SAPE   C3516616   5.115   1.932   7.003  0.0774  0.3598  0.1812
  150SAPE   H5X16617   5.154   1.934   6.898  1.6261  1.3102  0.7515
  150SAPE   H5Y16618   5.141   1.832   7.042  1.1619  1.0675  1.3042
  150SAPE   C3616619   5.191   2.052   7.070 -0.3348 -0.1795  0.8825
  150SAPE   H6X16620   5.145   2.144   7.028  1.2306  1.4352  2.6057
  150SAPE   H6Y16621   5.297   2.043   7.040 -0.3194 -0.0311  0.8946
  150SAPE   C3716622   5.185   2.043   7.222  0.0770  0.4609 -0.1235
  150SAPE   H7X16623   5.232   1.944   7.243  0.1548  0.9466  2.1305
  150SAPE   H7Y16624   5.081   2.042   7.261 -0.6232 -0.4322 -1.9426
  150SAPE   C3816625   5.260   2.148   7.297  0.2189 -0.1817 -0.6894
  150SAPE   H8X16626   5.198   2.240   7.294  1.6235  0.7810 -0.7951
  150SAPE   H8Y16627   5.356   2.171   7.245  0.8058 -2.7286 -0.8024
  150SAPE   C3916628   5.289   2.110   7.446  0.1318 -0.6350  1.3703
  150SAPE   H9X16629   5.225   2.032   7.493 -0.1192 -1.1699  0.1511
  150SAPE   H9Y16630   5.282   2.200   7.510 -2.2496 -0.5634  1.0645
  150SAPE  C31016631   5.431   2.056   7.466 -0.6291  0.4654 -0.0599
  150SAPE  H10X16632   5.499   2.127   7.414  0.6335  1.0280  2.2774
  150SAPE  H10Y16633   5.443   1.967   7.400  2.4252 -0.2800  1.4105
  150SAPE  C31116634   5.457   2.004   7.608  0.8976  0.3474 -0.4369
  150SAPE  H11X16635   5.560   1.963   7.609 -0.0614 -2.1331 -0.8767
  150SAPE  H11Y16636   5.389   1.918   7.627  2.3983 -0.9246 -0.7124
  150SAPE  C31216637   5.445   2.103   7.718  0.1684 -0.2844  0.5279
  150SAPE  H12X16638   5.351   2.162   7.713 -0.4444 -0.9634  3.1152
  150SAPE  H12Y16639   5.527   2.176   7.703 -0.3467  0.1499 -0.2346
  150SAPE  C31316640   5.461   2.040   7.862 -0.1245 -0.0668  0.3447
  150SAPE  H13X16641   5.386   1.960   7.872 -1.3171  0.9779 -0.0935
  150SAPE  H13Y16642   5.436   2.117   7.938  0.5771  0.8790 -0.3603
  150SAPE  C31416643   5.604   1.970   7.883  0.0867 -0.0223 -0.2945
  150SAPE  H14X16644   5.682   2.033   7.836 -0.1184 -0.3382 -1.0682
  150SAPE  H14Y16645   5.611   1.867   7.842  0.3410 -0.5640  1.0935
  150SAPE  C31516646   5.639   1.955   8.034  0.5133 -0.2106 -0.2488
  150SAPE  H15X16647   5.563   1.897   8.090 -0.5167  0.2640 -1.1417
  150SAPE  H15Y16648   5.639   2.054   8.084 -4.2301  0.4403 -1.3052
  150SAPE  C31616649   5.775   1.899   8.074  0.2747  0.3971 -0.7686
  150SAPE  H16X16650   5.864   1.929   8.016  2.1360  0.5530  2.0719
  150SAPE  H16Y16651   5.764   1.790   8.051  0.0364  0.6361 -1.8001
  150SAPE  C31716652   5.809   1.912   8.222  0.5037 -1.0350 -0.4343
  150SAPE  H17X16653   5.888   1.841   8.255 -0.2516 -0.7501  2.0790
  150SAPE  H17Y16654   5.719   1.881   8.280 -0.7421  3.8271  0.3982
  150SAPE  C31816655   5.847   2.054   8.261 -0.3141  0.2480 -0.1012
  150SAPE  H18X16656   5.943   2.089   8.217 -1.2200  0.4489 -1.9872
  150SAPE  H18Y16657   5.859   2.061   8.371  1.3212 -1.8509 -0.1125
  150SAPE  H18Z16658   5.762   2.118   8.229  0.1896  0.6000 -0.7683
  151SAPE     N16659   0.157   6.022   6.480  0.1027 -0.4074 -0.2705
  151SAPE   HN116660   0.133   5.997   6.381  0.7097 -0.1540 -0.4849
  151SAPE   HN216661   0.077   6.008   6.544  0.6311  1.6855  0.8940
  151SAPE   HN316662   0.175   6.124   6.486 -1.7465 -0.1685  1.6278
  151SAPE   C1216663   0.277   5.952   6.537  0.1480  0.0020  0.3189
  151SAPE  H12A16664   0.261   5.842   6.536 -1.5359  0.2466  0.2514
  151SAPE  H12B16665   0.293   6.000   6.636 -0.1699 -0.3744  0.5539
  151SAPE   C1116666   0.401   5.996   6.463  0.3490 -0.4312  0.1847
  151SAPE  H11A16667   0.485   5.939   6.508 -0.2963 -1.0775  0.5781
  151SAPE  H11B16668   0.419   6.103   6.484 -2.2240 -0.2550  1.7565
  151SAPE     P16669   0.504   5.967   6.217  0.0501 -0.1963 -0.2442
  151SAPE   O1316670   0.532   5.832   6.185 -0.4217 -0.8539  0.1542
  151SAPE   O1416671   0.466   6.056   6.110 -0.1443 -0.3199  0.7167
  151SAPE   O1216672   0.381   5.972   6.322 -0.3199 -0.2344  0.0101
  151SAPE   O1116673   0.622   6.023   6.303  0.5973 -0.5968  0.1392
  151SAPE    C116674   0.644   6.162   6.310  0.1727 -0.1166  0.7063
  151SAPE    HA16675   0.679   6.191   6.209 -0.7039 -3.2120 -0.5428
  151SAPE    HB16676   0.551   6.218   6.332 -1.2975 -2.3774  0.2890
  151SAPE    C216677   0.753   6.204   6.415 -0.0880 -0.3250 -0.2531
  151SAPE    HS16678   0.838   6.139   6.385 -0.6944 -1.4397  0.4058
  151SAPE   O2116679   0.697   6.194   6.551  0.2537  0.3102  0.8519
  151SAPE   C2116680   0.753   6.095   6.615 -0.2202 -0.3794  0.6888
  151SAPE   O2216681   0.825   6.010   6.568 -1.0530  0.4425 -0.0604
  151SAPE   C2216682   0.727   6.104   6.768  0.1097  0.0480  0.0777
  151SAPE   H2R16683   0.617   6.105   6.787  0.4925  1.0008  2.4609
  151SAPE   H2S16684   0.769   6.013   6.816  1.3738 -1.3926 -3.6444
  151SAPE    C316685   0.794   6.354   6.384 -0.4340 -0.0712  0.0763
  151SAPE    HX16686   0.700   6.413   6.371 -0.7625  0.4326  4.2631
  151SAPE    HY16687   0.844   6.357   6.285 -2.6333  0.3138 -1.0684
  151SAPE   O3116688   0.880   6.409   6.482 -0.1223  0.1252  0.5384
  151SAPE   C3116689   0.860   6.539   6.509  0.0649  0.6626  0.3026
  151SAPE   O3216690   0.766   6.607   6.474 -0.0901  0.3099  0.5240
  151SAPE   C3216691   0.978   6.591   6.592  0.0304 -0.2245 -0.1188
  151SAPE   H2X16692   1.031   6.667   6.530 -0.4186  0.1400 -0.0635
  151SAPE   H2Y16693   1.038   6.500   6.611 -0.8839 -0.7115  0.4744
  151SAPE   C2316694   0.791   6.224   6.826 -0.0439  0.6060 -0.2515
  151SAPE   H3R16695   0.746   6.309   6.771  0.1604  1.2898  0.6402
  151SAPE   H3S16696   0.899   6.235   6.803  0.0164  0.7633  0.1102
  151SAPE   C2416697   0.781   6.229   6.981 -0.6354  0.1342  0.3850
  151SAPE   H4R16698   0.845   6.315   7.008 -0.8744  0.7408 -0.9578
  151SAPE   H4S16699   0.825   6.135   7.022  2.3084  0.4790 -1.8684
  151SAPE   C2516700   0.640   6.252   7.033  0.2260 -0.4836 -0.2373
  151SAPE   H5R16701   0.571   6.276   6.951 -0.7451 -1.1685  0.3691
  151SAPE   C2616702   0.602   6.257   7.166 -0.0428  0.6470 -0.1005
  151SAPE   H6R16703   0.496   6.282   7.184 -0.5688 -1.0956 -0.6875
  151SAPE   C2716704   0.695   6.241   7.281 -0.2739 -0.2789  0.3316
  151SAPE   H7R16705   0.731   6.340   7.314 -0.8261 -0.2433  0.8326
  151SAPE   H7S16706   0.785   6.187   7.244  0.7973 -0.2589  2.8198
  151SAPE   C2816707   0.628   6.157   7.389 -0.1293 -0.0554  0.0400
  151SAPE   H8R16708   0.609   6.055   7.354 -1.5977 -0.8255  2.8538
  151SAPE   C2916709   0.613   6.190   7.526  0.3493  0.4614  0.6963
  151SAPE   H9R16710   0.566   6.119   7.595 -1.7093  1.3605  0.2587
  151SAPE  C21016711   0.654   6.309   7.600  0.5261 -0.1198  0.4116
  151SAPE  H10R16712   0.567   6.365   7.639 -0.1902  0.6275 -2.1376
  151SAPE  H10S16713   0.682   6.392   7.530 -2.2205  0.7571  0.3220
  151SAPE  C21116714   0.756   6.298   7.711 -0.5360 -0.4740 -0.0349
  151SAPE  H11R16715   0.858   6.336   7.690 -0.3896  1.0729  3.2483
  151SAPE  C21216716   0.741   6.268   7.840  0.5820 -0.1693 -0.1591
  151SAPE  H12R16717   0.826   6.267   7.910 -0.2194  0.0186  0.8333
  151SAPE  C21316718   0.613   6.231   7.906  1.1797  0.0267 -0.5232
  151SAPE  H13R16719   0.638   6.154   7.982 -0.7691  0.8370  0.9958
  151SAPE  H13S16720   0.541   6.186   7.834 -0.3406  2.0605 -0.3444
  151SAPE  C21416721   0.530   6.351   7.962  0.4691  0.8730 -0.0587
  151SAPE  H14R16722   0.446   6.382   7.898 -1.2340 -1.7841  0.8089
  151SAPE  C21516723   0.548   6.420   8.077 -0.1590 -0.4963 -0.1781
  151SAPE  H15R16724   0.475   6.497   8.105 -1.4063 -1.8867  0.4086
  151SAPE  C21616725   0.655   6.392   8.179  1.0047  0.2003 -0.0232
  151SAPE  H16R16726   0.752   6.415   8.131  0.6662 -0.0817 -0.8517
  151SAPE  H16S16727   0.665   6.282   8.187  3.3922  0.3836 -0.0949
  151SAPE  C21716728   0.632   6.452   8.317 -0.0439  0.3857 -0.0581
  151SAPE  H17R16729   0.527   6.443   8.354 -0.4535 -2.1911 -1.7070
  151SAPE  H17S16730   0.658   6.560   8.326  1.4860 -0.0102  0.3432
  151SAPE  C21816731   0.745   6.396   8.408 -0.0430  0.3804  0.7651
  151SAPE  H18R16732   0.847   6.421   8.374 -0.2704  0.1300 -0.1172
  151SAPE  H18S16733   0.741   6.285   8.400  0.9810  0.4377 -0.7823
  151SAPE  C21916734   0.732   6.423   8.554 -0.3469 -0.0304 -0.4033
  151SAPE  H19R16735   0.749   6.531   8.577 -0.2977  0.3589 -2.1784
  151SAPE  H19S16736   0.797   6.354   8.612 -2.1964 -2.2695 -0.9033
  151SAPE  C22016737   0.594   6.388   8.605 -0.1634  0.7343 -0.1781
  151SAPE  H20R16738   0.585   6.384   8.715  4.7861 -5.1071  0.2546
  151SAPE  H20S16739   0.515   6.453   8.562 -0.4737 -1.0352 -2.4360
  151SAPE  H20T16740   0.572   6.285   8.569  2.6653 -0.4783  1.4961
  151SAPE   C3316741   0.939   6.667   6.723 -0.2025 -0.3307 -0.4234
  151SAPE   H3X16742   0.854   6.736   6.706 -2.0939 -2.3169  0.6142
  151SAPE   H3Y16743   1.015   6.744   6.747  0.9928 -1.2329 -1.2285
  151SAPE   C3416744   0.912   6.577   6.842 -0.1896  0.6773 -0.2650
  151SAPE   H4X16745   0.982   6.491   6.842  0.7839  1.4500 -1.2649
  151SAPE   H4Y16746   0.809   6.535   6.838 -0.3189  0.6978  2.1315
  151SAPE   C3516747   0.917   6.647   6.976 -0.1938 -0.2707  0.2720
  151SAPE   H5X16748   0.813   6.671   7.008 -0.0876 -1.0308  1.2226
  151SAPE   H5Y16749   0.970   6.742   6.957 -0.0895 -0.6299 -1.2528
  151SAPE   C3616750   0.980   6.571   7.099 -0.2738 -0.1808 -0.3248
  151SAPE   H6X16751   1.090   6.589   7.092 -0.0226 -0.9502  1.4579
  151SAPE   H6Y16752   0.964   6.461   7.090 -3.8572  0.2337  0.3526
  151SAPE   C3716753   0.920   6.612   7.237 -0.6794  0.2758 -0.3746
  151SAPE   H7X16754   0.809   6.601   7.242 -0.5546  0.3138  4.0284
  151SAPE   H7Y16755   0.934   6.722   7.247 -0.0052  0.1939 -0.4459
  151SAPE   C3816756   0.996   6.560   7.363 -0.3084 -0.5064  1.2726
  151SAPE   H8X16757   1.106   6.563   7.350 -0.6664  0.5742 -1.9466
  151SAPE   H8Y16758   0.970   6.453   7.383 -1.8759 -0.1963  0.9322
  151SAPE   C3916759   0.955   6.623   7.495 -0.2428  0.9212  0.5062
  151SAPE   H9X16760   0.847   6.596   7.500 -0.9825  3.1810 -2.3672
  151SAPE   H9Y16761   0.972   6.732   7.495 -2.3030  1.2476 -0.1071
  151SAPE  C31016762   1.031   6.556   7.612 -0.5107 -0.5552  0.0213
  151SAPE  H10X16763   1.139   6.580   7.604 -0.5039 -0.9124 -1.0378
  151SAPE  H10Y16764   1.038   6.446   7.602  0.6492 -0.5116  0.3009
  151SAPE  C31116765   0.975   6.613   7.743 -0.4628 -0.3230 -0.0666
  151SAPE  H11X16766   0.865   6.602   7.746 -0.6760  1.8813  1.2568
  151SAPE  H11Y16767   0.996   6.721   7.756  0.1899 -0.6550  1.8760
  151SAPE  C31216768   1.023   6.538   7.870  0.4045 -0.1792 -1.2108
  151SAPE  H12X16769   1.132   6.518   7.876  0.4809  0.6595  0.4370
  151SAPE  H12Y16770   0.974   6.439   7.862  0.1560 -0.0743 -1.0085
  151SAPE  C31316771   0.983   6.608   7.999  0.1086 -0.6188  0.2579
  151SAPE  H13X16772   0.876   6.589   8.023  0.2435  2.0592  3.3102
  151SAPE  H13Y16773   0.995   6.718   7.995  1.4697 -0.8190 -2.4537
  151SAPE  C31416774   1.071   6.553   8.117  0.4798 -0.1309 -0.3868
  151SAPE  H14X16775   1.177   6.553   8.083  0.4831 -3.8225 -0.4834
  151SAPE  H14Y16776   1.048   6.447   8.139 -0.6372  0.1484 -0.1608
  151SAPE  C31516777   1.066   6.633   8.242 -0.2946 -0.2276 -0.3939
  151SAPE  H15X16778   0.960   6.651   8.267  0.2888  0.0605  2.0811
  151SAPE  H15Y16779   1.116   6.732   8.240 -0.3589 -0.1769  0.3016
  151SAPE  C31616780   1.118   6.555   8.363  0.0313  0.0201  0.8925
  151SAPE  H16X16781   1.224   6.528   8.344 -0.6765 -2.1554 -0.0923
  151SAPE  H16Y16782   1.066   6.457   8.368 -1.0804  0.5217 -0.4399
  151SAPE  C31716783   1.097   6.637   8.493 -0.1356  0.1764  0.0663
  151SAPE  H17X16784   0.996   6.679   8.512  0.8399  2.2844  0.7076
  151SAPE  H17Y16785   1.172   6.718   8.484 -2.0454  1.9204 -0.5890
  151SAPE  C31816786   1.124   6.554   8.621 -0.0507  0.0738  0.3052
  151SAPE  H18X16787   1.040   6.486   8.646  0.5192 -0.3169  1.1949
  151SAPE  H18Y16788   1.152   6.621   8.705  0.3472  1.1960 -0.7158
  151SAPE  H18Z16789   1.208   6.485   8.599  0.9172  1.1970  0.4270
  152SAPE     N16790   4.357   3.656   6.029  0.0960  0.5044  0.3698
  152SAPE   HN116791   4.289   3.694   5.960  1.7791  1.0721 -1.0046
  152SAPE   HN216792   4.417   3.586   5.981  0.4520  0.2228  1.2178
  152SAPE   HN316793   4.312   3.609   6.110 -0.7205  0.5271 -0.0596
  152SAPE   C1216794   4.431   3.762   6.108 -0.3168  0.3303 -0.1788
  152SAPE  H12A16795   4.377   3.762   6.205  0.7230 -4.4769  0.5096
  152SAPE  H12B16796   4.419   3.862   6.061  0.3753  1.0758  1.2213
  152SAPE   C1116797   4.581   3.723   6.122  0.5512 -0.8927 -0.5862
  152SAPE  H11A16798   4.623   3.790   6.200  0.9874 -0.3020 -1.3254
  152SAPE  H11B16799   4.612   3.739   6.017 -2.1843 -0.2216 -1.3456
  152SAPE     P16800   4.737   3.538   6.226  0.1288 -0.5325 -0.3613
  152SAPE   O1316801   4.735   3.392   6.240 -0.2412  0.0946  0.1870
  152SAPE   O1416802   4.855   3.603   6.168 -0.6873 -0.1581 -0.1382
  152SAPE   O1216803   4.606   3.591   6.159  0.3361 -0.4492 -0.0282
  152SAPE   O1116804   4.741   3.605   6.369  0.5634  0.3466 -0.4502
  152SAPE    C116805   4.624   3.610   6.448  0.9577  0.3295  0.6699
  152SAPE    HA16806   4.601   3.717   6.464 -0.4866  0.5353 -2.3403
  152SAPE    HB16807   4.523   3.582   6.410  0.8805  0.6280  0.6542
  152SAPE    C216808   4.642   3.538   6.579 -0.0581 -0.4761  0.0139
  152SAPE    HS16809   4.550   3.566   6.635  0.5840  4.0710 -0.9648
  152SAPE   O2116810   4.761   3.578   6.651  0.7650  0.5883  0.1570
  152SAPE   C2116811   4.763   3.703   6.689 -1.0283 -0.1543 -1.5213
  152SAPE   O2216812   4.669   3.783   6.686  0.4155  0.1697 -0.0177
  152SAPE   C2216813   4.900   3.724   6.760 -0.1095 -0.0952  0.0440
  152SAPE   H2R16814   4.936   3.626   6.799  3.8239  1.3141  0.1632
  152SAPE   H2S16815   4.969   3.761   6.682 -0.3527 -0.1708 -0.2107
  152SAPE    C316816   4.639   3.382   6.562  0.3142 -0.3622  0.3758
  152SAPE    HX16817   4.739   3.351   6.524  0.0440 -0.2688 -0.4254
  152SAPE    HY16818   4.558   3.360   6.489  0.7097  1.1646 -0.5455
  152SAPE   O3116819   4.596   3.312   6.684  0.5546 -0.3393  0.1290
  152SAPE   C3116820   4.699   3.288   6.763 -0.1728 -0.2768  0.4045
  152SAPE   O3216821   4.814   3.303   6.729 -0.2387  0.7028  0.0003
  152SAPE   C3216822   4.656   3.243   6.904  0.7231  0.5038  0.0030
  152SAPE   H2X16823   4.657   3.132   6.903 -0.8574  0.4784  0.4385
  152SAPE   H2Y16824   4.564   3.294   6.937  0.7941  0.8424 -0.3093
  152SAPE   C2316825   4.891   3.816   6.885  0.0259  0.6399  0.7040
  152SAPE   H3R16826   4.839   3.907   6.850 -0.1089 -0.4031 -1.9529
  152SAPE   H3S16827   4.993   3.853   6.912 -0.7324  1.5577  2.4147
  152SAPE   C2416828   4.815   3.758   7.003 -0.6018 -0.8997 -0.0367
  152SAPE   H4R16829   4.708   3.741   6.976 -1.1119 -4.3439  3.6105
  152SAPE   H4S16830   4.813   3.839   7.079 -4.0597 -0.3439 -0.6452
  152SAPE   C2516831   4.870   3.633   7.074  0.4232 -0.4318 -0.4190
  152SAPE   H5R16832   4.939   3.582   7.005  2.4071  0.3091  0.9693
  152SAPE   C2616833   4.851   3.608   7.207  0.3507  0.0829 -0.3924
  152SAPE   H6R16834   4.904   3.519   7.246  0.1718 -0.3246 -1.0752
  152SAPE   C2716835   4.779   3.686   7.314 -0.4847 -0.1970  0.7162
  152SAPE   H7R16836   4.723   3.612   7.375 -0.7915 -1.0388 -0.5623
  152SAPE   H7S16837   4.711   3.757   7.264 -1.9292 -1.3778  0.9910
  152SAPE   C2816838   4.883   3.773   7.393 -0.3106  0.0368 -0.1717
  152SAPE   H8R16839   4.965   3.829   7.346 -0.4480  0.9135  0.6147
  152SAPE   C2916840   4.861   3.805   7.516  0.0684 -0.0163  0.1444
  152SAPE   H9R16841   4.928   3.878   7.564 -0.9165  0.6559  0.5318
  152SAPE  C21016842   4.739   3.773   7.601 -0.4847 -0.3301  0.7352
  152SAPE  H10R16843   4.649   3.748   7.542 -0.9083  0.0750  1.2053
  152SAPE  H10S16844   4.717   3.866   7.657  2.6866  1.0355 -0.1701
  152SAPE  C21116845   4.765   3.660   7.695  0.6868  0.0842 -0.6431
  152SAPE  H11R16846   4.833   3.580   7.660 -0.8247 -0.8420 -1.5295
  152SAPE  C21216847   4.703   3.652   7.815  0.4841  0.0394  0.3275
  152SAPE  H12R16848   4.740   3.580   7.889  0.7101 -2.0668 -1.7823
  152SAPE  C21316849   4.614   3.752   7.880 -0.1798  0.2934 -0.6342
  152SAPE  H13R16850   4.563   3.814   7.803 -2.4161 -0.6759  0.0272
  152SAPE  H13S16851   4.676   3.827   7.934  1.9036 -0.8468 -1.3916
  152SAPE  C21416852   4.510   3.687   7.964 -0.3990  1.1356  0.1027
  152SAPE  H14R16853   4.410   3.680   7.920 -1.4634 -0.2013  2.5942
  152SAPE  C21516854   4.514   3.632   8.087 -0.0793  0.3652  0.1981
  152SAPE  H15R16855   4.422   3.605   8.141 -1.1622  0.8967 -1.3532
  152SAPE  C21616856   4.642   3.621   8.164 -0.1280  0.2729 -0.5547
  152SAPE  H16R16857   4.737   3.634   8.107  0.3661  1.0313  0.4233
  152SAPE  H16S16858   4.649   3.513   8.186 -1.3367 -0.0075 -1.4557
  152SAPE  C21716859   4.652   3.706   8.291 -0.1565 -0.0451 -0.2416
  152SAPE  H17R16860   4.752   3.686   8.335 -0.6097 -2.8966 -0.4040
  152SAPE  H17S16861   4.567   3.697   8.362 -0.1751 -0.0846 -0.2702
  152SAPE  C21816862   4.662   3.856   8.252  0.1212  0.2389 -0.0305
  152SAPE  H18R16863   4.578   3.873   8.181 -0.5205  0.4805  0.7837
  152SAPE  H18S16864   4.759   3.875   8.202 -0.4036  2.9323 -0.1422
  152SAPE  C21916865   4.652   3.951   8.372 -0.0082  0.3113 -0.2760
  152SAPE  H19R16866   4.560   3.950   8.433  1.3542  1.2550  1.8531
  152SAPE  H19S16867   4.658   4.055   8.332  0.0778 -0.4739 -2.3531
  152SAPE  C22016868   4.767   3.927   8.475  0.0686  0.2505  0.2801
  152SAPE  H20R16869   4.794   4.023   8.525  0.1264  1.4000 -1.9088
  152SAPE  H20S16870   4.846   3.876   8.416  0.2400  0.4027  0.3792
  152SAPE  H20T16871   4.734   3.857   8.555  0.9492  1.3386  1.6277
  152SAPE   C3316872   4.762   3.251   7.011  0.4091 -0.2053 -0.1095
  152SAPE   H3X16873   4.809   3.351   7.008 -0.9967  0.4324 -1.2406
  152SAPE   H3Y16874   4.842   3.174   7.008  0.5818 -0.1970  3.1570
  152SAPE   C3416875   4.709   3.234   7.153 -0.2328  0.6674 -0.7277
  152SAPE   H4X16876   4.652   3.139   7.161  0.1273  0.5412  0.4458
  152SAPE   H4Y16877   4.650   3.326   7.175 -1.4983 -0.4049  0.4246
  152SAPE   C3516878   4.822   3.225   7.258  0.3453  0.2806 -0.3076
  152SAPE   H5X16879   4.887   3.315   7.249  1.2625 -0.3575 -0.1378
  152SAPE   H5Y16880   4.875   3.131   7.233  0.3169  0.1914 -0.0292
  152SAPE   C3616881   4.764   3.228   7.405 -0.9132  0.1973 -0.3345
  152SAPE   H6X16882   4.690   3.145   7.409 -1.5869  0.7017 -1.9169
  152SAPE   H6Y16883   4.703   3.320   7.419  0.6682  1.2471 -0.2058
  152SAPE   C3716884   4.873   3.228   7.509  0.6857  0.1181  0.5332
  152SAPE   H7X16885   4.948   3.308   7.496  0.6980  0.6885  3.7493
  152SAPE   H7Y16886   4.935   3.136   7.505  0.3335 -0.1729  1.5749
  152SAPE   C3816887   4.818   3.242   7.652  0.8153 -0.0670 -0.9737
  152SAPE   H8X16888   4.765   3.147   7.675  0.4767  0.3952  0.1489
  152SAPE   H8Y16889   4.744   3.325   7.660  0.1521 -0.8410  1.0299
  152SAPE   C3916890   4.919   3.253   7.761 -0.2307 -0.3553  0.3195
  152SAPE   H9X16891   4.986   3.340   7.743  0.8659 -1.3709 -0.6042
  152SAPE   H9Y16892   4.985   3.165   7.746 -0.1982  0.1132 -2.4554
  152SAPE  C31016893   4.851   3.254   7.896 -0.2791  0.6177 -0.9099
  152SAPE  H10X16894   4.782   3.170   7.919  1.4776  0.1418  3.0661
  152SAPE  H10Y16895   4.781   3.338   7.917 -0.5171  0.8096 -2.4200
  152SAPE  C31116896   4.952   3.259   8.013  0.7255 -0.4382  0.0252
  152SAPE  H11X16897   5.026   3.339   7.995  0.1150  0.0178 -0.4533
  152SAPE  H11Y16898   5.006   3.162   8.024 -0.7043 -0.9578  3.1818
  152SAPE  C31216899   4.892   3.289   8.150 -0.0334 -0.1014  0.3830
  152SAPE  H12X16900   4.819   3.209   8.175  0.2708 -0.0668  1.4322
  152SAPE  H12Y16901   4.832   3.383   8.143 -1.0094 -0.6787  0.9110
  152SAPE  C31316902   4.997   3.297   8.265 -0.3607  0.2956 -0.2134
  152SAPE  H13X16903   5.066   3.382   8.244 -0.5080  0.5328  0.2546
  152SAPE  H13Y16904   5.051   3.200   8.267  0.1473  0.5320 -1.8104
  152SAPE  C31416905   4.948   3.316   8.407 -0.1871 -0.0221 -0.4085
  152SAPE  H14X16906   4.870   3.238   8.425 -1.1285  1.2725  1.2532
  152SAPE  H14Y16907   4.899   3.416   8.410  0.5601  0.3393 -0.1415
  152SAPE  C31516908   5.062   3.308   8.503 -0.5188  1.2277  0.2631
  152SAPE  H15X16909   5.141   3.384   8.482 -1.1130  1.6915 -0.2953
  152SAPE  H15Y16910   5.110   3.210   8.484 -0.8298  0.9467  0.9375
  152SAPE  C31616911   5.015   3.323   8.645 -0.0017 -0.3660 -0.0354
  152SAPE  H16X16912   4.941   3.241   8.660 -2.0571  1.5514  0.4563
  152SAPE  H16Y16913   4.971   3.425   8.648  0.7080 -0.0968  1.9587
  152SAPE  C31716914   5.130   3.301   8.742 -0.2307 -0.8102 -0.3084
  152SAPE  H17X16915   5.209   3.379   8.737  0.1995 -1.1624  0.9943
  152SAPE  H17Y16916   5.182   3.204   8.726  0.3830 -0.4858 -0.3042
  152SAPE  C31816917   5.082   3.301   8.884  0.0123 -0.5182 -0.2952
  152SAPE  H18X16918   5.027   3.394   8.907  4.0897  1.5916  1.3962
  152SAPE  H18Y16919   5.157   3.295   8.966 -1.1344  0.0955  0.8158
  152SAPE  H18Z16920   5.005   3.220   8.890 -1.3532  0.6913 -1.1376
  153SAPE     N16921   2.020   3.854   6.215  0.0476 -0.3100 -0.0274
  153SAPE   HN116922   1.949   3.929   6.228  2.0134  2.0378 -2.1464
  153SAPE   HN216923   2.111   3.904   6.203 -0.1899  0.2637  0.5321
  153SAPE   HN316924   1.992   3.817   6.123 -0.9972  2.3895 -0.8372
  153SAPE   C1216925   2.020   3.752   6.321 -0.2931  1.1671  0.1649
  153SAPE  H12A16926   2.019   3.812   6.414  0.2047  1.0874  0.2232
  153SAPE  H12B16927   2.118   3.699   6.319  0.6864  2.9563 -2.8056
  153SAPE   C1116928   1.900   3.657   6.326  0.8530 -0.0202  0.0854
  153SAPE  H11A16929   1.907   3.592   6.416  2.5076 -2.8278 -1.9762
  153SAPE  H11B16930   1.911   3.578   6.248  1.9766 -0.1259  0.3394
  153SAPE     P16931   1.631   3.659   6.300  0.0734 -0.1380  0.0051
  153SAPE   O1316932   1.522   3.761   6.293 -0.2582  0.3381  0.5939
  153SAPE   O1416933   1.627   3.562   6.189 -0.4898 -0.1407  0.7503
  153SAPE   O1216934   1.771   3.723   6.321  0.2376  0.0615 -0.3232
  153SAPE   O1116935   1.605   3.581   6.438  0.4011 -0.1496 -0.1005
  153SAPE    C116936   1.476   3.523   6.469  0.3702  0.3492 -0.0789
  153SAPE    HA16937   1.444   3.465   6.380 -2.1022  0.2838  0.8306
  153SAPE    HB16938   1.493   3.438   6.538  0.6964  1.3335  1.0673
  153SAPE    C216939   1.380   3.628   6.545  0.6267  0.1270 -0.7837
  153SAPE    HS16940   1.408   3.731   6.515 -1.3677  0.6798 -0.8241
  153SAPE   O2116941   1.407   3.625   6.690 -0.2449 -0.4646 -0.6165
  153SAPE   C2116942   1.392   3.741   6.756 -0.5368 -0.5914 -0.0301
  153SAPE   O2216943   1.357   3.847   6.707  0.3589  0.1041 -0.1297
  153SAPE   C2216944   1.446   3.729   6.896  0.1589 -1.0818 -0.3727
  153SAPE   H2R16945   1.377   3.659   6.948 -0.8050  0.3966  0.3668
  153SAPE   H2S16946   1.548   3.685   6.899 -0.0503 -1.5561 -0.2845
  153SAPE    C316947   1.225   3.591   6.533 -0.1724 -1.0406 -1.1449
  153SAPE    HX16948   1.217   3.486   6.569  1.5175 -1.2312 -1.3212
  153SAPE    HY16949   1.193   3.585   6.426 -0.6464 -2.0745 -0.9442
  153SAPE   O3116950   1.145   3.670   6.619  0.9074  0.0475  0.2405
  153SAPE   C3116951   1.095   3.782   6.568 -0.0846  0.6057 -1.3843
  153SAPE   O3216952   1.130   3.823   6.456 -0.2530  0.0635 -0.0689
  153SAPE   C3216953   0.981   3.831   6.656  0.4938 -0.1502 -0.3358
  153SAPE   H2X16954   0.890   3.835   6.594 -1.0387 -3.3857  1.5779
  153SAPE   H2Y16955   0.999   3.940   6.668  1.8435 -0.4072  0.1084
  153SAPE   C2316956   1.434   3.872   6.967  0.2351  0.5453 -0.6538
  153SAPE   H3R16957   1.326   3.898   6.953  0.3718  1.4851  0.0460
  153SAPE   H3S16958   1.486   3.957   6.918  1.9224  0.2230  0.5614
  153SAPE   C2416959   1.460   3.859   7.120  0.2563  0.2374 -0.1825
  153SAPE   H4R16960   1.403   3.771   7.159  2.2935 -1.1607 -0.2890
  153SAPE   H4S16961   1.405   3.948   7.156 -1.2867 -0.7872  0.0675
  153SAPE   C2516962   1.609   3.858   7.155  0.4551 -0.4688 -0.5108
  153SAPE   H5R16963   1.669   3.779   7.106  0.5953 -1.1589  0.7652
  153SAPE   C2616964   1.678   3.941   7.235  0.0759  0.1132 -0.1534
  153SAPE   H6R16965   1.776   3.908   7.270 -0.8885  0.4054  3.0515
  153SAPE   C2716966   1.626   4.059   7.309 -0.3391 -0.5949 -0.0769
  153SAPE   H7R16967   1.538   4.025   7.367 -0.6956  3.4988  2.0081
  153SAPE   H7S16968   1.589   4.137   7.239 -1.2570  0.4651  1.5357
  153SAPE   C2816969   1.728   4.129   7.391 -0.2802  0.3329 -0.4719
  153SAPE   H8R16970   1.824   4.140   7.340 -0.2393  0.6826 -0.3170
  153SAPE   C2916971   1.716   4.147   7.524  0.1870  0.2890  1.1361
  153SAPE   H9R16972   1.807   4.187   7.570  2.1009 -0.7875 -1.5890
  153SAPE  C21016973   1.606   4.116   7.619 -0.3605 -0.7978  0.1018
  153SAPE  H10R16974   1.505   4.154   7.593  0.1791 -0.8072 -2.1318
  153SAPE  H10S16975   1.627   4.173   7.712 -1.6974 -0.2349  0.0633
  153SAPE  C21116976   1.603   3.967   7.653  0.4758 -0.1323  0.0890
  153SAPE  H11R16977   1.605   3.908   7.560  1.6515  0.4438 -0.2652
  153SAPE  C21216978   1.603   3.917   7.777 -0.2746 -0.3755 -0.2887
  153SAPE  H12R16979   1.589   3.808   7.778 -3.3688 -0.0038 -1.0841
  153SAPE  C21316980   1.621   4.004   7.905  0.0514 -0.4081  0.0038
  153SAPE  H13R16981   1.702   4.078   7.883  0.4301 -1.0530 -0.8064
  153SAPE  H13S16982   1.671   3.947   7.986 -3.0373 -0.1730  2.1276
  153SAPE  C21416983   1.496   4.070   7.956  0.0429 -0.3999 -0.4278
  153SAPE  H14R16984   1.410   4.069   7.887 -1.9677 -2.1764  2.0296
  153SAPE  C21516985   1.479   4.128   8.078 -0.4541  0.0345 -0.1795
  153SAPE  H15R16986   1.381   4.174   8.094 -0.7490 -0.1190 -1.5576
  153SAPE  C21616987   1.573   4.154   8.201 -0.5571 -0.1297  0.2822
  153SAPE  H16R16988   1.593   4.263   8.204  1.4766 -0.4269 -1.3597
  153SAPE  H16S16989   1.673   4.108   8.189 -0.6857 -0.0113 -1.2951
  153SAPE  C21716990   1.504   4.115   8.337  0.1038 -0.1949 -0.2319
  153SAPE  H17R16991   1.414   4.176   8.360  1.1404  0.4220  2.4427
  153SAPE  H17S16992   1.568   4.154   8.419 -0.8146  2.3023 -0.6571
  153SAPE  C21816993   1.476   3.965   8.364  0.2004  0.4557 -0.1568
  153SAPE  H18R16994   1.573   3.912   8.361 -0.2848 -0.4218 -0.7434
  153SAPE  H18S16995   1.406   3.934   8.283 -0.0545 -1.5639  0.8036
  153SAPE  C21916996   1.418   3.939   8.501  0.4278  0.1553 -0.1325
  153SAPE  H19R16997   1.324   3.993   8.525  1.3668  1.6712  0.2471
  153SAPE  H19S16998   1.490   3.991   8.568  0.6466 -2.5666  1.8001
  153SAPE  C22016999   1.398   3.789   8.535  0.2760 -0.0147  0.1544
  153SAPE  H20R17000   1.302   3.751   8.495 -0.2825  1.0619  0.4790
  153SAPE  H20S17001   1.374   3.782   8.643  1.1547 -2.2312  0.2428
  153SAPE  H20T17002   1.476   3.715   8.505 -1.7140 -2.5508  1.1029
  153SAPE   C3317003   0.952   3.761   6.792 -0.7008 -0.7185 -0.4174
  153SAPE   H3X17004   0.938   3.654   6.765 -1.5776 -0.9325  0.8396
  153SAPE   H3Y17005   0.853   3.788   6.835  0.2472  0.2895  1.1903
  153SAPE   C3417006   1.052   3.789   6.904  0.1769  0.0550  0.8520
  153SAPE   H4X17007   1.048   3.899   6.919 -2.6038  0.0255  0.6240
  153SAPE   H4Y17008   1.157   3.763   6.876  0.2970 -1.2707  2.4688
  153SAPE   C3517009   1.018   3.709   7.026 -0.1830 -0.5364  0.2009
  153SAPE   H5X17010   1.024   3.600   7.009 -1.8648 -0.3996 -1.4716
  153SAPE   H5Y17011   0.912   3.734   7.048 -0.1425 -0.6056  0.4659
  153SAPE   C3617012   1.089   3.752   7.151  0.3219 -0.5746 -0.2059
  153SAPE   H6X17013   1.198   3.732   7.142  0.3417 -2.0141  2.7005
  153SAPE   H6Y17014   1.050   3.683   7.229  0.7136 -0.2329  0.2947
  153SAPE   C3717015   1.064   3.898   7.180  0.3551  0.8435 -0.3235
  153SAPE   H7X17016   0.968   3.940   7.143  0.3800  1.6383  0.4939
  153SAPE   H7Y17017   1.142   3.967   7.140  0.4702  1.2491  0.6011
  153SAPE   C3817018   1.051   3.920   7.322  0.8736 -0.2688 -0.5956
  153SAPE   H8X17019   0.986   3.849   7.379  0.3506  1.8082  1.4501
  153SAPE   H8Y17020   1.018   4.024   7.338 -0.3481 -0.2128 -3.2087
  153SAPE   C3917021   1.192   3.902   7.401 -0.2285 -0.3160  0.6886
  153SAPE   H9X17022   1.282   3.945   7.353 -0.1958 -0.2737  0.7877
  153SAPE   H9Y17023   1.223   3.795   7.397 -3.0803 -1.1337 -0.7028
  153SAPE  C31017024   1.182   3.954   7.542  0.0067 -0.7512 -0.4785
  153SAPE  H10X17025   1.159   4.062   7.533 -1.3826 -0.8467  1.4895
  153SAPE  H10Y17026   1.275   3.945   7.602 -1.5463 -1.1449  1.9862
  153SAPE  C31117027   1.055   3.903   7.624 -0.0037 -0.3567  0.0143
  153SAPE  H11X17028   1.056   3.795   7.599 -1.1104 -0.1738 -0.8569
  153SAPE  H11Y17029   0.967   3.936   7.564  0.0908  1.2411  0.7266
  153SAPE  C31217030   1.052   3.926   7.776  0.0164 -0.7839  0.0053
  153SAPE  H12X17031   1.153   3.890   7.805 -1.1332 -2.7177  1.7717
  153SAPE  H12Y17032   0.984   3.864   7.838 -0.5589 -0.0299  0.1400
  153SAPE  C31317033   1.023   4.076   7.815 -0.6369 -0.5458  0.0940
  153SAPE  H13X17034   0.928   4.112   7.769 -2.5724 -1.6006  3.1218
  153SAPE  H13Y17035   1.108   4.125   7.762  1.0083 -2.8346  0.5671
  153SAPE  C31417036   1.041   4.113   7.961 -0.3886  0.4750  0.4401
  153SAPE  H14X17037   1.030   4.223   7.965  0.9689  0.5947  1.1966
  153SAPE  H14Y17038   1.139   4.072   7.993 -0.9708  0.3215  2.1243
  153SAPE  C31517039   0.938   4.058   8.060 -0.1311 -0.2546  0.2736
  153SAPE  H15X17040   0.957   3.949   8.065  0.4775 -0.0597  2.7347
  153SAPE  H15Y17041   0.837   4.086   8.022 -0.6776 -3.4978 -0.8055
  153SAPE  C31617042   0.936   4.102   8.205 -0.2020  0.6668 -0.2637
  153SAPE  H16X17043   0.860   4.040   8.257  0.8424  0.7511  1.3905
  153SAPE  H16Y17044   0.911   4.210   8.201  1.0940  1.0566  1.5414
  153SAPE  C31717045   1.077   4.082   8.270  1.0243 -0.1179  0.4175
  153SAPE  H17X17046   1.140   4.155   8.215 -0.6273  0.4321 -0.7727
  153SAPE  H17Y17047   1.111   3.978   8.254 -0.1189 -0.6961  1.6032
  153SAPE  C31817048   1.073   4.117   8.421  0.4134 -0.5790 -0.2772
  153SAPE  H18X17049   0.993   4.048   8.456 -0.9871  2.6911  3.3817
  153SAPE  H18Y17050   1.039   4.223   8.426 -2.6411 -1.5992  2.0419
  153SAPE  H18Z17051   1.171   4.123   8.473  0.4082  0.3661 -0.3743
  154SAPE     N17052   6.370   3.808   6.179 -0.5793 -0.5230 -0.1732
  154SAPE   HN117053   6.313   3.875   6.234  1.5453  0.6024  0.7362
  154SAPE   HN217054   6.458   3.854   6.148 -0.9135 -1.3164 -2.3708
  154SAPE   HN317055   6.314   3.793   6.093 -2.6395  1.4534  0.7821
  154SAPE   C1217056   6.383   3.677   6.257 -0.6137 -0.3535 -0.2318
  154SAPE  H12A17057   6.293   3.656   6.318  0.3904  1.0410  1.7909
  154SAPE  H12B17058   6.461   3.682   6.336 -0.0155 -3.2660 -0.5783
  154SAPE   C1117059   6.409   3.564   6.163 -0.1166 -0.3272 -0.1696
  154SAPE  H11A17060   6.421   3.473   6.226  0.5370 -0.7695 -0.9357
  154SAPE  H11B17061   6.504   3.575   6.108  1.3929  0.2313  2.4388
  154SAPE     P17062   6.242   3.417   6.030  0.1394 -0.2723 -0.2061
  154SAPE   O1317063   6.109   3.429   5.967 -0.0189 -0.3927  0.3287
  154SAPE   O1417064   6.344   3.331   5.960 -0.0166  0.0499  0.0462
  154SAPE   O1217065   6.300   3.557   6.072  0.2153 -0.2080 -0.3376
  154SAPE   O1117066   6.209   3.352   6.171 -0.2990  0.3925 -0.0842
  154SAPE    C117067   6.122   3.408   6.266 -0.2337 -0.2405  0.5812
  154SAPE    HA17068   6.187   3.464   6.337 -0.6868  3.7553 -1.9975
  154SAPE    HB17069   6.045   3.475   6.222 -0.1512 -0.8857 -0.5683
  154SAPE    C217070   6.039   3.309   6.351  0.7730 -0.4161 -0.5776
  154SAPE    HS17071   5.967   3.372   6.408  0.7872  1.5887 -2.7054
  154SAPE   O2117072   6.129   3.233   6.437  0.2513 -0.0840 -0.2076
  154SAPE   C2117073   6.171   3.301   6.548  0.0618 -0.3799  0.2047
  154SAPE   O2217074   6.156   3.420   6.569  0.0426 -0.3355 -0.0754
  154SAPE   C2217075   6.236   3.197   6.638 -0.5139 -0.2372 -0.5187
  154SAPE   H2R17076   6.279   3.114   6.578  0.0547 -0.3048 -0.0214
  154SAPE   H2S17077   6.311   3.257   6.692  0.5958  0.0753 -2.3610
  154SAPE    C317078   5.964   3.211   6.259 -0.3041 -0.4258  0.2676
  154SAPE    HX17079   6.036   3.193   6.176  0.5760  1.0423  0.6829
  154SAPE    HY17080   5.880   3.257   6.204  1.5422  0.8233 -1.5905
  154SAPE   O3117081   5.931   3.080   6.313 -0.1321 -0.0237  0.3687
  154SAPE   C3117082   5.830   3.093   6.395  0.0065  0.2426 -0.0376
  154SAPE   O3217083   5.763   3.192   6.415 -0.8326 -0.1510 -0.4474
  154SAPE   C3217084   5.813   2.964   6.466 -0.2633  0.4044  0.2698
  154SAPE   H2X17085   5.911   2.915   6.484 -0.0775 -0.8787 -3.8692
  154SAPE   H2Y17086   5.769   2.900   6.387 -0.6818  3.0562 -1.7313
  154SAPE   C2317087   6.155   3.150   6.758 -0.8843 -0.3501 -0.0054
  154SAPE   H3R17088   6.050   3.140   6.721 -0.7337  1.1733 -0.8657
  154SAPE   H3S17089   6.171   3.231   6.833  1.3500 -1.1737  0.4465
  154SAPE   C2417090   6.211   3.021   6.819 -1.0658 -0.3502 -0.1973
  154SAPE   H4R17091   6.317   3.039   6.849 -1.2159  0.3415 -0.0848
  154SAPE   H4S17092   6.195   2.946   6.739 -1.5150 -0.5475  0.0783
  154SAPE   C2517093   6.123   2.991   6.936 -0.1885 -0.2784 -0.1237
  154SAPE   H5R17094   6.032   2.941   6.902 -0.3822  0.2311 -0.3559
  154SAPE   C2617095   6.128   3.030   7.058  0.3034  0.4640 -0.0877
  154SAPE   H6R17096   6.060   2.983   7.131  0.0328  0.2936 -0.4522
  154SAPE   C2717097   6.242   3.098   7.131  0.1888 -0.4746  0.0449
  154SAPE   H7R17098   6.324   3.138   7.068  2.4184 -1.0338  2.5099
  154SAPE   H7S17099   6.293   3.015   7.184  0.9533  0.7307  1.2055
  154SAPE   C2817100   6.216   3.221   7.215  0.5221 -0.2371 -0.1592
  154SAPE   H8R17101   6.212   3.313   7.155  1.4005 -1.8121 -2.7060
  154SAPE   C2917102   6.184   3.228   7.346 -0.7185 -0.3633  0.2064
  154SAPE   H9R17103   6.154   3.318   7.402 -0.9258 -1.3240  1.6719
  154SAPE  C21017104   6.171   3.105   7.437 -0.5732  0.4006 -0.0519
  154SAPE  H10R17105   6.127   3.021   7.379  0.7657 -0.4580  0.1400
  154SAPE  H10S17106   6.098   3.124   7.518  1.0872  0.5769  1.4175
  154SAPE  C21117107   6.311   3.068   7.489 -0.2625  0.1203 -0.2288
  154SAPE  H11R17108   6.398   3.073   7.423 -0.0106 -0.3793  0.0608
  154SAPE  C21217109   6.345   3.040   7.623 -0.0260  0.0294  0.2692
  154SAPE  H12R17110   6.449   3.005   7.634  0.3058  0.4884 -1.3189
  154SAPE  C21317111   6.255   3.038   7.746  0.9213  0.3950  0.7052
  154SAPE  H13R17112   6.300   2.972   7.823  2.6858  2.0881  1.1587
  154SAPE  H13S17113   6.154   2.999   7.722  1.2671 -0.9780  1.4225
  154SAPE  C21417114   6.242   3.181   7.809 -0.1274  0.9307 -0.0941
  154SAPE  H14R17115   6.197   3.261   7.748 -1.1346  1.2138  1.0027
  154SAPE  C21517116   6.270   3.203   7.933  0.6538 -0.8579  0.0332
  154SAPE  H15R17117   6.260   3.305   7.972  1.1635 -0.7469 -0.1204
  154SAPE  C21617118   6.336   3.113   8.028  0.2105 -0.1580  0.2745
  154SAPE  H16R17119   6.385   3.172   8.108 -3.3597  1.6815  1.2301
  154SAPE  H16S17120   6.406   3.042   7.979  1.1418  0.2662  0.9756
  154SAPE  C21717121   6.220   3.031   8.102  0.7062  0.3121 -0.0924
  154SAPE  H17R17122   6.150   2.996   8.023  0.7771  0.0338 -0.0334
  154SAPE  H17S17123   6.169   3.090   8.182  0.8702  0.5141 -0.1363
  154SAPE  C21817124   6.294   2.906   8.154 -0.1938  0.3411 -0.0961
  154SAPE  H18R17125   6.385   2.930   8.213 -0.2032 -0.9863  0.4806
  154SAPE  H18S17126   6.333   2.860   8.061  0.0321  2.0493 -0.8668
  154SAPE  C21917127   6.206   2.812   8.241  0.5807 -0.4261 -1.0260
  154SAPE  H19R17128   6.270   2.722   8.250 -0.8667 -1.3524  0.1073
  154SAPE  H19S17129   6.110   2.798   8.187 -0.1153  0.7459 -0.1140
  154SAPE  C22017130   6.184   2.873   8.374 -0.4784  0.0714 -0.0973
  154SAPE  H20R17131   6.099   2.944   8.377 -0.9123 -0.4198 -0.6865
  154SAPE  H20S17132   6.274   2.927   8.410 -1.3882  0.3993  1.7712
  154SAPE  H20T17133   6.166   2.791   8.447  1.9493 -2.1983 -1.9215
  154SAPE   C3317134   5.717   2.954   6.591 -0.0607  0.4552 -1.2283
  154SAPE   H3X17135   5.715   2.846   6.618  0.2151  0.5518 -0.8329
  154SAPE   H3Y17136   5.610   2.963   6.562 -0.0073  1.0418 -1.2497
  154SAPE   C3417137   5.760   3.034   6.714  0.1638  0.2830 -1.1439
  154SAPE   H4X17138   5.767   3.141   6.686  0.0938 -0.2924 -3.5003
  154SAPE   H4Y17139   5.857   3.000   6.756  0.0586 -0.5881 -1.5905
  154SAPE   C3517140   5.644   3.036   6.827  0.0428  0.2791 -0.2331
  154SAPE   H5X17141   5.619   2.930   6.851 -0.7299  0.4304 -0.3825
  154SAPE   H5Y17142   5.556   3.075   6.773  0.2964  0.8589 -0.2331
  154SAPE   C3617143   5.679   3.112   6.953  0.2867 -0.0932  0.1027
  154SAPE   H6X17144   5.595   3.156   7.011  0.7208  0.5833  0.2211
  154SAPE   H6Y17145   5.747   3.195   6.926  2.2826 -2.0300 -0.9468
  154SAPE   C3717146   5.737   3.017   7.069  0.1721 -0.6229  0.6517
  154SAPE   H7X17147   5.830   2.972   7.029  0.3827 -0.5889  1.1070
  154SAPE   H7Y17148   5.659   2.941   7.092 -1.0054  0.0088 -1.1615
  154SAPE   C3817149   5.773   3.100   7.195  0.4908  0.2986  0.2300
  154SAPE   H8X17150   5.682   3.154   7.227 -1.0431 -0.1550 -3.2006
  154SAPE   H8Y17151   5.860   3.165   7.172  1.8736 -1.0493  1.4835
  154SAPE   C3917152   5.796   3.002   7.315 -0.0766  0.1396  0.5254
  154SAPE   H9X17153   5.886   2.940   7.294  0.6739  0.4991  2.5563
  154SAPE   H9Y17154   5.704   2.940   7.317 -0.3929  0.5710 -0.3657
  154SAPE  C31017155   5.817   3.067   7.450  0.3068  0.2538  0.4524
  154SAPE  H10X17156   5.740   3.146   7.457 -0.1779 -0.0483 -1.4041
  154SAPE  H10Y17157   5.909   3.130   7.449 -0.4321  1.4176  2.6929
  154SAPE  C31117158   5.835   2.969   7.564  0.2902  1.2243  0.0173
  154SAPE  H11X17159   5.935   2.925   7.545 -0.6420 -0.7283 -0.5282
  154SAPE  H11Y17160   5.762   2.890   7.538  2.7821 -1.0834 -0.2167
  154SAPE  C31217161   5.824   3.024   7.703  0.1713 -0.9081  0.3477
  154SAPE  H12X17162   5.725   3.074   7.710  0.7280 -0.0313  2.5087
  154SAPE  H12Y17163   5.903   3.100   7.719 -0.4553  0.0855 -1.2138
  154SAPE  C31317164   5.832   2.917   7.801  0.4206 -0.4670  0.2565
  154SAPE  H13X17165   5.933   2.873   7.812  0.1778 -1.1283 -0.1149
  154SAPE  H13Y17166   5.772   2.831   7.763  0.4987 -0.5964  0.4248
  154SAPE  C31417167   5.793   2.962   7.937  0.7411 -0.6436  1.4365
  154SAPE  H14X17168   5.687   2.989   7.955  0.6440 -0.3434  0.4633
  154SAPE  H14Y17169   5.852   3.053   7.961 -0.3959 -0.3771  3.3008
  154SAPE  C31517170   5.821   2.862   8.051 -0.0916 -0.0980 -1.2039
  154SAPE  H15X17171   5.914   2.803   8.036  1.1884  1.2129  1.3286
  154SAPE  H15Y17172   5.736   2.790   8.045  1.5310 -1.9808 -2.4150
  154SAPE  C31617173   5.838   2.912   8.196 -0.8341  0.0219 -0.0212
  154SAPE  H16X17174   5.930   2.974   8.193 -0.3626 -0.7234 -1.4584
  154SAPE  H16Y17175   5.869   2.825   8.259 -1.9021 -1.0357 -0.9200
  154SAPE  C31717176   5.718   2.976   8.264 -0.1495 -0.0619  0.1478
  154SAPE  H17X17177   5.631   2.908   8.257  0.1703 -0.5703  0.9543
  154SAPE  H17Y17178   5.679   3.067   8.213 -1.3151 -1.1320 -0.9027
  154SAPE  C31817179   5.731   3.000   8.414  0.3022  0.0431 -0.6836
  154SAPE  H18X17180   5.802   3.080   8.446  1.3520 -0.4673 -1.6936
  154SAPE  H18Y17181   5.749   2.905   8.469  1.2827  0.6821  0.1289
  154SAPE  H18Z17182   5.631   3.039   8.442  0.8406  2.1706 -1.6745
  155SAPE     N17183   5.991   4.262   6.457 -0.5834  0.5741 -0.1078
  155SAPE   HN117184   5.959   4.319   6.537 -0.3112 -0.2975  0.6328
  155SAPE   HN217185   6.095   4.273   6.451 -0.6124  0.5394 -0.7588
  155SAPE   HN317186   5.955   4.283   6.362  1.4482 -0.8464 -1.2230
  155SAPE   C1217187   5.976   4.112   6.480  0.2151  0.0420  0.0757
  155SAPE  H12A17188   6.014   4.069   6.384 -1.4723  1.6308 -1.3294
  155SAPE  H12B17189   5.866   4.097   6.487  0.1959  1.2019  2.9542
  155SAPE   C1117190   6.061   4.056   6.595  0.3486 -0.0554 -0.2228
  155SAPE  H11A17191   6.039   3.948   6.611  0.5476 -0.0339  0.2279
  155SAPE  H11B17192   6.029   4.104   6.690 -0.9694  0.1919 -0.7840
  155SAPE     P17193   6.299   3.989   6.503 -0.0266  0.6132  0.0547
  155SAPE   O1317194   6.231   3.898   6.409 -0.5052  0.0683 -0.7211
  155SAPE   O1417195   6.398   4.074   6.443  0.6314 -0.7564  0.1293
  155SAPE   O1217196   6.195   4.089   6.583 -0.5242 -0.3889 -0.0014
  155SAPE   O1117197   6.369   3.904   6.615 -0.5484 -0.0083  0.2809
  155SAPE    C117198   6.403   3.946   6.746  0.0248  0.8863  0.4904
  155SAPE    HA17199   6.449   4.047   6.755 -3.3632  2.5604 -0.2909
  155SAPE    HB17200   6.304   3.936   6.796 -0.9002  0.4038 -1.4153
  155SAPE    C217201   6.496   3.848   6.824  0.0671  0.2313 -0.0525
  155SAPE    HS17202   6.591   3.831   6.770 -1.0207  0.4029 -2.0715
  155SAPE   O2117203   6.429   3.721   6.841  0.3274 -0.1703  0.1800
  155SAPE   C2117204   6.511   3.612   6.860  0.1569  0.0342  0.6419
  155SAPE   O2217205   6.632   3.612   6.859 -0.2571  0.1603  0.8754
  155SAPE   C2217206   6.422   3.492   6.884  0.1796  0.1441 -0.6573
  155SAPE   H2R17207   6.337   3.526   6.947  1.6991 -0.2238  1.6442
  155SAPE   H2S17208   6.371   3.477   6.786  1.7946  0.9299 -1.6541
  155SAPE    C317209   6.536   3.904   6.962 -0.7369  0.2876 -0.0197
  155SAPE    HX17210   6.596   3.995   6.942  0.8834 -0.9228 -0.7786
  155SAPE    HY17211   6.607   3.835   7.010 -0.7279  0.0369 -0.3883
  155SAPE   O3117212   6.427   3.946   7.045 -0.5003 -0.2497  0.3009
  155SAPE   C3117213   6.392   3.853   7.137  1.2762  0.1484  0.5333
  155SAPE   O3217214   6.450   3.758   7.182  0.0417  0.0175 -0.4664
  155SAPE   C3217215   6.253   3.900   7.194  0.0305 -0.5902 -0.1234
  155SAPE   H2X17216   6.180   3.824   7.162 -0.7013 -0.3988  1.0739
  155SAPE   H2Y17217   6.225   3.998   7.149  1.7155 -0.3798 -0.7811
  155SAPE   C2317218   6.497   3.366   6.924 -0.1946  0.2052 -0.1627
  155SAPE   H3R17219   6.571   3.332   6.849 -1.8239 -2.9044 -0.4469
  155SAPE   H3S17220   6.420   3.288   6.945  0.2655 -1.2975 -3.7233
  155SAPE   C2417221   6.582   3.376   7.059  0.1722  0.1933  0.0160
  155SAPE   H4R17222   6.663   3.451   7.045  0.8996 -0.4464  0.7297
  155SAPE   H4S17223   6.635   3.278   7.068 -1.5500 -0.7982 -0.5565
  155SAPE   C2517224   6.497   3.399   7.183  0.3708  0.1125 -0.3820
  155SAPE   H5R17225   6.394   3.419   7.152 -0.9675  0.0132  3.7177
  155SAPE   C2617226   6.536   3.406   7.314 -0.4436 -0.1305  0.7357
  155SAPE   H6R17227   6.453   3.412   7.387 -1.2093 -0.5315 -0.0985
  155SAPE   C2717228   6.676   3.388   7.370 -0.0782 -0.2210  0.1870
  155SAPE   H7R17229   6.688   3.445   7.465 -0.4005  1.0332 -0.5115
  155SAPE   H7S17230   6.749   3.427   7.296 -2.9103 -1.0325 -3.1554
  155SAPE   C2817231   6.699   3.241   7.390  0.0187 -0.1738  0.2238
  155SAPE   H8R17232   6.674   3.181   7.302  1.4886  0.7009 -0.8169
  155SAPE   C2917233   6.738   3.179   7.500  1.0585  0.2589 -0.3044
  155SAPE   H9R17234   6.752   3.070   7.493 -0.7072  0.0687 -0.9274
  155SAPE  C21017235   6.749   3.250   7.633  0.0065 -0.3537 -0.3783
  155SAPE  H10R17236   6.812   3.340   7.618  1.3527 -1.1997  0.1539
  155SAPE  H10S17237   6.805   3.178   7.696  2.3874  1.7614  0.0033
  155SAPE  C21117238   6.613   3.274   7.692  0.2164 -0.2453 -0.2876
  155SAPE  H11R17239   6.537   3.294   7.615  0.0510 -0.4562 -0.1767
  155SAPE  C21217240   6.585   3.311   7.819  0.4720  0.6606 -0.6547
  155SAPE  H12R17241   6.480   3.333   7.844  0.2016  0.4163 -1.5656
  155SAPE  C21317242   6.691   3.325   7.931 -0.6854 -1.1679 -0.0082
  155SAPE  H13R17243   6.646   3.393   8.006 -2.2018 -2.1313 -0.0121
  155SAPE  H13S17244   6.785   3.375   7.902 -1.6097 -0.6457 -2.1701
  155SAPE  C21417245   6.727   3.195   7.994 -0.3374  0.0771  0.5550
  155SAPE  H14R17246   6.676   3.104   7.960  0.6063 -0.6895  1.1566
  155SAPE  C21517247   6.824   3.170   8.082 -0.2554  0.1730  0.2166
  155SAPE  H15R17248   6.833   3.070   8.127  0.9953 -0.1453 -0.6919
  155SAPE  C21617249   6.924   3.273   8.132 -0.5670 -0.5120 -0.5443
  155SAPE  H16R17250   6.902   3.373   8.090 -2.2312 -0.3197  0.7618
  155SAPE  H16S17251   7.025   3.237   8.103 -0.7149 -0.6283 -0.9294
  155SAPE  C21717252   6.934   3.291   8.282 -0.1400  0.0679 -0.1391
  155SAPE  H17R17253   7.027   3.344   8.312 -0.6380  0.4422  0.7763
  155SAPE  H17S17254   6.951   3.197   8.339  0.5541  1.3147  1.7982
  155SAPE  C21817255   6.827   3.376   8.351  1.5833  0.8065  0.6327
  155SAPE  H18R17256   6.726   3.328   8.343  1.6029  0.5019  2.1061
  155SAPE  H18S17257   6.804   3.466   8.289 -1.0544  1.9890  3.1902
  155SAPE  C21917258   6.868   3.423   8.495 -0.2841 -0.3668 -0.2081
  155SAPE  H19R17259   6.804   3.512   8.516  0.7409  0.8221 -1.9500
  155SAPE  H19S17260   6.974   3.455   8.483 -0.1995 -0.3099  0.6880
  155SAPE  C22017261   6.851   3.325   8.610  0.3506 -0.7732 -0.1830
  155SAPE  H20R17262   6.748   3.299   8.642  0.0603  0.0448 -0.4316
  155SAPE  H20S17263   6.896   3.379   8.696  1.1896 -0.5871 -0.7316
  155SAPE  H20T17264   6.913   3.234   8.594  0.8904 -0.6741  1.2182
  155SAPE   C3317265   6.256   3.911   7.355  0.7037 -0.0129 -0.0452
  155SAPE   H3X17266   6.176   3.983   7.382  1.6654  1.4490 -1.0017
  155SAPE   H3Y17267   6.355   3.952   7.384  0.2162  0.7578  0.5423
  155SAPE   C3417268   6.245   3.781   7.437  0.0890 -0.1014  0.3487
  155SAPE   H4X17269   6.325   3.712   7.402 -0.6498 -0.3083 -0.9708
  155SAPE   H4Y17270   6.148   3.733   7.410 -1.5513  2.2714  1.8123
  155SAPE   C3517271   6.262   3.801   7.586  0.0482  0.3826 -0.0651
  155SAPE   H5X17272   6.194   3.885   7.614 -0.8629 -0.5728  0.6711
  155SAPE   H5Y17273   6.366   3.836   7.601  0.2760  0.0357 -0.8177
  155SAPE   C3617274   6.219   3.679   7.672 -0.3933 -0.9076  0.0860
  155SAPE   H6X17275   6.245   3.579   7.629  0.9404 -0.7833  0.5910
  155SAPE   H6Y17276   6.108   3.675   7.680 -0.2858 -0.3975  2.1623
  155SAPE   C3717277   6.268   3.677   7.814  0.4413  0.1355 -0.0624
  155SAPE   H7X17278   6.364   3.733   7.825  1.3031 -1.4575  0.5704
  155SAPE   H7Y17279   6.286   3.580   7.864 -1.7570 -0.9082 -1.2304
  155SAPE   C3817280   6.178   3.748   7.914  0.1954  0.4971 -0.9601
  155SAPE   H8X17281   6.092   3.680   7.932 -0.0652  0.5494 -1.9969
  155SAPE   H8Y17282   6.138   3.845   7.877 -0.1428  1.8636  2.6964
  155SAPE   C3917283   6.261   3.782   8.041 -0.1872  0.4842  0.7735
  155SAPE   H9X17284   6.352   3.839   8.013 -1.2534  2.0199  0.3246
  155SAPE   H9Y17285   6.290   3.692   8.099 -0.8766 -1.3154 -1.5956
  155SAPE  C31017286   6.190   3.873   8.144  0.6973 -1.1126 -0.5308
  155SAPE  H10X17287   6.156   3.964   8.088 -3.1363 -1.7782  0.5314
  155SAPE  H10Y17288   6.266   3.897   8.221 -0.7099 -1.9197  1.1534
  155SAPE  C31117289   6.073   3.820   8.224  0.5376  0.5752 -0.0974
  155SAPE  H11X17290   6.112   3.740   8.291 -1.2385 -1.8965 -1.9223
  155SAPE  H11Y17291   5.989   3.789   8.159 -0.8115  0.4822  1.6545
  155SAPE  C31217292   6.013   3.933   8.317 -0.9904 -0.0481  0.1055
  155SAPE  H12X17293   5.965   4.006   8.248  1.7411  1.6178 -0.0984
  155SAPE  H12Y17294   6.101   3.977   8.369 -0.6962  1.5642 -1.7104
  155SAPE  C31317295   5.912   3.877   8.426 -0.1900  0.4012  0.4599
  155SAPE  H13X17296   5.888   3.960   8.495 -0.1231  0.4559  0.4189
  155SAPE  H13Y17297   5.965   3.803   8.489  2.1368  2.3743  0.9239
  155SAPE  C31417298   5.787   3.820   8.367  0.1153 -0.7199 -0.0472
  155SAPE  H14X17299   5.798   3.742   8.288  1.0236 -0.4078 -0.2324
  155SAPE  H14Y17300   5.726   3.896   8.315 -0.1454 -0.9809 -0.1248
  155SAPE  C31517301   5.692   3.773   8.473 -0.4265 -0.5884  0.5372
  155SAPE  H15X17302   5.735   3.707   8.551  2.1746  2.0101  1.3656
  155SAPE  H15Y17303   5.610   3.713   8.426  1.4845 -1.2157 -2.0671
  155SAPE  C31617304   5.617   3.886   8.541 -0.3955 -0.1901 -0.0594
  155SAPE  H16X17305   5.550   3.936   8.467  0.6812  1.5133  0.1052
  155SAPE  H16Y17306   5.687   3.972   8.548 -2.0756  1.2372 -0.2843
  155SAPE  C31717307   5.528   3.859   8.662 -0.2411 -0.0733  0.3647
  155SAPE  H17X17308   5.497   3.956   8.706 -0.3190 -0.2985  0.8123
  155SAPE  H17Y17309   5.582   3.797   8.737  1.9930  0.1015 -1.0544
  155SAPE  C31817310   5.400   3.778   8.626 -0.2892 -0.0718  0.0220
  155SAPE  H18X17311   5.425   3.670   8.628 -0.8367 -0.2271 -1.0868
  155SAPE  H18Y17312   5.355   3.818   8.532 -1.0694  0.5665  0.6624
  155SAPE  H18Z17313   5.325   3.799   8.705 -0.8014  1.6557 -0.8978
  156SAPE     N17314   3.660   4.882   6.456  0.3703 -0.0268  0.4054
  156SAPE   HN117315   3.642   4.951   6.379  1.0645  1.6835  1.7444
  156SAPE   HN217316   3.573   4.845   6.499  0.6641 -3.6777 -1.9096
  156SAPE   HN317317   3.701   4.940   6.531 -1.9219 -1.1996  2.6611
  156SAPE   C1217318   3.739   4.758   6.416  0.0620 -0.1883  0.3472
  156SAPE  H12A17319   3.684   4.731   6.324 -2.6170  1.6086  1.3459
  156SAPE  H12B17320   3.721   4.688   6.500  0.5329  0.7382  1.2313
  156SAPE   C1117321   3.888   4.781   6.389  0.2156 -0.1744  0.3843
  156SAPE  H11A17322   3.901   4.825   6.288  0.1385 -0.0497  0.4296
  156SAPE  H11B17323   3.936   4.680   6.381  1.6682  0.7547 -4.7321
  156SAPE     P17324   4.043   4.800   6.599  0.3268 -0.0112 -0.2639
  156SAPE   O1317325   4.164   4.749   6.532  0.1319  0.2722  0.0101
  156SAPE   O1417326   4.068   4.905   6.697 -0.2977 -0.0608 -0.4638
  156SAPE   O1217327   3.950   4.858   6.486  0.2234 -0.2208  0.3566
  156SAPE   O1117328   3.948   4.690   6.658  0.4021 -0.2021 -0.1359
  156SAPE    C117329   3.886   4.711   6.781  0.0516  0.3599 -0.1455
  156SAPE    HA17330   3.867   4.817   6.808  0.4248  0.1160  1.0866
  156SAPE    HB17331   3.785   4.665   6.786  0.2161  0.1151  0.9597
  156SAPE    C217332   3.958   4.647   6.900 -0.1460 -0.2614 -0.4098
  156SAPE    HS17333   3.896   4.662   6.991  1.7512  0.2765  0.8092
  156SAPE   O2117334   4.085   4.709   6.926  0.8053  0.5131  0.1825
  156SAPE   C2117335   4.081   4.827   6.989 -0.2675 -0.3320 -0.1145
  156SAPE   O2217336   3.982   4.886   7.025 -0.5068 -0.4606 -0.1006
  156SAPE   C2217337   4.228   4.881   6.998 -0.8214 -0.2333 -0.7392
  156SAPE   H2R17338   4.298   4.796   6.983 -2.2205 -1.4814 -0.2898
  156SAPE   H2S17339   4.243   4.954   6.916 -0.1400  0.5481  0.0718
  156SAPE    C317340   3.966   4.493   6.869  0.4390  0.1305 -0.0374
  156SAPE    HX17341   4.044   4.476   6.791  0.4400 -0.5604  0.1048
  156SAPE    HY17342   3.869   4.468   6.820 -0.3931  0.1300  1.5530
  156SAPE   O3117343   3.991   4.407   6.982 -0.0726 -0.4344 -0.0349
  156SAPE   C3117344   4.108   4.366   7.013 -0.1881  0.0899  0.6182
  156SAPE   O3217345   4.212   4.396   6.959 -0.5094 -0.5816  0.1854
  156SAPE   C3217346   4.098   4.276   7.140 -0.0597  0.5429  0.0081
  156SAPE   H2X17347   4.023   4.199   7.111 -0.1768 -0.1795  2.1758
  156SAPE   H2Y17348   4.062   4.338   7.225 -3.8224  2.1722 -2.6199
  156SAPE   C2317349   4.259   4.935   7.144 -0.0211 -0.0054  0.4677
  156SAPE   H3R17350   4.235   4.852   7.214  0.3398  0.0010  0.5984
  156SAPE   H3S17351   4.194   5.024   7.159 -1.8789 -1.3314  0.4236
  156SAPE   C2417352   4.412   4.975   7.172  0.7445  0.8591  0.0310
  156SAPE   H4R17353   4.463   4.880   7.147 -0.3360  0.3214 -0.1499
  156SAPE   H4S17354   4.436   4.972   7.280  0.5191  0.1524  0.0629
  156SAPE   C2517355   4.478   5.089   7.100 -0.2576 -0.2726  0.0721
  156SAPE   H5R17356   4.476   5.082   6.990  2.5687  0.1314 -0.0461
  156SAPE   C2617357   4.544   5.194   7.151 -0.2316 -0.2334  0.0695
  156SAPE   H6R17358   4.583   5.262   7.074 -0.4280  0.0076  0.1843
  156SAPE   C2717359   4.568   5.225   7.295 -0.1407 -0.2250 -0.4746
  156SAPE   H7R17360   4.652   5.158   7.325 -1.1313 -1.1154  0.3596
  156SAPE   H7S17361   4.474   5.200   7.349  0.2286  4.1215  2.3823
  156SAPE   C2817362   4.610   5.368   7.338  0.0935  0.2907  0.2650
  156SAPE   H8R17363   4.667   5.410   7.253  0.0667  1.6605  0.9074
  156SAPE   C2917364   4.576   5.435   7.448  0.7747 -0.2598 -0.1721
  156SAPE   H9R17365   4.611   5.537   7.467  0.4573  0.0918 -1.3929
  156SAPE  C21017366   4.499   5.368   7.565 -0.3424 -0.3703  0.0175
  156SAPE  H10R17367   4.475   5.260   7.552 -2.1922 -0.0861  0.8509
  156SAPE  H10S17368   4.397   5.412   7.572  0.0303  0.7044 -1.0408
  156SAPE  C21117369   4.581   5.374   7.689 -0.4867 -0.0841  0.3718
  156SAPE  H11R17370   4.676   5.320   7.677 -0.8242 -0.9243  1.3933
  156SAPE  C21217371   4.557   5.437   7.805  0.4957 -0.4837 -0.2657
  156SAPE  H12R17372   4.620   5.443   7.895 -1.8242  1.1376  1.3205
  156SAPE  C21317373   4.425   5.518   7.824  0.3060  0.3572  0.0171
  156SAPE  H13R17374   4.340   5.449   7.805 -1.5391  1.3383  4.1716
  156SAPE  H13S17375   4.405   5.589   7.740 -3.2359  1.2111  1.5019
  156SAPE  C21417376   4.411   5.590   7.953 -0.2842 -0.5820  0.3495
  156SAPE  H14R17377   4.489   5.666   7.972 -0.1542 -1.2616  2.7014
  156SAPE  C21517378   4.314   5.585   8.043  0.2118 -0.3653 -0.1410
  156SAPE  H15R17379   4.328   5.650   8.130  1.9335 -0.2683 -0.4788
  156SAPE  C21617380   4.189   5.501   8.044  0.4142  0.1766  0.2331
  156SAPE  H16R17381   4.190   5.433   7.956 -0.3984  0.6494 -0.1446
  156SAPE  H16S17382   4.093   5.554   8.027  1.5672  1.8446 -1.3214
  156SAPE  C21717383   4.195   5.426   8.172  0.0706 -0.5242 -0.0237
  156SAPE  H17R17384   4.294   5.376   8.173  2.2098  3.5215  1.5217
  156SAPE  H17S17385   4.118   5.346   8.177  0.0808 -0.5794 -0.6857
  156SAPE  C21817386   4.165   5.520   8.293 -0.1311  0.1170 -0.4697
  156SAPE  H18R17387   4.070   5.574   8.270  1.3224  3.3186  0.7441
  156SAPE  H18S17388   4.247   5.594   8.308  0.6731 -1.1766  1.7918
  156SAPE  C21917389   4.121   5.441   8.418  0.4336 -0.0499 -0.1194
  156SAPE  H19R17390   4.199   5.363   8.428 -0.4947 -0.7770  1.6121
  156SAPE  H19S17391   4.031   5.383   8.388  1.2681  0.4923 -3.9709
  156SAPE  C22017392   4.096   5.512   8.544  0.5951 -0.5229 -0.1161
  156SAPE  H20R17393   3.987   5.534   8.545  0.4357 -1.1858 -1.3213
  156SAPE  H20S17394   4.165   5.598   8.552 -2.3859  1.7828  1.8497
  156SAPE  H20T17395   4.115   5.450   8.635 -1.7365 -1.9773 -0.5640
  156SAPE   C3317396   4.230   4.209   7.187 -0.2518 -0.8073 -0.0309
  156SAPE   H3X17397   4.299   4.289   7.221 -0.1822 -0.3233 -1.2723
  156SAPE   H3Y17398   4.277   4.155   7.102  1.2154  0.7782 -0.2637
  156SAPE   C3417399   4.200   4.123   7.308 -0.1211  0.6360 -1.3313
  156SAPE   H4X17400   4.161   4.025   7.273  0.6614  0.1932 -0.9940
  156SAPE   H4Y17401   4.119   4.164   7.372  2.3531  1.1236  1.6074
  156SAPE   C3517402   4.320   4.094   7.392 -0.8928 -0.5504 -0.0974
  156SAPE   H5X17403   4.388   4.178   7.417  0.4463 -1.7771  0.4061
  156SAPE   H5Y17404   4.380   4.019   7.338  1.4318  1.0678  0.1518
  156SAPE   C3617405   4.272   4.024   7.522 -0.2578  0.6474  0.8903
  156SAPE   H6X17406   4.207   3.937   7.496  1.4425 -0.4804  0.2652
  156SAPE   H6Y17407   4.203   4.088   7.580  0.2133  0.4467  1.6728
  156SAPE   C3717408   4.381   3.973   7.619  0.3870 -0.1013 -0.6422
  156SAPE   H7X17409   4.451   3.906   7.565 -0.8384 -2.9976  1.2293
  156SAPE   H7Y17410   4.323   3.910   7.690 -0.7286  1.7798  0.1731
  156SAPE   C3817411   4.458   4.084   7.699 -0.2324  0.1236 -0.5155
  156SAPE   H8X17412   4.495   4.166   7.634 -0.7119  1.8434  1.3234
  156SAPE   H8Y17413   4.548   4.028   7.733 -0.4636  1.3862  2.3323
  156SAPE   C3917414   4.383   4.143   7.823 -1.0386 -0.1877  0.3126
  156SAPE   H9X17415   4.299   4.208   7.790 -2.1237 -1.0426  1.2888
  156SAPE   H9Y17416   4.462   4.198   7.878 -1.3076 -0.6616  1.1921
  156SAPE  C31017417   4.330   4.039   7.922  0.4604 -0.8683  0.4004
  156SAPE  H10X17418   4.410   3.971   7.960  2.3792  2.2242  2.1449
  156SAPE  H10Y17419   4.246   3.987   7.873  0.8595  1.2361 -2.6223
  156SAPE  C31117420   4.264   4.107   8.048 -0.1527 -0.4424  0.6027
  156SAPE  H11X17421   4.211   4.028   8.107 -0.9535 -0.4738 -0.1433
  156SAPE  H11Y17422   4.197   4.184   8.005  2.0821  0.3742 -1.5058
  156SAPE  C31217423   4.351   4.179   8.147  0.7940 -0.6606 -0.2706
  156SAPE  H12X17424   4.394   4.267   8.095  1.3888 -0.6554  0.2281
  156SAPE  H12Y17425   4.428   4.107   8.182  2.7379  1.3052 -0.3629
  156SAPE  C31317426   4.283   4.220   8.280 -0.0095  0.1834  0.3271
  156SAPE  H13X17427   4.221   4.309   8.259  2.8655  1.6516 -2.1820
  156SAPE  H13Y17428   4.361   4.254   8.351 -0.1647 -0.9579  1.0673
  156SAPE  C31417429   4.220   4.103   8.346 -0.6753  0.5781 -0.4470
  156SAPE  H14X17430   4.303   4.034   8.372  1.0563  2.2658 -1.3533
  156SAPE  H14Y17431   4.137   4.052   8.294 -1.4066  2.6215 -1.3299
  156SAPE  C31517432   4.151   4.139   8.477 -0.3840  0.5341 -0.4073
  156SAPE  H15X17433   4.081   4.056   8.498  0.5542 -0.8710 -2.6778
  156SAPE  H15Y17434   4.100   4.237   8.464  1.2823  1.5715  0.6342
  156SAPE  C31617435   4.254   4.142   8.595  0.0953 -0.6705 -0.0628
  156SAPE  H16X17436   4.319   4.231   8.585  0.2134 -1.0213 -2.5078
  156SAPE  H16Y17437   4.327   4.058   8.588  2.0835  1.0610 -0.4269
  156SAPE  C31717438   4.183   4.143   8.736 -0.1979 -0.2782  0.2760
  156SAPE  H17X17439   4.257   4.165   8.815 -0.2234  0.5555  0.0786
  156SAPE  H17Y17440   4.145   4.043   8.763  0.4429 -0.6302 -0.1120
  156SAPE  C31817441   4.070   4.249   8.748  0.6644  0.5778 -0.5820
  156SAPE  H18X17442   3.979   4.224   8.689 -0.5246  2.9024  0.2037
  156SAPE  H18Y17443   4.100   4.351   8.718  0.7085  1.9947  3.9213
  156SAPE  H18Z17444   4.042   4.261   8.855 -1.0859 -0.8641 -0.8602
  157SAPE     N17445   2.215   6.516   6.229  0.1541 -0.2191  0.7530
  157SAPE   HN117446   2.169   6.554   6.314 -2.7189  0.0866 -0.8555
  157SAPE   HN217447   2.318   6.512   6.233  0.2129  1.0339  0.6515
  157SAPE   HN317448   2.208   6.594   6.161  0.8414  1.3226  2.4389
  157SAPE   C1217449   2.147   6.400   6.172 -1.1791 -0.0457 -0.7042
  157SAPE  H12A17450   2.197   6.316   6.224 -0.3223 -0.0974 -1.5907
  157SAPE  H12B17451   2.189   6.396   6.069  1.6411 -0.2238  0.4064
  157SAPE   C1117452   1.997   6.393   6.195  0.3541  0.5850 -0.6833
  157SAPE  H11A17453   1.938   6.483   6.166  2.1617  2.8845  2.4466
  157SAPE  H11B17454   1.983   6.382   6.305 -0.2646 -1.9607 -0.9816
  157SAPE     P17455   1.903   6.138   6.201  0.0448 -0.0913  0.7814
  157SAPE   O1317456   1.835   6.051   6.100  0.3533  0.1013 -1.0326
  157SAPE   O1417457   2.021   6.081   6.271 -0.2737 -0.0708 -0.0540
  157SAPE   O1217458   1.937   6.279   6.131 -0.5599 -0.6325  0.0007
  157SAPE   O1117459   1.802   6.177   6.315 -1.1750 -0.7958 -0.1911
  157SAPE    C117460   1.675   6.241   6.289  0.3584 -0.0787 -0.6187
  157SAPE    HA17461   1.688   6.340   6.338  0.5159 -0.0668 -0.6858
  157SAPE    HB17462   1.658   6.253   6.180 -1.1149 -0.3829 -0.4323
  157SAPE    C217463   1.560   6.157   6.357 -0.3612 -0.6706  0.1274
  157SAPE    HS17464   1.471   6.222   6.367  0.5527  0.9201 -1.6362
  157SAPE   O2117465   1.605   6.102   6.481 -0.1235  0.3363  0.3761
  157SAPE   C2117466   1.596   6.179   6.586 -0.1688 -0.8099 -0.7928
  157SAPE   O2217467   1.545   6.290   6.593  0.4409  0.4606 -0.0397
  157SAPE   C2217468   1.676   6.105   6.702  0.2159  0.4222  0.0760
  157SAPE   H2R17469   1.613   6.015   6.720  0.4102  0.0096 -1.2202
  157SAPE   H2S17470   1.775   6.083   6.657  1.5864  2.9229  1.7305
  157SAPE    C317471   1.519   6.035   6.273 -0.1804  0.2751 -0.5865
  157SAPE    HX17472   1.616   5.980   6.268 -0.7198 -1.0567  2.4413
  157SAPE    HY17473   1.500   6.062   6.167 -1.4350 -2.5989 -1.1297
  157SAPE   O3117474   1.416   5.952   6.331  0.2390  0.5476 -0.7704
  157SAPE   C3117475   1.294   5.990   6.299  0.2483  0.0312  0.1899
  157SAPE   O3217476   1.268   6.056   6.201  0.2993  0.0408 -0.5794
  157SAPE   C3217477   1.187   5.942   6.398 -0.6665 -0.1970 -0.7785
  157SAPE   H2X17478   1.210   5.834   6.414 -1.1291 -0.1772  0.0308
  157SAPE   H2Y17479   1.086   5.963   6.356 -2.0470 -1.0266  1.9544
  157SAPE   C2317480   1.682   6.197   6.831 -0.6652 -0.1644  0.1118
  157SAPE   H3R17481   1.578   6.216   6.867 -0.9324 -1.8409  0.2597
  157SAPE   H3S17482   1.723   6.296   6.804 -1.3120  0.0157 -0.2330
  157SAPE   C2417483   1.772   6.136   6.938 -0.1888 -0.1006 -0.3117
  157SAPE   H4R17484   1.875   6.122   6.897 -0.6638 -2.5854 -0.7084
  157SAPE   H4S17485   1.734   6.037   6.971 -0.1770 -0.5711 -1.6559
  157SAPE   C2517486   1.791   6.242   7.048 -0.2988 -0.0238  0.3848
  157SAPE   H5R17487   1.785   6.348   7.020  1.5575  0.2646  1.0004
  157SAPE   C2617488   1.794   6.220   7.181 -0.9665  0.4258 -0.1958
  157SAPE   H6R17489   1.796   6.308   7.247  0.9027  1.4931 -1.6237
  157SAPE   C2717490   1.796   6.084   7.246 -0.1813  0.5236 -0.7776
  157SAPE   H7R17491   1.877   6.078   7.322 -2.0785  0.7350  1.3160
  157SAPE   H7S17492   1.826   6.004   7.175 -1.6438  1.5402 -2.5799
  157SAPE   C2817493   1.669   6.050   7.321  0.7920 -0.1872  0.5567
  157SAPE   H8R17494   1.582   6.039   7.255  0.1471  1.4296  1.1184
  157SAPE   C2917495   1.650   6.061   7.458  0.1007  0.1499  0.2177
  157SAPE   H9R17496   1.553   6.029   7.498 -0.1714  0.8605  0.1257
  157SAPE  C21017497   1.759   6.101   7.557  0.5984 -0.3089  0.0097
  157SAPE  H10R17498   1.733   6.192   7.616 -2.0217  0.3062 -1.9853
  157SAPE  H10S17499   1.850   6.139   7.505 -1.9437  2.5962 -2.4954
  157SAPE  C21117500   1.785   5.978   7.645  0.8139 -0.4729 -0.5425
  157SAPE  H11R17501   1.795   5.879   7.600 -2.5797 -0.0099 -2.4680
  157SAPE  C21217502   1.788   5.963   7.778  0.0659  0.0409  0.5459
  157SAPE  H12R17503   1.811   5.861   7.812  0.5579 -0.0115  0.0559
  157SAPE  C21317504   1.780   6.068   7.885  0.1772 -0.3988  0.4888
  157SAPE  H13R17505   1.757   6.169   7.846  0.8268  0.3233  1.9157
  157SAPE  H13S17506   1.881   6.075   7.930 -0.2752 -1.6122  1.7190
  157SAPE  C21417507   1.695   6.026   7.998 -0.1636  0.2836  0.0873
  157SAPE  H14R17508   1.593   6.061   7.978 -0.8061 -0.6253  1.7651
  157SAPE  C21517509   1.725   5.959   8.109  0.5322  0.1469 -0.0132
  157SAPE  H15R17510   1.640   5.930   8.173  1.0427 -0.2027  0.5068
  157SAPE  C21617511   1.862   5.913   8.144 -0.2907  0.4125 -0.3100
  157SAPE  H16R17512   1.938   5.986   8.111  2.6509 -2.1116  0.6498
  157SAPE  H16S17513   1.890   5.815   8.099  0.6185  0.3753  0.3165
  157SAPE  C21717514   1.868   5.897   8.300 -0.3447  0.2425 -0.2018
  157SAPE  H17R17515   1.768   5.869   8.338 -0.2610 -0.6597 -0.6466
  157SAPE  H17S17516   1.895   5.997   8.342  2.6770 -0.0110 -1.3944
  157SAPE  C21817517   1.952   5.777   8.342  0.9420  0.4327 -0.5944
  157SAPE  H18R17518   2.046   5.800   8.288  0.5232  4.5328  0.2691
  157SAPE  H18S17519   1.919   5.679   8.303  0.5473  0.4527 -0.3242
  157SAPE  C21917520   1.969   5.763   8.493 -0.1481 -0.3198 -0.5328
  157SAPE  H19R17521   1.876   5.718   8.533  0.7272 -0.6387  1.1677
  157SAPE  H19S17522   1.998   5.867   8.520  0.6197 -0.6860  0.0605
  157SAPE  C22017523   2.089   5.673   8.535  0.2095  0.2760  0.3743
  157SAPE  H20R17524   2.082   5.572   8.489 -0.8455  0.1237  0.8484
  157SAPE  H20S17525   2.086   5.657   8.645 -1.1575 -3.0681 -0.0870
  157SAPE  H20T17526   2.187   5.718   8.507  0.6767 -1.9438 -1.7743
  157SAPE   C3317527   1.208   5.997   6.537  0.0366 -0.7826  0.3939
  157SAPE   H3X17528   1.315   5.973   6.554  0.2918  1.3702  2.0804
  157SAPE   H3Y17529   1.153   5.939   6.615 -2.5353  1.7800  0.5761
  157SAPE   C3417530   1.186   6.147   6.555  0.9531 -1.0574 -0.1322
  157SAPE   H4X17531   1.078   6.167   6.542  1.8424  2.6611 -2.7401
  157SAPE   H4Y17532   1.236   6.204   6.473 -0.6941  0.5081 -0.0761
  157SAPE   C3517533   1.235   6.194   6.695 -0.1735  0.2203 -0.2419
  157SAPE   H5X17534   1.214   6.303   6.693  0.8765  0.4236 -1.7474
  157SAPE   H5Y17535   1.343   6.183   6.721 -0.5525  0.0360  1.2589
  157SAPE   C3617536   1.168   6.109   6.808 -0.0186  0.0863 -0.7861
  157SAPE   H6X17537   1.218   6.013   6.829  1.9127  1.1851 -0.2899
  157SAPE   H6Y17538   1.061   6.087   6.788  0.0412  1.0870 -2.2843
  157SAPE   C3717539   1.186   6.190   6.940 -0.4769  0.5173  0.1612
  157SAPE   H7X17540   1.114   6.274   6.955 -1.0129 -0.0239  0.6583
  157SAPE   H7Y17541   1.288   6.232   6.946 -0.2945 -0.0651  1.2337
  157SAPE   C3817542   1.169   6.105   7.068 -0.3175  0.6658 -0.5565
  157SAPE   H8X17543   1.236   6.017   7.063  0.4163  1.0250  2.0926
  157SAPE   H8Y17544   1.062   6.073   7.072  0.0027 -0.4702 -0.7913
  157SAPE   C3917545   1.188   6.189   7.198  0.7311  0.5569 -0.0389
  157SAPE   H9X17546   1.152   6.293   7.182 -1.3446 -0.1430 -0.1491
  157SAPE   H9Y17547   1.294   6.216   7.212  0.6880 -1.0384  3.9436
  157SAPE  C31017548   1.124   6.127   7.322  0.3750  0.0434 -0.2986
  157SAPE  H10X17549   1.139   6.017   7.329 -0.2686 -0.1268 -1.3947
  157SAPE  H10Y17550   1.013   6.139   7.315  0.2311 -0.8471  0.3036
  157SAPE  C31117551   1.167   6.197   7.450  0.2254 -0.3584 -0.4988
  157SAPE  H11X17552   1.143   6.305   7.441  0.4232 -0.3837 -1.3320
  157SAPE  H11Y17553   1.278   6.198   7.452  0.2046  0.7465  0.7524
  157SAPE  C31217554   1.124   6.130   7.582 -0.0708  0.0164 -0.7081
  157SAPE  H12X17555   1.141   6.021   7.585 -0.7931 -0.1080 -0.9542
  157SAPE  H12Y17556   1.013   6.135   7.585 -0.0448  0.3292  0.1159
  157SAPE  C31317557   1.189   6.190   7.712 -0.1951 -0.1565 -0.0866
  157SAPE  H13X17558   1.181   6.300   7.715 -1.7532 -0.2882  1.1469
  157SAPE  H13Y17559   1.297   6.163   7.723 -0.2039 -0.3011 -0.3391
  157SAPE  C31417560   1.130   6.128   7.848  0.0537 -0.5927 -0.1847
  157SAPE  H14X17561   1.175   6.027   7.858  0.1693 -0.7662 -2.2164
  157SAPE  H14Y17562   1.020   6.123   7.838  0.1590 -0.0889 -1.7615
  157SAPE  C31517563   1.174   6.207   7.973  0.1982  0.4452 -1.1223
  157SAPE  H15X17564   1.135   6.311   7.963  0.7716  0.8727  0.8424
  157SAPE  H15Y17565   1.284   6.225   7.967  0.1745  1.1738  0.4350
  157SAPE  C31617566   1.123   6.137   8.103 -0.1637 -0.4585  0.2736
  157SAPE  H16X17567   1.015   6.117   8.087  0.0097 -1.7984  0.7081
  157SAPE  H16Y17568   1.136   6.222   8.173  2.3106 -0.2211 -0.4205
  157SAPE  C31717569   1.191   6.008   8.138 -1.1056 -0.4735 -0.4855
  157SAPE  H17X17570   1.301   6.025   8.129 -1.0593 -0.3181  0.3030
  157SAPE  H17Y17571   1.174   5.927   8.065  3.1728 -0.7507 -1.3174
  157SAPE  C31817572   1.167   5.955   8.278  0.3733 -1.0364  0.3156
  157SAPE  H18X17573   1.059   5.929   8.286 -0.4425  2.4240  1.7526
  157SAPE  H18Y17574   1.207   6.029   8.351 -0.5588 -0.6820  0.4773
  157SAPE  H18Z17575   1.211   5.854   8.293  0.1469 -1.5143 -2.1503
  158SAPE     N17576   3.908   3.455   6.462  0.1884 -0.4660  0.4131
  158SAPE   HN117577   4.005   3.439   6.495 -0.5625 -3.2938  1.3277
  158SAPE   HN217578   3.846   3.441   6.544 -1.1165  1.7315 -0.1266
  158SAPE   HN317579   3.882   3.384   6.390 -1.6389  0.7127 -0.1406
  158SAPE   C1217580   3.901   3.594   6.395  0.1007  0.4834  0.9200
  158SAPE  H12A17581   3.796   3.606   6.359  1.1777  0.9821 -2.2076
  158SAPE  H12B17582   3.964   3.590   6.304 -2.2293 -0.2929 -0.7203
  158SAPE   C1117583   3.944   3.705   6.488 -0.1781 -0.1147 -0.0782
  158SAPE  H11A17584   3.911   3.799   6.438 -0.4443 -1.2897 -2.1490
  158SAPE  H11B17585   4.051   3.696   6.516 -0.4272 -0.6494  0.7218
  158SAPE     P17586   3.728   3.751   6.644  0.2046 -0.2812  0.1146
  158SAPE   O1317587   3.634   3.686   6.549  0.7039 -0.3885 -0.4757
  158SAPE   O1417588   3.689   3.745   6.782 -0.2683  0.2176  0.1609
  158SAPE   O1217589   3.872   3.696   6.617 -0.6046 -0.2197  0.3216
  158SAPE   O1117590   3.740   3.892   6.590 -0.2146  0.0863  0.4457
  158SAPE    C117591   3.846   3.983   6.636  0.2414  0.3976  0.2946
  158SAPE    HA17592   3.936   3.928   6.670  0.3651  2.0849  2.8482
  158SAPE    HB17593   3.891   4.044   6.555 -0.4160 -1.8207 -1.7845
  158SAPE    C217594   3.785   4.089   6.739 -0.3995  0.3391 -0.0441
  158SAPE    HS17595   3.866   4.161   6.762 -0.3494  1.3390 -3.0911
  158SAPE   O2117596   3.742   4.024   6.864 -0.4763  0.0163  0.5205
  158SAPE   C2117597   3.831   3.979   6.949  0.2845 -0.2461  0.2596
  158SAPE   O2217598   3.948   4.006   6.936 -0.4470  0.2745 -0.6201
  158SAPE   C2217599   3.760   3.897   7.057  0.7572  1.3895 -0.1593
  158SAPE   H2R17600   3.690   3.970   7.102  0.2825 -0.4264  2.1163
  158SAPE   H2S17601   3.710   3.808   7.013 -1.5546  3.5629 -2.1069
  158SAPE    C317602   3.667   4.169   6.686  0.4269 -0.7139  0.6990
  158SAPE    HX17603   3.597   4.092   6.647 -0.9375  1.7657 -2.0004
  158SAPE    HY17604   3.686   4.219   6.588 -2.7130 -0.9330 -0.0777
  158SAPE   O3117605   3.593   4.243   6.780  0.5709  0.3717 -0.1303
  158SAPE   C3117606   3.593   4.380   6.780 -0.2412 -0.1842  0.0713
  158SAPE   O3217607   3.651   4.447   6.695  0.1501 -0.0635  0.1376
  158SAPE   C3217608   3.499   4.440   6.893  0.1913  0.5903  0.2749
  158SAPE   H2X17609   3.428   4.361   6.924 -0.9046  0.9983 -1.1282
  158SAPE   H2Y17610   3.446   4.529   6.853 -1.1145 -0.4789 -0.3879
  158SAPE   C2317611   3.869   3.840   7.154 -0.2026 -0.7108 -0.0456
  158SAPE   H3R17612   3.940   3.925   7.164  1.5086 -2.1682  0.3994
  158SAPE   H3S17613   3.922   3.756   7.103  2.0742  1.2385 -1.0261
  158SAPE   C2417614   3.812   3.804   7.287  0.2119 -0.8876 -0.4139
  158SAPE   H4R17615   3.746   3.718   7.266  0.1205 -1.4364  2.0008
  158SAPE   H4S17616   3.737   3.881   7.317 -0.6467 -1.7965 -0.2244
  158SAPE   C2517617   3.918   3.790   7.390 -0.5752 -0.1232 -0.0671
  158SAPE   H5R17618   4.019   3.825   7.366 -0.3616  0.2428  1.3375
  158SAPE   C2617619   3.890   3.740   7.515  0.6102 -0.8681  0.4464
  158SAPE   H6R17620   3.979   3.718   7.576  2.5051  0.5941 -1.6880
  158SAPE   C2717621   3.755   3.692   7.563  0.0667 -0.1396  0.3564
  158SAPE   H7R17622   3.679   3.673   7.485 -0.0574 -2.6479  1.0241
  158SAPE   H7S17623   3.706   3.770   7.624 -1.2599 -0.6066 -0.0930
  158SAPE   C2817624   3.750   3.570   7.647 -0.3039  0.6414  0.2798
  158SAPE   H8R17625   3.697   3.485   7.601  0.0406  0.5278  0.0964
  158SAPE   C2917626   3.789   3.547   7.775  0.4122  0.6674 -0.7929
  158SAPE   H9R17627   3.776   3.443   7.810 -1.5695  0.7799 -1.0969
  158SAPE  C21017628   3.859   3.652   7.857  0.0695 -0.1552 -0.1371
  158SAPE  H10R17629   3.785   3.701   7.924 -1.3796 -2.3152 -0.1124
  158SAPE  H10S17630   3.895   3.732   7.789 -3.0117  2.0247  0.7154
  158SAPE  C21117631   3.967   3.585   7.938  0.2351  0.2759  0.0305
  158SAPE  H11R17632   4.048   3.533   7.883 -0.5135 -2.2682  1.2331
  158SAPE  C21217633   3.977   3.581   8.076  0.2624 -0.2380  0.1472
  158SAPE  H12R17634   4.051   3.509   8.113 -0.3259  0.4438  2.7186
  158SAPE  C21317635   3.875   3.637   8.180  0.1149 -0.4903 -0.9140
  158SAPE  H13R17636   3.888   3.575   8.272 -0.0595 -0.1958 -0.6894
  158SAPE  H13S17637   3.767   3.626   8.157  0.0434  1.2092 -1.4221
  158SAPE  C21417638   3.904   3.782   8.207  0.0073 -0.0019  1.0849
  158SAPE  H14R17639   3.890   3.841   8.115 -1.7107 -1.1014  0.6280
  158SAPE  C21517640   3.921   3.829   8.332  0.0443  0.1270  0.3719
  158SAPE  H15R17641   3.931   3.938   8.346 -0.8966  0.3013 -0.2425
  158SAPE  C21617642   3.929   3.754   8.460 -0.6210  0.5024 -0.4358
  158SAPE  H16R17643   3.895   3.648   8.460 -0.4843  0.4519  0.3175
  158SAPE  H16S17644   3.863   3.813   8.528 -0.9826 -1.7642  1.2433
  158SAPE  C21717645   4.071   3.760   8.517  0.4472 -0.7202  0.0078
  158SAPE  H17R17646   4.060   3.719   8.620  0.0167 -0.5740  0.0199
  158SAPE  H17S17647   4.105   3.864   8.534 -1.1928  0.1465 -1.8611
  158SAPE  C21817648   4.185   3.673   8.458  0.0860  0.1885 -0.0232
  158SAPE  H18R17649   4.236   3.723   8.373  0.2532  3.4788  1.9118
  158SAPE  H18S17650   4.127   3.586   8.421 -0.7927  0.8775 -0.2900
  158SAPE  C21917651   4.294   3.646   8.562  0.2316 -0.2365 -0.0071
  158SAPE  H19R17652   4.356   3.561   8.523  0.8235  0.7870 -1.3231
  158SAPE  H19S17653   4.245   3.615   8.657 -2.0451  0.7728 -0.8175
  158SAPE  C22017654   4.387   3.761   8.606 -0.2579 -0.6626 -0.7422
  158SAPE  H20R17655   4.465   3.783   8.529  0.4845  0.5191  0.3137
  158SAPE  H20S17656   4.439   3.735   8.700 -0.3354  0.7713 -0.2916
  158SAPE  H20T17657   4.329   3.855   8.618  1.2523  0.3813 -1.3634
  158SAPE   C3317658   3.592   4.474   7.011 -0.4400 -0.1893 -0.5793
  158SAPE   H3X17659   3.534   4.517   7.095  0.3409  0.1474 -0.2050
  158SAPE   H3Y17660   3.653   4.564   6.985 -0.6662 -0.2785 -1.4411
  158SAPE   C3417661   3.675   4.354   7.068 -0.5949 -0.3289  0.1880
  158SAPE   H4X17662   3.764   4.334   7.005 -0.1437  0.1106  0.6770
  158SAPE   H4Y17663   3.614   4.262   7.083  0.5557 -1.3013 -1.0346
  158SAPE   C3517664   3.731   4.394   7.207 -0.3088  0.4907 -0.1797
  158SAPE   H5X17665   3.648   4.444   7.262  0.8560  0.5130  1.5863
  158SAPE   H5Y17666   3.818   4.462   7.191 -1.0806  0.8164 -3.2433
  158SAPE   C3617667   3.762   4.268   7.285  0.2561 -0.0867  0.4303
  158SAPE   H6X17668   3.844   4.202   7.248  0.7796  0.0097  1.4127
  158SAPE   H6Y17669   3.669   4.209   7.283  0.2173 -0.0169 -3.2571
  158SAPE   C3717670   3.795   4.295   7.432  0.2623 -0.1196 -0.1187
  158SAPE   H7X17671   3.882   4.363   7.440  0.7791 -0.7369 -0.4113
  158SAPE   H7Y17672   3.713   4.339   7.492 -0.0659  0.0557 -0.6836
  158SAPE   C3817673   3.834   4.159   7.501  0.6245  0.2389  0.4683
  158SAPE   H8X17674   3.915   4.115   7.439  0.6634  1.3701 -0.2946
  158SAPE   H8Y17675   3.748   4.094   7.475 -0.3474  1.2440  1.1176
  158SAPE   C3917676   3.867   4.178   7.649 -0.5264  0.6034 -0.3220
  158SAPE   H9X17677   3.779   4.216   7.704 -2.0477  0.1268 -2.3576
  158SAPE   H9Y17678   3.956   4.243   7.654 -0.2684  0.1838  0.6257
  158SAPE  C31017679   3.903   4.044   7.722  0.1381  0.4319 -0.3737
  158SAPE  H10X17680   3.977   3.985   7.664  2.3919  1.5639  1.2934
  158SAPE  H10Y17681   3.815   3.976   7.716  1.9392 -2.0516  0.4928
  158SAPE  C31117682   3.949   4.068   7.867  0.3561  0.1797  0.9391
  158SAPE  H11X17683   4.024   4.150   7.876  0.1478  0.3424  1.2134
  158SAPE  H11Y17684   3.988   3.972   7.905  0.6852  0.2914  0.8903
  158SAPE  C31217685   3.827   4.109   7.956  0.4213 -0.7266 -0.1672
  158SAPE  H12X17686   3.770   4.018   7.986 -0.3357  0.5068  2.2905
  158SAPE  H12Y17687   3.773   4.188   7.900  1.7455  1.0367  0.9559
  158SAPE  C31317688   3.882   4.169   8.087 -0.3056  0.5147  0.1319
  158SAPE  H13X17689   3.957   4.248   8.065 -0.6116  0.3491 -1.5730
  158SAPE  H13Y17690   3.933   4.090   8.146 -3.0603 -1.6555 -0.2718
  158SAPE  C31417691   3.768   4.212   8.183  0.1410  0.3137  0.4049
  158SAPE  H14X17692   3.721   4.121   8.226  0.2304  0.7624  1.4679
  158SAPE  H14Y17693   3.700   4.274   8.121  1.5939  1.5608  0.0317
  158SAPE  C31517694   3.813   4.292   8.303 -0.0066  0.2216 -1.0090
  158SAPE  H15X17695   3.862   4.386   8.268  2.0433  0.2218  1.6977
  158SAPE  H15Y17696   3.900   4.239   8.347 -2.3434 -2.8751 -0.0018
  158SAPE  C31617697   3.703   4.335   8.401 -0.2948  0.7526  0.1808
  158SAPE  H16X17698   3.737   4.412   8.474 -1.5730  0.8219  0.7164
  158SAPE  H16Y17699   3.694   4.252   8.474  0.5101 -0.5648 -1.2083
  158SAPE  C31717700   3.575   4.402   8.342  0.3873 -0.3773  0.3341
  158SAPE  H17X17701   3.514   4.332   8.282 -0.9732  0.6396  0.5011
  158SAPE  H17Y17702   3.611   4.478   8.269 -0.4663 -1.7798 -1.5768
  158SAPE  C31817703   3.470   4.470   8.437  0.9447  0.1675 -0.7017
  158SAPE  H18X17704   3.514   4.544   8.507  0.0562 -0.1226  0.1706
  158SAPE  H18Y17705   3.426   4.383   8.490 -0.4028  1.0717 -0.3011
  158SAPE  H18Z17706   3.389   4.520   8.379 -0.8276  0.3233  1.8105
  159SAPE     N17707   2.336   0.156   6.471 -0.3497  0.2842  0.0325
  159SAPE   HN117708   2.251   0.134   6.526 -2.1957  0.2433 -2.7235
  159SAPE   HN217709   2.399   0.211   6.532 -1.8231  2.6579 -0.5117
  159SAPE   HN317710   2.298   0.215   6.394 -2.1573 -0.0756  0.6411
  159SAPE   C1217711   2.413   0.038   6.414  0.4770 -0.1926 -0.0953
  159SAPE  H12A17712   2.353   0.004   6.327  1.5722 -1.5820 -0.3214
  159SAPE  H12B17713   2.415  -0.033   6.500 -0.2773 -1.2683 -0.9609
  159SAPE   C1117714   2.551   0.085   6.368 -0.3445 -1.0796  0.8981
  159SAPE  H11A17715   2.612  -0.005   6.344 -0.8090 -0.8761 -1.1173
  159SAPE  H11B17716   2.595   0.138   6.455 -0.0484 -0.5365  0.4233
  159SAPE     P17717   2.598   0.130   6.112 -0.1918  0.4462 -0.3260
  159SAPE   O1317718   2.527   0.006   6.081 -0.0627 -0.3681  0.0261
  159SAPE   O1417719   2.589   0.244   6.017  0.0722  0.1578  0.3983
  159SAPE   O1217720   2.539   0.178   6.252 -0.0508  0.0236  0.0131
  159SAPE   O1117721   2.748   0.098   6.142  0.0667 -0.1502  0.0913
  159SAPE    C117722   2.827   0.208   6.179  0.7721 -0.3297  0.5464
  159SAPE    HA17723   2.835   0.279   6.094 -1.9670  2.7647  2.7600
  159SAPE    HB17724   2.777   0.261   6.263 -1.8903 -2.7165  0.5522
  159SAPE    C217725   2.971   0.172   6.227 -0.4842  0.1150  0.4608
  159SAPE    HS17726   3.006   0.111   6.141 -0.1490 -0.8718  1.2897
  159SAPE   O2117727   2.975   0.104   6.351 -0.1433 -0.0942  0.7313
  159SAPE   C2117728   2.958  -0.028   6.346 -0.7231  0.4379  0.9045
  159SAPE   O2217729   2.960  -0.094   6.244  0.1563 -0.6873  0.2895
  159SAPE   C2217730   2.925  -0.080   6.492 -0.7887  0.1788 -0.0725
  159SAPE   H2R17731   3.022  -0.074   6.545 -0.3366 -2.0483 -0.5584
  159SAPE   H2S17732   2.845  -0.013   6.529  0.3645  2.9956 -2.4416
  159SAPE    C317733   3.059   0.298   6.242  0.4232 -1.4135 -0.7597
  159SAPE    HX17734   3.064   0.357   6.149  1.5099  1.4662  1.0614
  159SAPE    HY17735   3.165   0.268   6.257  0.4567 -0.9019  0.0344
  159SAPE   O3117736   3.007   0.386   6.340 -0.4888  0.7070  0.3059
  159SAPE   C3117737   3.058   0.371   6.460 -0.0701  0.1289 -0.3495
  159SAPE   O3217738   3.152   0.304   6.490 -0.9094 -0.1951  0.3354
  159SAPE   C3217739   2.961   0.452   6.552 -0.0217  0.4714  0.4662
  159SAPE   H2X17740   2.931   0.391   6.640 -0.4027 -0.4383 -0.2907
  159SAPE   H2Y17741   2.871   0.478   6.492 -1.2435  0.6933  2.3729
  159SAPE   C2317742   2.878  -0.231   6.495 -0.1112  0.7556 -0.1713
  159SAPE   H3R17743   2.957  -0.302   6.465 -0.1476  1.2738 -1.5167
  159SAPE   H3S17744   2.797  -0.253   6.422 -0.2374  1.7917 -0.3507
  159SAPE   C2417745   2.816  -0.283   6.627 -0.1240 -0.3649 -0.4317
  159SAPE   H4R17746   2.888  -0.259   6.708  0.8695 -2.4678 -0.6683
  159SAPE   H4S17747   2.806  -0.393   6.619  0.7756 -0.5376  0.7236
  159SAPE   C2517748   2.680  -0.221   6.653 -0.0302 -0.7016 -0.0085
  159SAPE   H5R17749   2.613  -0.220   6.566 -0.6156  1.7627  0.4459
  159SAPE   C2617750   2.639  -0.159   6.761 -1.3757 -0.9984  0.1212
  159SAPE   H6R17751   2.538  -0.116   6.760 -0.6159  0.8148 -1.6613
  159SAPE   C2717752   2.716  -0.135   6.892  0.2316  0.3235  0.4124
  159SAPE   H7R17753   2.826  -0.147   6.887  0.3719  0.0421  3.2112
  159SAPE   H7S17754   2.685  -0.209   6.969 -1.2476 -0.2854 -0.7487
  159SAPE   C2817755   2.687   0.002   6.946 -0.1158 -0.1470 -0.1027
  159SAPE   H8R17756   2.744   0.081   6.894 -0.9593  0.2831 -0.3808
  159SAPE   C2917757   2.599   0.039   7.035 -0.3341 -0.0631  0.0159
  159SAPE   H9R17758   2.590   0.145   7.062 -1.0892  0.0899 -0.8239
  159SAPE  C21017759   2.515  -0.052   7.121  0.3281 -0.3668  0.0919
  159SAPE  H10R17760   2.565  -0.087   7.214  1.2437  1.3254  0.2524
  159SAPE  H10S17761   2.487  -0.144   7.065  1.6056 -0.1979 -0.8536
  159SAPE  C21117762   2.390   0.025   7.152 -1.3779  0.2015  0.2206
  159SAPE  H11R17763   2.340   0.068   7.064  0.9549  1.6079 -0.4630
  159SAPE  C21217764   2.341   0.047   7.271 -0.7889 -0.8758 -0.5250
  159SAPE  H12R17765   2.250   0.107   7.283  0.4153  0.6622  1.0831
  159SAPE  C21317766   2.409  -0.004   7.405 -0.4560 -0.1811  1.0468
  159SAPE  H13R17767   2.498  -0.069   7.393  0.4945  1.0318  1.3551
  159SAPE  H13S17768   2.341  -0.070   7.462 -0.5323 -2.0100 -1.0954
  159SAPE  C21417769   2.452   0.112   7.481  0.7941  0.4301 -0.8205
  159SAPE  H14R17770   2.510   0.186   7.424 -0.4436  0.5130 -1.9792
  159SAPE  C21517771   2.431   0.122   7.617 -0.5458 -0.3865 -0.3207
  159SAPE  H15R17772   2.477   0.210   7.665 -2.1651 -0.5566  1.5943
  159SAPE  C21617773   2.342   0.034   7.703  0.1364  0.1222 -0.0395
  159SAPE  H16R17774   2.250   0.010   7.644 -0.2232  1.5801 -0.0865
  159SAPE  H16S17775   2.294   0.087   7.788  0.1588  1.5164 -0.8786
  159SAPE  C21717776   2.400  -0.099   7.756 -0.3075  0.5535 -0.1412
  159SAPE  H17R17777   2.502  -0.077   7.796 -0.0503 -1.8760  0.6507
  159SAPE  H17S17778   2.422  -0.175   7.678  0.4431  1.3661 -0.7397
  159SAPE  C21817779   2.326  -0.160   7.874  0.8726 -0.3871  1.0039
  159SAPE  H18R17780   2.221  -0.182   7.843  0.5978  1.5768  0.4743
  159SAPE  H18S17781   2.333  -0.076   7.947  1.1741 -0.2444  0.8087
  159SAPE  C21917782   2.391  -0.292   7.921  0.2224  0.1840 -0.2231
  159SAPE  H19R17783   2.495  -0.293   7.881 -0.2375 -0.5638 -1.4281
  159SAPE  H19S17784   2.344  -0.380   7.872  1.8716 -0.3167 -0.9506
  159SAPE  C22017785   2.383  -0.325   8.078  0.3421  0.2105 -0.2556
  159SAPE  H20R17786   2.453  -0.253   8.125 -0.5528  2.1675 -1.8370
  159SAPE  H20S17787   2.403  -0.432   8.102 -1.4261  0.1013  0.8609
  159SAPE  H20T17788   2.286  -0.292   8.120  0.5372  1.7194 -0.9728
  159SAPE   C3317789   3.040   0.579   6.612 -0.1102  0.4373 -0.2990
  159SAPE   H3X17790   2.951   0.632   6.654  0.3824  1.5875 -0.6927
  159SAPE   H3Y17791   3.087   0.634   6.528  2.4076 -0.1554  0.6902
  159SAPE   C3417792   3.140   0.539   6.722  0.8202  0.1288  0.3021
  159SAPE   H4X17793   3.195   0.454   6.676 -0.9312 -0.7809 -0.1247
  159SAPE   H4Y17794   3.093   0.505   6.817  2.4693 -3.0721  0.0660
  159SAPE   C3517795   3.247   0.642   6.747  0.2703 -0.3887 -0.2430
  159SAPE   H5X17796   3.196   0.737   6.772  2.1106  0.2812  1.0876
  159SAPE   H5Y17797   3.298   0.654   6.649 -0.6751  2.5117 -0.4005
  159SAPE   C3617798   3.343   0.598   6.853  0.4890 -0.5781 -0.5121
  159SAPE   H6X17799   3.300   0.601   6.956  1.2423 -1.2783 -0.1681
  159SAPE   H6Y17800   3.419   0.679   6.862 -0.2615  0.1217 -0.3404
  159SAPE   C3717801   3.409   0.454   6.834  0.3482  0.0278  0.3230
  159SAPE   H7X17802   3.458   0.457   6.734 -0.8154  1.7670 -0.2113
  159SAPE   H7Y17803   3.319   0.390   6.820  0.3614 -0.0810  0.7530
  159SAPE   C3817804   3.515   0.422   6.935 -0.7718  1.0867 -0.0647
  159SAPE   H8X17805   3.591   0.503   6.942  0.2107  0.2186 -0.5504
  159SAPE   H8Y17806   3.561   0.327   6.902 -0.6701  1.3814 -0.7957
  159SAPE   C3917807   3.450   0.395   7.072 -0.0135  0.4038 -0.1332
  159SAPE   H9X17808   3.385   0.305   7.063  0.9229 -0.4583  1.5072
  159SAPE   H9Y17809   3.384   0.478   7.103  1.4035  1.4677  0.0515
  159SAPE  C31017810   3.549   0.348   7.178  0.0762  0.4862 -0.2981
  159SAPE  H10X17811   3.612   0.436   7.202 -0.2008  0.2750  1.2519
  159SAPE  H10Y17812   3.605   0.261   7.139 -1.1659 -0.9471  1.0659
  159SAPE  C31117813   3.482   0.332   7.314 -0.5955 -0.1645  0.1511
  159SAPE  H11X17814   3.416   0.242   7.317 -1.0145  0.0787 -1.5096
  159SAPE  H11Y17815   3.422   0.421   7.343  0.5673  0.5341  0.4454
  159SAPE  C31217816   3.575   0.319   7.438 -0.5144  0.2547 -0.3192
  159SAPE  H12X17817   3.642   0.407   7.437  0.3630 -0.3771  0.7792
  159SAPE  H12Y17818   3.634   0.227   7.416  0.0656  0.8827 -1.3886
  159SAPE  C31317819   3.483   0.306   7.557  0.5762 -0.6216 -0.6824
  159SAPE  H13X17820   3.438   0.204   7.562 -0.9575  0.1417  2.8586
  159SAPE  H13Y17821   3.413   0.392   7.554  2.4478  1.1119  2.7347
  159SAPE  C31417822   3.569   0.309   7.682  0.1798  0.3644 -0.1733
  159SAPE  H14X17823   3.484   0.291   7.751  1.2258 -0.8650  0.7991
  159SAPE  H14Y17824   3.611   0.409   7.705  0.1754  1.0276 -2.8788
  159SAPE  C31517825   3.681   0.210   7.688 -0.1595  0.1070 -0.3473
  159SAPE  H15X17826   3.764   0.243   7.623 -0.9286  2.3641 -0.2506
  159SAPE  H15Y17827   3.646   0.113   7.648 -2.0639  1.0653 -1.1038
  159SAPE  C31617828   3.719   0.174   7.829 -0.6656  0.6605  0.4615
  159SAPE  H16X17829   3.622   0.149   7.877 -1.0790 -0.9877 -1.1822
  159SAPE  H16Y17830   3.755   0.260   7.890  1.5097 -0.4096  0.7381
  159SAPE  C31717831   3.803   0.044   7.851 -0.6763  0.0267  0.6790
  159SAPE  H17X17832   3.898   0.056   7.794 -2.0784 -0.1077 -1.7544
  159SAPE  H17Y17833   3.749  -0.038   7.799  0.8173 -1.5031  1.4643
  159SAPE  C31817834   3.834   0.015   7.997 -0.4923  0.4308 -0.1022
  159SAPE  H18X17835   3.745   0.018   8.063  0.4988 -2.7038  1.4853
  159SAPE  H18Y17836   3.908   0.090   8.033  1.5513 -1.0022 -1.1806
  159SAPE  H18Z17837   3.887  -0.082   8.003  0.2098  0.8047 -0.1780
  160SAPE     N17838   3.488   5.186   6.620 -0.1759  0.8246  0.1956
  160SAPE   HN117839   3.587   5.167   6.594 -0.0073  0.1143  1.3331
  160SAPE   HN217840   3.427   5.102   6.618 -0.9808  1.4139 -0.8806
  160SAPE   HN317841   3.460   5.255   6.547 -1.4451  0.1790  0.0657
  160SAPE   C1217842   3.512   5.254   6.750  0.1666  0.3745  0.4124
  160SAPE  H12A17843   3.620   5.276   6.765  0.3961 -0.2121 -0.3601
  160SAPE  H12B17844   3.483   5.173   6.820  1.4822 -2.0011 -1.7088
  160SAPE   C1117845   3.431   5.384   6.758 -0.3470  0.2294  0.3934
  160SAPE  H11A17846   3.452   5.420   6.861  0.1061 -0.8655  0.6943
  160SAPE  H11B17847   3.322   5.361   6.754  0.1274 -1.9745 -0.3956
  160SAPE     P17848   3.426   5.522   6.522  0.0150 -0.3018 -0.3459
  160SAPE   O1317849   3.502   5.634   6.467  0.3608 -0.5131 -0.1476
  160SAPE   O1417850   3.421   5.394   6.451  0.1102  0.0981 -0.2753
  160SAPE   O1217851   3.474   5.483   6.664  0.0151 -0.2468 -0.1488
  160SAPE   O1117852   3.272   5.558   6.535  0.0909  0.1677  0.0765
  160SAPE    C117853   3.240   5.693   6.570  0.1265  0.5508 -0.5475
  160SAPE    HA17854   3.323   5.767   6.575  1.0663 -0.3366 -2.4236
  160SAPE    HB17855   3.167   5.733   6.497  0.9739  2.8914 -0.1712
  160SAPE    C217856   3.175   5.688   6.716  0.2534 -0.0167 -0.2897
  160SAPE    HS17857   3.129   5.789   6.719  2.6746  1.0912  3.0538
  160SAPE   O2117858   3.268   5.674   6.828 -0.3926  0.1261 -0.2979
  160SAPE   C2117859   3.337   5.775   6.851 -0.7532  0.5970 -0.4279
  160SAPE   O2217860   3.333   5.883   6.800  0.6285  0.1519  0.4147
  160SAPE   C2217861   3.428   5.744   6.974  0.4419 -0.1116  0.3517
  160SAPE   H2R17862   3.372   5.722   7.067 -0.3407  0.3422 -0.0135
  160SAPE   H2S17863   3.484   5.651   6.949  0.7699 -0.1974  1.4052
  160SAPE    C317864   3.066   5.573   6.728 -0.5085 -0.2033  0.7895
  160SAPE    HX17865   3.107   5.471   6.719 -0.5619 -0.4060  2.8413
  160SAPE    HY17866   3.000   5.595   6.641  3.3511  0.7546 -2.0294
  160SAPE   O3117867   3.003   5.598   6.854  0.3657  0.0309  0.1484
  160SAPE   C3117868   3.049   5.523   6.952 -1.0136  0.1631  0.4191
  160SAPE   O3217869   3.110   5.417   6.932 -0.1654  0.1906 -0.1725
  160SAPE   C3217870   3.021   5.583   7.083 -0.7626  0.2909  1.1682
  160SAPE   H2X17871   2.916   5.553   7.100 -1.3414  0.1499 -2.4065
  160SAPE   H2Y17872   3.022   5.692   7.062  1.6834 -0.4676 -3.1882
  160SAPE   C2317873   3.535   5.857   6.996  0.4917 -0.4869  0.4163
  160SAPE   H3R17874   3.481   5.953   7.002  3.2401  1.1534 -0.4532
  160SAPE   H3S17875   3.600   5.856   6.906  1.8185 -2.5252  1.3477
  160SAPE   C2417876   3.630   5.835   7.112  0.4877 -0.0326 -0.6356
  160SAPE   H4R17877   3.722   5.894   7.093  1.2892 -1.6114 -1.7207
  160SAPE   H4S17878   3.671   5.733   7.102 -0.7321 -0.5799 -0.1459
  160SAPE   C2517879   3.570   5.864   7.245 -0.6939  0.9032 -0.0842
  160SAPE   H5R17880   3.487   5.935   7.230 -0.6856  1.8213  3.6011
  160SAPE   C2617881   3.589   5.793   7.364 -0.6905 -0.2313 -0.0203
  160SAPE   H6R17882   3.535   5.809   7.458  1.2063  1.2920  0.8395
  160SAPE   C2717883   3.694   5.684   7.383 -0.0815 -0.4762 -0.3732
  160SAPE   H7R17884   3.744   5.695   7.481 -0.0650  1.0739 -0.5500
  160SAPE   H7S17885   3.769   5.690   7.301 -0.3200 -0.1101 -0.5679
  160SAPE   C2817886   3.622   5.549   7.370 -0.4351  0.3622 -0.6480
  160SAPE   H8R17887   3.558   5.520   7.286  0.6994 -1.4367 -0.9297
  160SAPE   C2917888   3.638   5.442   7.449  0.5311  0.5504 -0.0984
  160SAPE   H9R17889   3.566   5.359   7.445  0.3510  0.5088  2.8091
  160SAPE  C21017890   3.722   5.420   7.568  0.9734  0.2881 -0.1049
  160SAPE  H10R17891   3.820   5.472   7.557 -0.1152  2.5048  0.4067
  160SAPE  H10S17892   3.757   5.317   7.549  2.7425  1.0914 -1.3224
  160SAPE  C21117893   3.654   5.418   7.708 -0.3068  0.6534  0.0008
  160SAPE  H11R17894   3.605   5.512   7.738 -1.4925 -0.3953  1.4195
  160SAPE  C21217895   3.651   5.310   7.795  0.7433  0.1188  0.1090
  160SAPE  H12R17896   3.602   5.342   7.889 -0.8212  1.0052 -0.9837
  160SAPE  C21317897   3.711   5.173   7.778  0.3407 -0.0893  0.1970
  160SAPE  H13R17898   3.724   5.144   7.671  1.4582 -1.5629  0.7219
  160SAPE  H13S17899   3.647   5.092   7.819 -1.9559  1.9247  0.7457
  160SAPE  C21417900   3.843   5.161   7.845  0.2694  0.0737 -0.0880
  160SAPE  H14R17901   3.927   5.166   7.773 -1.4406  1.9768 -2.0437
  160SAPE  C21517902   3.861   5.129   7.976 -0.5067  0.3924 -0.2294
  160SAPE  H15R17903   3.967   5.126   8.007 -0.9773  1.2309  1.5660
  160SAPE  C21617904   3.756   5.104   8.084 -0.7301 -0.0610  0.2317
  160SAPE  H16R17905   3.779   4.999   8.113  1.5192  0.4688  0.4817
  160SAPE  H16S17906   3.655   5.100   8.039 -0.6886  0.5902  0.0837
  160SAPE  C21717907   3.781   5.184   8.213 -0.1326 -0.3917  0.4006
  160SAPE  H17R17908   3.792   5.293   8.194  0.8914 -0.3155  1.4037
  160SAPE  H17S17909   3.876   5.156   8.262  0.7570 -0.8391 -1.5239
  160SAPE  C21817910   3.673   5.155   8.321 -0.4849  0.0976  0.3874
  160SAPE  H18R17911   3.691   5.049   8.352  0.0788  0.1044  0.0771
  160SAPE  H18S17912   3.572   5.167   8.276  0.5710  1.8316 -1.5892
  160SAPE  C21917913   3.688   5.250   8.443 -0.0374 -0.2403 -0.5447
  160SAPE  H19R17914   3.683   5.358   8.420  2.0948 -0.4499 -2.2659
  160SAPE  H19S17915   3.794   5.244   8.475 -0.9220  2.4564  3.1583
  160SAPE  C22017916   3.600   5.211   8.563 -0.0697  0.4592 -0.0539
  160SAPE  H20R17917   3.593   5.101   8.580  0.9073  0.4953  0.5905
  160SAPE  H20S17918   3.494   5.246   8.556 -0.3793 -0.4071  0.2132
  160SAPE  H20T17919   3.650   5.249   8.655  0.1769 -2.1353  0.9252
  160SAPE   C3317920   3.119   5.556   7.196 -0.3034 -0.0574 -0.5507
  160SAPE   H3X17921   3.208   5.623   7.191 -1.1208  0.9808 -1.2319
  160SAPE   H3Y17922   3.166   5.456   7.185 -0.0592 -0.4459  3.3430
  160SAPE   C3417923   3.053   5.567   7.327  0.1841 -0.0801  0.2219
  160SAPE   H4X17924   2.979   5.485   7.322 -0.7039  0.4851  3.2243
  160SAPE   H4Y17925   2.997   5.662   7.318  1.5511  0.4262 -4.0393
  160SAPE   C3517926   3.141   5.557   7.453 -0.7416  0.4094 -0.6132
  160SAPE   H5X17927   3.084   5.567   7.548  2.0949  1.8766  0.9875
  160SAPE   H5Y17928   3.203   5.648   7.454 -3.1442  2.1482 -2.9302
  160SAPE   C3617929   3.235   5.436   7.459 -0.7347 -0.7984  0.3345
  160SAPE   H6X17930   3.290   5.465   7.551 -1.8093  2.5585 -0.0142
  160SAPE   H6Y17931   3.305   5.427   7.373  1.4729  0.9784  1.8909
  160SAPE   C3717932   3.172   5.302   7.484  0.4650  0.1489  0.2280
  160SAPE   H7X17933   3.127   5.275   7.386  1.2772  0.0348 -0.1189
  160SAPE   H7Y17934   3.099   5.310   7.568  0.3997 -1.1488  0.3071
  160SAPE   C3817935   3.276   5.202   7.530  0.2211  0.5723 -0.4416
  160SAPE   H8X17936   3.327   5.251   7.616  1.4020 -0.9770 -0.2443
  160SAPE   H8Y17937   3.367   5.209   7.467  1.1863  1.2112  0.9776
  160SAPE   C3917938   3.221   5.061   7.565  0.0927 -0.3115 -0.5098
  160SAPE   H9X17939   3.176   5.020   7.472  0.1081 -2.3855  0.3891
  160SAPE   H9Y17940   3.134   5.084   7.629  0.4156  1.0165 -0.5313
  160SAPE  C31017941   3.331   4.967   7.621  0.6148  0.2128 -0.0117
  160SAPE  H10X17942   3.419   4.966   7.553 -1.6433 -0.4803 -3.0457
  160SAPE  H10Y17943   3.283   4.867   7.629 -1.2738  1.2997  3.1137
  160SAPE  C31117944   3.366   5.020   7.760  0.1229 -0.9139  0.8912
  160SAPE  H11X17945   3.285   5.084   7.800  0.8606  1.9191 -1.9936
  160SAPE  H11Y17946   3.451   5.090   7.744 -1.2272  0.1324 -1.7956
  160SAPE  C31217947   3.403   4.910   7.854 -0.1841 -0.6756  0.5754
  160SAPE  H12X17948   3.508   4.876   7.844  0.2046 -0.0624  2.3361
  160SAPE  H12Y17949   3.337   4.821   7.843 -0.3159 -0.2354 -2.5174
  160SAPE  C31317950   3.369   4.952   8.002 -0.9779  0.4977 -0.3910
  160SAPE  H13X17951   3.262   4.981   7.995 -1.1656  0.0769  0.5630
  160SAPE  H13Y17952   3.422   5.044   8.033  0.0241  0.2796 -1.4248
  160SAPE  C31417953   3.396   4.851   8.111 -0.4545  0.2920  0.0285
  160SAPE  H14X17954   3.500   4.814   8.098 -0.8726 -0.7844 -0.2605
  160SAPE  H14Y17955   3.313   4.779   8.099 -0.3852  0.0159  1.1994
  160SAPE  C31517956   3.382   4.916   8.246 -0.1578  0.1696  0.2828
  160SAPE  H15X17957   3.274   4.940   8.247 -0.5193 -1.4120  1.4803
  160SAPE  H15Y17958   3.433   5.014   8.239 -0.7958  0.3532 -2.4419
  160SAPE  C31617959   3.408   4.821   8.363 -0.1227  0.7709  0.1720
  160SAPE  H16X17960   3.518   4.827   8.377  0.1584 -0.9025 -1.2139
  160SAPE  H16Y17961   3.363   4.723   8.338  0.9257  0.7821 -1.8860
  160SAPE  C31717962   3.325   4.863   8.487  0.2120 -0.0402 -0.2527
  160SAPE  H17X17963   3.225   4.888   8.447 -0.7241  0.2283  2.1347
  160SAPE  H17Y17964   3.367   4.946   8.547  3.3267 -0.7329 -1.3643
  160SAPE  C31817965   3.297   4.750   8.587 -0.3352  0.4521 -0.5540
  160SAPE  H18X17966   3.394   4.717   8.630 -1.0093 -2.4674 -1.1646
  160SAPE  H18Y17967   3.242   4.664   8.544  0.4485 -0.8730  1.0263
  160SAPE  H18Z17968   3.237   4.794   8.669 -0.0743  2.4902 -1.4373
  161SOPE     N17969   2.647   6.617  10.665  0.7559  0.3156 -0.1441
  161SOPE   HN117970   2.726   6.684  10.670  1.6628 -0.8672  2.7745
  161SOPE   HN217971   2.637   6.565  10.754  2.9262 -2.4148 -1.4399
  161SOPE   HN317972   2.659   6.555  10.582 -0.3857  2.2491 -1.7937
  161SOPE   C1217973   2.529   6.708  10.633  0.4224  0.2677 -0.8737
  161SOPE  H12A17974   2.510   6.776  10.719  2.2976 -1.5322  1.0363
  161SOPE  H12B17975   2.442   6.643  10.610 -1.3761  1.9869  0.9074
  161SOPE   C1117976   2.569   6.796  10.517  0.4980  1.3454 -0.3530
  161SOPE  H11A17977   2.489   6.858  10.470  1.4876  1.5741 -1.7513
  161SOPE  H11B17978   2.586   6.737  10.425 -0.3911  1.8216 -0.8332
  161SOPE     P17979   2.690   7.011  10.610  0.2556  0.5582 -0.0973
  161SOPE   O1317980   2.824   7.070  10.622  0.5938 -0.3812 -0.6009
  161SOPE   O1417981   2.613   7.017  10.736  0.5344  0.1005  1.0094
  161SOPE   O1217982   2.692   6.864  10.551 -0.7195 -0.2380 -0.3420
  161SOPE   O1117983   2.604   7.086  10.506 -0.4704 -0.2400  0.2322
  161SOPE    C117984   2.651   7.090  10.371  0.2651 -0.0239  0.6817
  161SOPE    HA17985   2.610   7.004  10.314 -0.7759  1.7172 -1.2862
  161SOPE    HB17986   2.761   7.093  10.359  0.0672  2.1436 -1.1002
  161SOPE    C217987   2.591   7.212  10.296  0.4909 -0.0266 -0.2215
  161SOPE    HS17988   2.595   7.290  10.376  4.4256  0.1481 -0.5207
  161SOPE   O2117989   2.456   7.180  10.261  0.4000  0.0900 -0.7462
  161SOPE   C2117990   2.386   7.276  10.195  0.5952  0.5429  1.0661
  161SOPE   O2217991   2.418   7.393  10.182  0.0401  0.1975 -0.1862
  161SOPE   C2217992   2.264   7.225  10.120 -0.1382  0.3824  0.4074
  161SOPE   H2R17993   2.169   7.279  10.138 -1.4353 -1.7452  0.1447
  161SOPE   H2S17994   2.257   7.122  10.163 -2.0307  0.6361  0.7355
  161SOPE    C317995   2.678   7.263  10.169  0.6438 -0.2261  0.3215
  161SOPE    HX17996   2.785   7.281  10.197 -0.0400  2.3059  1.4483
  161SOPE    HY17997   2.636   7.364  10.152 -1.3627 -0.9545  0.8095
  161SOPE   O3117998   2.662   7.180  10.053 -0.4081  0.1100 -0.0824
  161SOPE   C3117999   2.761   7.094  10.028 -0.4192  0.0614 -0.3199
  161SOPE   O3218000   2.868   7.094  10.084  0.4138  0.1096 -0.5149
  161SOPE   C3218001   2.698   6.989   9.933 -0.3049 -0.0330 -0.7122
  161SOPE   H2X18002   2.593   6.972   9.964 -0.0327 -2.1942 -0.8973
  161SOPE   H2Y18003   2.743   6.888   9.950 -0.2810 -0.0754 -1.0269
  161SOPE   C2318004   2.283   7.214   9.961 -0.2961  0.0666 -0.2750
  161SOPE   H3R18005   2.225   7.125   9.928  1.0263 -0.5097 -1.0946
  161SOPE   H3S18006   2.388   7.186   9.939 -0.5653 -2.0064  0.9159
  161SOPE   C2418007   2.247   7.341   9.885 -0.5724 -0.6885 -0.2665
  161SOPE   H4R18008   2.143   7.379   9.894 -0.3336  0.5185 -2.2859
  161SOPE   H4S18009   2.318   7.416   9.926 -1.9924  0.7816 -0.4728
  161SOPE   C2518010   2.288   7.327   9.739  0.6443  0.8461  0.0611
  161SOPE   H5R18011   2.294   7.429   9.694  0.5336  0.1232 -1.6326
  161SOPE   H5S18012   2.394   7.295   9.734  0.5317  0.3186  0.9095
  161SOPE   C2618013   2.210   7.237   9.641  0.3367  0.3917  0.3963
  161SOPE   H6R18014   2.206   7.132   9.678  1.1322 -0.2021 -1.1629
  161SOPE   H6S18015   2.106   7.272   9.627  0.0217 -0.3238  0.9467
  161SOPE   C2718016   2.273   7.242   9.500  0.4583 -0.4916 -0.2653
  161SOPE   H7R18017   2.285   7.347   9.466 -0.6588 -0.0377  0.6956
  161SOPE   H7S18018   2.377   7.204   9.498  0.6258 -0.0052 -0.7241
  161SOPE   C2818019   2.200   7.158   9.394 -0.5219  0.1121 -0.0478
  161SOPE   H8R18020   2.258   7.154   9.300 -0.2625 -0.4318  0.1405
  161SOPE   H8S18021   2.199   7.052   9.427  0.8835  0.2608  0.4839
  161SOPE   C2918022   2.063   7.202   9.368  0.1200 -0.8616 -0.5741
  161SOPE   H9118023   1.991   7.174   9.447 -1.5804 -1.4274 -2.2825
  161SOPE  C21018024   2.021   7.274   9.253 -0.0979  0.5135 -0.5184
  161SOPE  H10118025   1.919   7.311   9.236  0.4967  1.5730 -1.8715
  161SOPE  C21118026   2.096   7.322   9.128 -0.1180  0.1348  0.6568
  161SOPE  H11R18027   2.193   7.367   9.156 -1.2398  3.2547 -0.2980
  161SOPE  H11S18028   2.039   7.396   9.069 -0.4873 -0.5717  0.1139
  161SOPE  C21218029   2.125   7.199   9.034  0.9909  0.0627 -1.0371
  161SOPE  H12R18030   2.028   7.148   9.013  0.1456  0.9050  0.7161
  161SOPE  H12S18031   2.180   7.123   9.093  0.0327 -0.6849 -1.1020
  161SOPE  C21318032   2.183   7.220   8.893 -0.1881 -0.0310  0.2630
  161SOPE  H13R18033   2.294   7.231   8.893  0.1738 -3.3589 -0.2895
  161SOPE  H13S18034   2.145   7.317   8.855 -0.7840 -0.0637  0.7582
  161SOPE  C21418035   2.142   7.106   8.794 -0.2432  0.9314 -0.6944
  161SOPE  H14R18036   2.032   7.092   8.786 -0.0340 -0.0014 -2.2964
  161SOPE  H14S18037   2.187   7.016   8.842 -0.2250  0.6906 -1.1579
  161SOPE  C21518038   2.203   7.101   8.659  0.1321  0.8476 -0.0836
  161SOPE  H15R18039   2.308   7.066   8.656 -0.5187 -1.3211  1.8028
  161SOPE  H15S18040   2.204   7.201   8.610  1.4000 -0.6700 -3.3030
  161SOPE  C21618041   2.130   7.015   8.551  0.3816 -0.5663  0.1990
  161SOPE  H16R18042   2.137   7.061   8.450  2.5088 -1.1027  0.0874
  161SOPE  H16S18043   2.022   7.023   8.574  0.1199 -0.7577 -0.9317
  161SOPE  C21718044   2.179   6.878   8.545  0.1056  0.6879  0.1021
  161SOPE  H17R18045   2.168   6.832   8.645  1.7815  2.2016  0.9956
  161SOPE  H17S18046   2.286   6.884   8.517 -0.2444  2.0673 -0.9875
  161SOPE  C21818047   2.103   6.790   8.440 -0.3081 -0.2282 -0.2199
  161SOPE  H18R18048   2.123   6.828   8.338 -1.2274  1.1905  0.1040
  161SOPE  H18S18049   1.995   6.778   8.465 -0.6010  0.7796 -0.9692
  161SOPE  H18T18050   2.141   6.686   8.435  0.7504  0.2066 -1.3019
  161SOPE   C3318051   2.695   7.005   9.788 -0.1102 -0.1673 -0.0226
  161SOPE   H3X18052   2.789   6.972   9.739  0.1601 -3.4411  2.5193
  161SOPE   H3Y18053   2.669   7.109   9.759  2.4995  0.0433 -1.7492
  161SOPE   C3418054   2.596   6.918   9.712 -0.3448 -0.0928  0.5912
  161SOPE   H4X18055   2.495   6.926   9.757 -1.3226 -1.9025 -1.2088
  161SOPE   H4Y18056   2.610   6.809   9.729 -2.1527 -0.3647  0.4272
  161SOPE   C3518057   2.584   6.957   9.557 -0.8445 -0.1541  0.0216
  161SOPE   H5X18058   2.567   7.067   9.564 -0.9692 -0.1182 -0.8504
  161SOPE   H5Y18059   2.498   6.913   9.501  0.5648 -0.5955 -1.8481
  161SOPE   C3618060   2.712   6.929   9.471 -0.1956 -0.8936 -0.4211
  161SOPE   H6X18061   2.763   6.843   9.520  1.7137  1.0615  1.1170
  161SOPE   H6Y18062   2.775   7.020   9.462  0.1118 -1.2123 -1.5834
  161SOPE   C3718063   2.686   6.902   9.316  0.4702 -0.1511  0.9420
  161SOPE   H7X18064   2.628   6.808   9.304  0.4576 -0.0218 -0.0188
  161SOPE   H7Y18065   2.789   6.878   9.284  0.8918  2.5634  0.1659
  161SOPE   C3818066   2.607   7.016   9.243  0.3798 -0.1352 -0.3154
  161SOPE   H8X18067   2.629   7.108   9.301 -0.9203 -0.0801  0.1127
  161SOPE   H8Y18068   2.498   6.992   9.241  0.1862  0.7568 -2.3605
  161SOPE   C3918069   2.655   7.033   9.101 -0.1074  0.3062  0.0667
  161SOPE   H9X18070   2.765   7.038   9.089 -0.3416  1.5845 -1.7798
  161SOPE   H9Y18071   2.598   7.117   9.055 -0.3224 -1.0590 -2.2509
  161SOPE  C31018072   2.614   6.921   9.011 -0.2671  0.2133 -0.6334
  161SOPE  H10X18073   2.516   6.880   9.043  1.1415 -1.8459  1.1447
  161SOPE  H10Y18074   2.670   6.828   9.034 -0.5770  0.1761 -0.0099
  161SOPE  C31118075   2.604   6.943   8.866 -0.7518 -0.1749  0.5177
  161SOPE  H11X18076   2.699   6.993   8.837 -0.7945  0.2517  1.0981
  161SOPE  H11Y18077   2.526   7.020   8.844  0.4715  0.8851 -0.1725
  161SOPE  C31218078   2.583   6.809   8.785 -0.5600 -0.0672  0.8021
  161SOPE  H12X18079   2.494   6.748   8.810  1.8851 -3.5523  1.2152
  161SOPE  H12Y18080   2.674   6.748   8.802  0.2139 -0.1693 -3.2579
  161SOPE  C31318081   2.564   6.844   8.635 -0.4390 -0.7635  0.0931
  161SOPE  H13X18082   2.647   6.910   8.603  0.9445 -2.7885 -0.6159
  161SOPE  H13Y18083   2.468   6.897   8.613 -1.0877 -2.3808 -1.0605
  161SOPE  C31418084   2.587   6.714   8.555  0.5415  0.1996  0.2742
  161SOPE  H14X18085   2.523   6.634   8.598  1.1319  1.2031  3.0919
  161SOPE  H14Y18086   2.691   6.676   8.559 -0.0171 -1.4925 -0.4980
  161SOPE  C31518087   2.553   6.725   8.407  0.1942 -0.1036  0.4730
  161SOPE  H15X18088   2.463   6.790   8.397  0.1907 -0.4416 -2.1087
  161SOPE  H15Y18089   2.536   6.625   8.362  3.9676 -1.0927  1.0570
  161SOPE  C31618090   2.663   6.784   8.331 -0.0934  0.7397  0.2120
  161SOPE  H16X18091   2.747   6.710   8.328 -0.7908  0.0000 -3.1974
  161SOPE  H16Y18092   2.714   6.870   8.378  0.8588 -0.1166  0.7798
  161SOPE  C31718093   2.624   6.809   8.190 -0.7884  0.4987 -0.5423
  161SOPE  H17X18094   2.535   6.874   8.175 -0.8072  0.8714  1.0644
  161SOPE  H17Y18095   2.605   6.711   8.142  3.0307 -0.2145 -0.6946
  161SOPE  C31818096   2.728   6.876   8.102 -0.3038  0.1393  0.0922
  161SOPE  H18X18097   2.737   6.978   8.145 -0.3907  1.2277 -2.3883
  161SOPE  H18Y18098   2.675   6.884   8.005 -0.0932 -0.4828 -0.0813
  161SOPE  H18Z18099   2.822   6.818   8.091 -0.6744 -0.6845  1.1353
  162SOPE     N18100   1.401   0.363  10.882 -0.1194  0.0964 -0.0130
  162SOPE   HN118101   1.443   0.457  10.869 -1.9359  1.0601  0.8159
  162SOPE   HN218102   1.312   0.388  10.929 -2.2826 -2.6018 -2.4504
  162SOPE   HN318103   1.452   0.302  10.949 -1.1564 -2.8218 -1.7832
  162SOPE   C1218104   1.367   0.287  10.757 -0.0205  0.1120 -0.2219
  162SOPE  H12A18105   1.462   0.250  10.713  0.9166 -0.1274  1.9573
  162SOPE  H12B18106   1.312   0.358  10.692 -0.5273  0.0475  0.1332
  162SOPE   C1118107   1.277   0.161  10.783 -0.0754  0.0163  0.0692
  162SOPE  H11A18108   1.265   0.098  10.693  2.1799 -1.9322  1.0899
  162SOPE  H11B18109   1.178   0.203  10.811 -1.1696 -1.7846 -1.0114
  162SOPE     P18110   1.426  -0.027  10.888  0.0992  0.1264 -0.4216
  162SOPE   O1318111   1.351  -0.155  10.878 -0.2739  0.5802 -0.2452
  162SOPE   O1418112   1.520  -0.002  11.006  0.6667  0.2027  0.0959
  162SOPE   O1218113   1.320   0.089  10.901 -0.9857 -0.2305  0.4892
  162SOPE   O1118114   1.507  -0.000  10.754  0.0241  0.0682  0.3873
  162SOPE    C118115   1.599  -0.087  10.699 -0.1049  0.3062 -0.5671
  162SOPE    HA18116   1.587  -0.189  10.741  1.6447  0.4865  0.4493
  162SOPE    HB18117   1.699  -0.045  10.723 -1.4139  2.5597  1.1073
  162SOPE    C218118   1.571  -0.092  10.548  1.0649  0.5003  0.5069
  162SOPE    HS18119   1.647  -0.147  10.489 -1.7996 -1.5887 -1.3740
  162SOPE   O2118120   1.555   0.042  10.497 -0.5962  0.1597  0.6822
  162SOPE   C2118121   1.665   0.114  10.478  0.5278 -0.3952 -0.6447
  162SOPE   O2218122   1.779   0.073  10.476 -0.3089 -0.3712  0.2423
  162SOPE   C2218123   1.630   0.261  10.457  0.1384  0.2982  0.0934
  162SOPE   H2R18124   1.696   0.316  10.527  0.4733  0.8036 -0.6132
  162SOPE   H2S18125   1.524   0.280  10.485  0.3947  0.3763  1.0182
  162SOPE    C318126   1.439  -0.171  10.516  0.1378  0.5359  0.1576
  162SOPE    HX18127   1.352  -0.124  10.567 -0.4169 -1.8324  1.4356
  162SOPE    HY18128   1.452  -0.276  10.549 -1.0193  0.2263 -0.3593
  162SOPE   O3118129   1.400  -0.173  10.380  0.3120 -0.6449  0.1279
  162SOPE   C3118130   1.462  -0.248  10.294  0.2901  0.0742  0.2704
  162SOPE   O3218131   1.540  -0.331  10.331  0.6003  0.4332 -0.0906
  162SOPE   C3218132   1.422  -0.215  10.154  0.1097 -0.0379 -0.8468
  162SOPE   H2X18133   1.374  -0.116  10.154  4.9752  2.5152  1.7132
  162SOPE   H2Y18134   1.347  -0.284  10.109  0.6543 -1.6032  0.5610
  162SOPE   C2318135   1.654   0.308  10.307  0.1969  0.4794 -0.3925
  162SOPE   H3R18136   1.642   0.418  10.318 -2.9315  0.0557  1.3939
  162SOPE   H3S18137   1.579   0.264  10.238  1.1178 -0.7398 -0.6221
  162SOPE   C2418138   1.796   0.284  10.242  0.0143  0.2746 -0.1390
  162SOPE   H4R18139   1.864   0.293  10.329 -0.0906 -1.9706  0.2141
  162SOPE   H4S18140   1.824   0.183  10.205  2.0721  0.3502  1.1750
  162SOPE   C2518141   1.832   0.380  10.126  0.2032 -0.5604  0.1975
  162SOPE   H5R18142   1.744   0.446  10.108 -0.2583 -1.3005 -0.3284
  162SOPE   H5S18143   1.914   0.443  10.164 -0.8937  0.4856  0.8598
  162SOPE   C2618144   1.870   0.297  10.001 -0.0674 -0.9033 -0.4384
  162SOPE   H6R18145   1.975   0.270  10.024 -0.3853 -0.2645  1.8401
  162SOPE   H6S18146   1.806   0.206   9.992 -2.1956  0.4140  1.0206
  162SOPE   C2718147   1.852   0.374   9.861  0.2235  0.0404 -0.2917
  162SOPE   H7R18148   1.752   0.422   9.862  1.4829  2.7566  0.2680
  162SOPE   H7S18149   1.927   0.456   9.868 -1.1297  1.3382 -0.7431
  162SOPE   C2818150   1.879   0.287   9.738  0.1173 -0.4506 -0.3227
  162SOPE   H8R18151   1.898   0.357   9.655 -1.7258 -0.7218 -1.0031
  162SOPE   H8S18152   1.979   0.242   9.755 -0.0549 -0.2337  1.3735
  162SOPE   C2918153   1.755   0.199   9.717  0.2568 -0.1348 -0.3052
  162SOPE   H9118154   1.675   0.183   9.791 -0.0597 -2.4155 -1.1037
  162SOPE  C21018155   1.741   0.124   9.606  0.4393 -0.5857 -0.5910
  162SOPE  H10118156   1.654   0.059   9.589 -0.9864  0.2921  2.8034
  162SOPE  C21118157   1.838   0.112   9.490 -0.2025 -0.6548  0.5636
  162SOPE  H11R18158   1.930   0.160   9.529 -1.9805  2.9188  0.5120
  162SOPE  H11S18159   1.807   0.174   9.403  1.7086  0.5616  0.7274
  162SOPE  C21218160   1.882  -0.025   9.441 -0.0673  0.3247 -0.2719
  162SOPE  H12R18161   1.791  -0.074   9.398 -0.1790  2.3532 -2.4408
  162SOPE  H12S18162   1.920  -0.085   9.527  0.7268 -0.2351 -1.0033
  162SOPE  C21318163   1.975  -0.012   9.320  0.0927 -0.5296 -0.3651
  162SOPE  H13R18164   2.071   0.033   9.353  1.1959 -0.4950 -3.3923
  162SOPE  H13S18165   1.940   0.058   9.241 -0.1686 -0.3442 -0.0836
  162SOPE  C21418166   1.999  -0.147   9.244  0.0775  0.0315  0.4047
  162SOPE  H14R18167   1.903  -0.195   9.218 -0.3189 -0.2061  2.1977
  162SOPE  H14S18168   2.056  -0.215   9.311  0.0561 -1.2967 -0.9060
  162SOPE  C21518169   2.095  -0.141   9.123 -0.4658  0.0946 -0.1305
  162SOPE  H15R18170   2.114  -0.245   9.091  1.4137 -0.1694  1.7558
  162SOPE  H15S18171   2.193  -0.100   9.154  0.0328 -0.8819 -0.4142
  162SOPE  C21618172   2.049  -0.050   9.012 -0.1642  0.3144  0.3474
  162SOPE  H16R18173   2.125  -0.060   8.932 -0.2389 -0.0275  0.3184
  162SOPE  H16S18174   2.038   0.056   9.044  1.2640  0.3364  0.7877
  162SOPE  C21718175   1.908  -0.084   8.950 -0.1999  0.2415 -0.0786
  162SOPE  H17R18176   1.825  -0.069   9.023  0.6000  2.0775  0.4828
  162SOPE  H17S18177   1.914  -0.193   8.929 -1.7519  0.2388 -0.5671
  162SOPE  C21818178   1.890  -0.011   8.817  0.3985 -0.2151 -0.2140
  162SOPE  H18R18179   1.941  -0.063   8.733 -0.0816 -0.6299 -0.2446
  162SOPE  H18S18180   1.939   0.087   8.839 -0.0695 -0.1831  0.6874
  162SOPE  H18T18181   1.782  -0.000   8.796  0.2234 -0.3790  0.5949
  162SOPE   C3318182   1.541  -0.185  10.060  0.1005  0.7366 -0.3174
  162SOPE   H3X18183   1.616  -0.267  10.068  0.4342  0.9761 -0.8898
  162SOPE   H3Y18184   1.594  -0.097  10.104 -0.6447 -0.0170  2.1518
  162SOPE   C3418185   1.490  -0.159   9.917  0.4601 -0.7069  0.0512
  162SOPE   H4X18186   1.574  -0.139   9.847 -0.0015 -0.9693 -0.5783
  162SOPE   H4Y18187   1.429  -0.066   9.922  0.7472 -0.6002  2.2489
  162SOPE   C3518188   1.409  -0.270   9.847 -0.5724  0.0325  0.1839
  162SOPE   H5X18189   1.321  -0.303   9.907  1.0790  0.9036  3.1613
  162SOPE   H5Y18190   1.475  -0.358   9.836 -1.2662 -0.6906  1.6226
  162SOPE   C3618191   1.362  -0.237   9.705 -0.3941 -0.5446 -0.6335
  162SOPE   H6X18192   1.435  -0.157   9.681 -2.7768  2.0800  0.4643
  162SOPE   H6Y18193   1.269  -0.176   9.712  0.3148  0.4729  0.2293
  162SOPE   C3718194   1.368  -0.350   9.605  0.2053  0.0234 -0.8813
  162SOPE   H7X18195   1.278  -0.414   9.595 -0.1557  0.3787  0.0344
  162SOPE   H7Y18196   1.462  -0.408   9.616  0.0813 -0.3354 -1.7100
  162SOPE   C3818197   1.378  -0.288   9.461  0.1141  1.0850 -0.0656
  162SOPE   H8X18198   1.469  -0.225   9.454  2.1998 -1.9520 -1.0387
  162SOPE   H8Y18199   1.295  -0.213   9.461  0.5359  1.5736  1.6096
  162SOPE   C3918200   1.380  -0.395   9.346 -0.2587  0.7547  0.7623
  162SOPE   H9X18201   1.291  -0.461   9.345  0.6556 -0.5014 -1.3552
  162SOPE   H9Y18202   1.469  -0.461   9.356  0.2910  1.2027 -0.9768
  162SOPE  C31018203   1.383  -0.331   9.206  0.0714  0.0677 -0.2330
  162SOPE  H10X18204   1.479  -0.277   9.190  0.4689 -0.8025 -0.8581
  162SOPE  H10Y18205   1.296  -0.262   9.208 -0.8674 -1.0990 -0.0341
  162SOPE  C31118206   1.354  -0.434   9.095 -0.1537 -0.0541  0.0354
  162SOPE  H11X18207   1.269  -0.502   9.116  1.4228 -2.0145  0.2476
  162SOPE  H11Y18208   1.443  -0.501   9.103 -0.4145 -0.5696 -1.3623
  162SOPE  C31218209   1.332  -0.377   8.955  0.1289  0.3126 -1.1314
  162SOPE  H12X18210   1.399  -0.292   8.930 -0.3800  1.1196  0.1600
  162SOPE  H12Y18211   1.229  -0.337   8.966  0.0137 -0.0437 -0.9082
  162SOPE  C31318212   1.323  -0.481   8.842 -0.2451 -0.9171 -0.6801
  162SOPE  H13X18213   1.322  -0.421   8.749 -0.2714  1.7630  0.9995
  162SOPE  H13Y18214   1.230  -0.541   8.850 -1.4971  1.1968  1.2096
  162SOPE  C31418215   1.452  -0.577   8.835 -0.1163  0.5609  0.0088
  162SOPE  H14X18216   1.454  -0.648   8.921 -1.1683 -2.9150 -2.7207
  162SOPE  H14Y18217   1.543  -0.514   8.847 -0.7575  1.3221  0.9997
  162SOPE  C31518218   1.453  -0.666   8.713  0.0552  0.1194 -0.9628
  162SOPE  H15X18219   1.354  -0.717   8.702  0.6301 -1.7913  2.0135
  162SOPE  H15Y18220   1.530  -0.746   8.723  0.7355  1.0266  1.2750
  162SOPE  C31618221   1.484  -0.582   8.587 -0.2932 -0.0742 -0.0643
  162SOPE  H16X18222   1.576  -0.522   8.604 -0.4551  0.1274  0.1052
  162SOPE  H16Y18223   1.408  -0.503   8.572 -1.5566 -1.2034  0.3472
  162SOPE  C31718224   1.505  -0.661   8.467 -0.0229  0.1298  0.0144
  162SOPE  H17X18225   1.421  -0.732   8.451 -1.0011  0.9437  1.4900
  162SOPE  H17Y18226   1.587  -0.736   8.474  0.2315  0.5613  1.9823
  162SOPE  C31818227   1.511  -0.584   8.342  0.3894 -0.4227 -0.7750
  162SOPE  H18X18228   1.530  -0.649   8.253  0.3895 -2.4376  0.6683
  162SOPE  H18Y18229   1.592  -0.507   8.339 -1.4408  1.5482 -0.9872
  162SOPE  H18Z18230   1.420  -0.525   8.318  0.2188 -0.3161  0.1417
  163SOPE     N18231   0.743   4.011  10.684 -0.1127 -0.3783  0.2600
  163SOPE   HN118232   0.730   4.071  10.600  2.8673  0.8115  0.6001
  163SOPE   HN218233   0.696   4.060  10.763 -2.5151  1.6698 -2.3028
  163SOPE   HN318234   0.844   4.020  10.706 -0.0088 -1.0679  0.0655
  163SOPE   C1218235   0.699   3.869  10.660  0.7215  1.5411 -0.9899
  163SOPE  H12A18236   0.692   3.857  10.550  1.3149 -0.0086 -0.8726
  163SOPE  H12B18237   0.598   3.862  10.704  1.0260  0.6273 -0.4192
  163SOPE   C1118238   0.794   3.763  10.721  0.2204  0.5482  0.2884
  163SOPE  H11A18239   0.775   3.670  10.665  1.1598 -1.3336  2.9820
  163SOPE  H11B18240   0.753   3.754  10.824  0.8142 -1.9179  0.3285
  163SOPE     P18241   1.042   3.703  10.779 -0.3489 -0.0517 -0.2553
  163SOPE   O1318242   0.993   3.656  10.908 -0.0194 -0.4030  0.5733
  163SOPE   O1418243   1.172   3.777  10.780  0.4103 -0.3222  0.6472
  163SOPE   O1218244   0.932   3.798  10.716  0.4492 -0.3114 -0.0015
  163SOPE   O1118245   1.048   3.583  10.676 -0.0056  0.0678 -0.0995
  163SOPE    C118246   1.138   3.563  10.566  0.2942 -0.2042  0.6628
  163SOPE    HA18247   1.132   3.455  10.540  1.2098 -0.2837  0.7750
  163SOPE    HB18248   1.237   3.591  10.607  0.7588  0.4566 -0.8548
  163SOPE    C218249   1.101   3.658  10.444  0.4551  0.0295 -0.4679
  163SOPE    HS18250   1.120   3.764  10.472  2.3638 -0.3203 -0.3681
  163SOPE   O2118251   0.967   3.630  10.410  0.0707  0.2913 -0.6152
  163SOPE   C2118252   0.912   3.731  10.344 -0.0791 -0.6334  0.7475
  163SOPE   O2218253   0.959   3.838  10.327 -0.6408 -0.2745  0.8136
  163SOPE   C2218254   0.770   3.697  10.322  0.6822 -0.7973 -0.4049
  163SOPE   H2R18255   0.712   3.792  10.319  2.6726  0.4612 -0.4243
  163SOPE   H2S18256   0.732   3.651  10.416 -0.4078  1.9158  0.5353
  163SOPE    C318257   1.199   3.611  10.334 -0.4317  0.4320  0.6477
  163SOPE    HX18258   1.191   3.500  10.330  0.8256  0.3798 -0.7755
  163SOPE    HY18259   1.303   3.627  10.369 -0.2517  0.4523  0.1041
  163SOPE   O3118260   1.177   3.679  10.211  0.0170 -0.7004  0.9030
  163SOPE   C3118261   1.249   3.634  10.109 -0.0559 -0.2044  0.2726
  163SOPE   O3218262   1.339   3.551  10.115 -0.2491 -0.2179  0.0820
  163SOPE   C3218263   1.207   3.711   9.989 -0.1751 -0.4789 -0.5297
  163SOPE   H2X18264   1.236   3.817  10.003 -2.5728  0.0531  0.7119
  163SOPE   H2Y18265   1.099   3.693   9.972 -0.7223  1.0282  1.1689
  163SOPE   C2318266   0.754   3.618  10.197  0.0716 -0.6943 -0.0400
  163SOPE   H3R18267   0.649   3.581  10.194 -0.8447  1.8452 -0.8996
  163SOPE   H3S18268   0.813   3.524  10.189  0.3624 -0.7021  1.9102
  163SOPE   C2418269   0.777   3.695  10.067 -0.1467 -0.0439  0.3721
  163SOPE   H4R18270   0.736   3.797  10.078  1.6995  0.7239  0.2239
  163SOPE   H4S18271   0.885   3.708  10.046 -0.6342  0.9067 -1.7403
  163SOPE   C2518272   0.716   3.635   9.940 -0.0383  0.1005  0.8683
  163SOPE   H5R18273   0.755   3.532   9.927  1.8262  0.9166 -0.2845
  163SOPE   H5S18274   0.606   3.620   9.952  0.1273 -0.6023  1.6176
  163SOPE   C2618275   0.757   3.702   9.807  0.8010 -0.1359  0.1124
  163SOPE   H6R18276   0.684   3.780   9.777  0.0633 -0.7352  0.3366
  163SOPE   H6S18277   0.852   3.758   9.822  0.6960  0.1115 -0.1347
  163SOPE   C2718278   0.777   3.608   9.684  0.3012  0.3529  0.5347
  163SOPE   H7R18279   0.856   3.539   9.718 -1.4123 -0.4341  3.0307
  163SOPE   H7S18280   0.683   3.558   9.654  0.3914  1.3544 -1.5397
  163SOPE   C2818281   0.838   3.679   9.566 -0.1600  0.0484  0.5116
  163SOPE   H8R18282   0.778   3.765   9.529  0.3009  0.0931 -0.1427
  163SOPE   H8S18283   0.938   3.712   9.601 -0.2672 -1.9745  2.8792
  163SOPE   C2918284   0.854   3.580   9.455  0.0154  0.2493  0.4349
  163SOPE   H9118285   0.869   3.474   9.478 -1.1268  0.1206  0.6113
  163SOPE  C21018286   0.866   3.615   9.323 -0.5453 -0.0713  0.3919
  163SOPE  H10118287   0.865   3.536   9.247  0.0296 -1.2296  1.5586
  163SOPE  C21118288   0.865   3.743   9.245 -0.0468  0.1758  0.0261
  163SOPE  H11R18289   0.962   3.760   9.193  0.3897 -1.8035  0.1659
  163SOPE  H11S18290   0.853   3.829   9.314 -1.5053  0.9321 -1.1493
  163SOPE  C21218291   0.771   3.759   9.129 -0.0213 -0.0321 -0.9338
  163SOPE  H12R18292   0.798   3.848   9.068 -0.1746  2.2057  2.1162
  163SOPE  H12S18293   0.667   3.770   9.167 -0.2126 -0.2984 -1.3860
  163SOPE  C21318294   0.774   3.637   9.037 -0.1351 -0.5458 -0.3482
  163SOPE  H13R18295   0.738   3.543   9.083 -1.1234 -0.1603 -0.3137
  163SOPE  H13S18296   0.880   3.628   9.004 -0.6092  1.5276 -2.5746
  163SOPE  C21418297   0.684   3.655   8.912 -0.1674  0.6273 -0.1899
  163SOPE  H14R18298   0.701   3.752   8.860 -0.2632  0.9965  0.4687
  163SOPE  H14S18299   0.580   3.665   8.949  0.5345  2.4141  1.3810
  163SOPE  C21518300   0.691   3.542   8.801 -1.3669  0.1465  0.4015
  163SOPE  H15R18301   0.675   3.442   8.845 -1.7482 -0.9107 -2.0762
  163SOPE  H15S18302   0.789   3.546   8.750 -1.6704  3.2088 -0.0287
  163SOPE  C21618303   0.579   3.563   8.692  1.1190  0.0047 -0.2917
  163SOPE  H16R18304   0.603   3.653   8.631 -1.8704  0.8946 -0.2189
  163SOPE  H16S18305   0.481   3.579   8.742  1.3634 -1.9447  0.8580
  163SOPE  C21718306   0.581   3.437   8.602  0.1869 -0.4320  0.3017
  163SOPE  H17R18307   0.533   3.361   8.666 -1.8573 -0.5943 -1.3705
  163SOPE  H17S18308   0.684   3.413   8.570 -0.8302  0.3054 -3.8674
  163SOPE  C21818309   0.476   3.462   8.480 -0.4686 -0.2021 -0.0812
  163SOPE  H18R18310   0.462   3.365   8.428  0.4516 -0.7649  0.6988
  163SOPE  H18S18311   0.511   3.546   8.416 -0.6975 -0.0648 -0.0262
  163SOPE  H18T18312   0.373   3.489   8.512  0.1534  2.3007 -0.0993
  163SOPE   C3318313   1.266   3.654   9.864 -0.5479  0.4571 -0.2183
  163SOPE   H3X18314   1.264   3.544   9.881 -1.7331  0.7966  2.0239
  163SOPE   H3Y18315   1.376   3.672   9.854 -0.4697  0.6439  0.8869
  163SOPE   C3418316   1.195   3.701   9.736 -0.0217 -0.1848  0.7124
  163SOPE   H4X18317   1.255   3.786   9.698  3.4829 -2.4059  1.0993
  163SOPE   H4Y18318   1.092   3.734   9.762  1.5024  2.6713  3.5335
  163SOPE   C3518319   1.190   3.591   9.615 -0.0028  0.3053  0.3504
  163SOPE   H5X18320   1.142   3.637   9.527 -0.3314  2.5737  1.6845
  163SOPE   H5Y18321   1.130   3.504   9.649  0.5355 -0.2005  0.0182
  163SOPE   C3618322   1.331   3.551   9.572  0.1098  0.1944 -0.0042
  163SOPE   H6X18323   1.388   3.517   9.662 -1.0279 -0.8909  0.3096
  163SOPE   H6Y18324   1.381   3.638   9.523  0.5877  0.3323  0.7195
  163SOPE   C3718325   1.327   3.436   9.472 -0.2991  0.0913 -0.4976
  163SOPE   H7X18326   1.271   3.356   9.525  0.8993 -0.0838  0.5338
  163SOPE   H7Y18327   1.429   3.402   9.443 -1.0401 -1.8080 -0.9954
  163SOPE   C3818328   1.269   3.461   9.340  0.1173  0.4691  0.8931
  163SOPE   H8X18329   1.166   3.501   9.346  0.1213  0.8633 -1.2184
  163SOPE   H8Y18330   1.278   3.366   9.282  0.5193  1.0350  0.0277
  163SOPE   C3918331   1.337   3.567   9.248 -0.1972 -0.0708  0.4793
  163SOPE   H9X18332   1.437   3.532   9.213  0.8201  2.0334  1.1457
  163SOPE   H9Y18333   1.365   3.661   9.301 -2.6257  0.6158  0.5934
  163SOPE  C31018334   1.260   3.595   9.114 -0.4364 -0.4001  0.5270
  163SOPE  H10X18335   1.327   3.658   9.051 -1.3946  0.2166  0.1120
  163SOPE  H10Y18336   1.180   3.661   9.155 -0.2944  1.0015 -1.3672
  163SOPE  C31118337   1.197   3.481   9.044  0.7070 -0.2204  0.8750
  163SOPE  H11X18338   1.114   3.524   8.984 -0.0879 -1.2096  1.2487
  163SOPE  H11Y18339   1.137   3.418   9.113  2.2334 -1.4507  1.1144
  163SOPE  C31218340   1.308   3.404   8.967  0.3549 -0.5371 -0.3987
  163SOPE  H12X18341   1.382   3.361   9.037  0.5269 -0.6903 -0.6761
  163SOPE  H12Y18342   1.353   3.472   8.892 -1.6721  1.6926  0.3111
  163SOPE  C31318343   1.257   3.281   8.888  0.2917  0.3894 -0.1467
  163SOPE  H13X18344   1.202   3.227   8.968 -0.2410  0.9714 -0.1120
  163SOPE  H13Y18345   1.336   3.215   8.847  0.3828  1.0153 -0.9943
  163SOPE  C31418346   1.152   3.321   8.782  0.5474  0.8338  0.2901
  163SOPE  H14X18347   1.193   3.383   8.699  0.3865  0.9177  0.2722
  163SOPE  H14Y18348   1.070   3.376   8.834  0.9284  0.4844  1.2699
  163SOPE  C31518349   1.092   3.194   8.725 -0.0713  0.0665 -0.6432
  163SOPE  H15X18350   1.061   3.134   8.813  2.7545 -0.4432  0.0573
  163SOPE  H15Y18351   1.174   3.137   8.675 -1.2550  0.3030 -2.9263
  163SOPE  C31618352   0.986   3.229   8.632  0.1991  0.1972  0.4474
  163SOPE  H16X18353   1.003   3.321   8.572  0.8454 -0.1574  0.0742
  163SOPE  H16Y18354   0.891   3.241   8.688  0.3612 -2.5785  1.4055
  163SOPE  C31718355   0.981   3.115   8.522 -0.3693 -0.3064  0.5483
  163SOPE  H17X18356   0.905   3.036   8.540 -1.1872  0.1218 -0.9405
  163SOPE  H17Y18357   1.077   3.060   8.515  1.0433  1.9978  1.1986
  163SOPE  C31818358   0.955   3.170   8.376  0.1701  0.3528  0.4426
  163SOPE  H18X18359   1.030   3.246   8.345  0.4893  1.2219  3.2078
  163SOPE  H18Y18360   0.864   3.231   8.393 -1.2782 -1.9527  1.2144
  163SOPE  H18Z18361   0.939   3.089   8.302  0.0065  1.0681 -0.3156
  164SOPE     N18362   4.562   2.328  11.161 -0.5382 -0.6341  0.2238
  164SOPE   HN118363   4.564   2.363  11.064 -0.2667 -1.1123  0.0530
  164SOPE   HN218364   4.466   2.347  11.199 -0.2060  1.9486 -0.1838
  164SOPE   HN318365   4.634   2.376  11.218  0.8707 -2.4383 -0.0070
  164SOPE   C1218366   4.583   2.180  11.152  0.3430  0.2788 -0.0595
  164SOPE  H12A18367   4.537   2.136  11.062  0.4200  1.0803 -0.4919
  164SOPE  H12B18368   4.544   2.138  11.248 -1.0301 -0.6168 -1.0014
  164SOPE   C1118369   4.734   2.150  11.146  0.0788  0.5718 -0.6290
  164SOPE  H11A18370   4.749   2.043  11.169 -0.4302  0.4816 -0.7141
  164SOPE  H11B18371   4.780   2.203  11.232  0.8152  0.7328 -1.1090
  164SOPE     P18372   4.782   2.101  10.898  0.1807  0.6844  0.1232
  164SOPE   O1318373   4.640   2.093  10.857  0.2953  0.2576  0.6760
  164SOPE   O1418374   4.855   1.969  10.903 -0.2738  0.0491  0.0988
  164SOPE   O1218375   4.802   2.184  11.027 -0.1385 -0.1210 -0.3216
  164SOPE   O1118376   4.847   2.189  10.790  0.0365  0.1800  0.7120
  164SOPE    C118377   4.793   2.315  10.739  0.1294  0.4489 -1.0485
  164SOPE    HA18378   4.878   2.386  10.743  1.3611 -1.0207 -0.5851
  164SOPE    HB18379   4.728   2.363  10.815  2.5914 -0.6580  1.8765
  164SOPE    C218380   4.735   2.300  10.600  0.3589 -0.0675 -0.5996
  164SOPE    HS18381   4.663   2.215  10.603 -0.3563  0.5687  0.2902
  164SOPE   O2118382   4.842   2.271  10.499 -0.0481 -0.5395 -0.2771
  164SOPE   C2118383   4.796   2.224  10.391 -1.0471  0.0841  0.4493
  164SOPE   O2218384   4.678   2.200  10.364 -0.0100 -0.3349  0.4341
  164SOPE   C2218385   4.906   2.184  10.301 -0.5324  0.3901  1.2732
  164SOPE   H2R18386   4.868   2.088  10.261 -1.2351  1.4128 -0.5437
  164SOPE   H2S18387   4.996   2.157  10.361  0.6520  0.3684 -0.4813
  164SOPE    C318388   4.662   2.432  10.558  0.3692 -0.6137  0.4147
  164SOPE    HX18389   4.595   2.453  10.644  0.8917  0.5820  0.5454
  164SOPE    HY18390   4.589   2.405  10.478 -0.8643 -0.3375  1.4210
  164SOPE   O3118391   4.745   2.539  10.527 -0.5688  0.3217  0.3740
  164SOPE   C3118392   4.727   2.594  10.402 -0.6185  0.4508 -0.4873
  164SOPE   O3218393   4.652   2.552  10.320  0.3873  0.3123 -0.5158
  164SOPE   C3218394   4.798   2.723  10.388  0.3872 -0.0352 -0.1105
  164SOPE   H2X18395   4.900   2.710  10.431  0.1821 -1.9232 -0.1357
  164SOPE   H2Y18396   4.754   2.793  10.462  2.1731  1.9637 -0.8689
  164SOPE   C2318397   4.946   2.293  10.198  0.5912 -0.7547 -0.0082
  164SOPE   H3R18398   5.008   2.366  10.254  1.2267 -0.5715 -0.9473
  164SOPE   H3S18399   4.854   2.347  10.167  0.7514  0.1878  1.1305
  164SOPE   C2418400   5.009   2.243  10.067  0.1194 -0.5591 -0.0871
  164SOPE   H4R18401   5.108   2.199  10.092  0.1789 -1.3230 -1.6335
  164SOPE   H4S18402   4.934   2.178  10.016  1.0415 -1.4965 -0.2592
  164SOPE   C2518403   5.026   2.364   9.975 -0.0485 -0.5592  0.3894
  164SOPE   H5R18404   4.935   2.427   9.976 -0.0207 -0.5148  0.0566
  164SOPE   H5S18405   5.112   2.427  10.006  0.5856 -2.0883  1.8171
  164SOPE   C2618406   5.054   2.325   9.828  0.8016 -0.0267 -0.6300
  164SOPE   H6R18407   5.132   2.392   9.786  1.4720  0.1119  0.8082
  164SOPE   H6S18408   5.106   2.226   9.828  0.9513  0.0067 -3.5098
  164SOPE   C2718409   4.925   2.316   9.740  0.1087 -0.0528  1.1749
  164SOPE   H7R18410   4.863   2.244   9.797 -0.5365 -0.0610  0.4742
  164SOPE   H7S18411   4.862   2.408   9.743  0.9565  0.8111 -3.5976
  164SOPE   C2818412   4.954   2.283   9.593  0.8111  0.4164 -1.3563
  164SOPE   H8R18413   5.011   2.189   9.603  1.4556  0.8809 -0.5728
  164SOPE   H8S18414   4.857   2.262   9.542  0.6435  1.0802 -1.3104
  164SOPE   C2918415   5.037   2.384   9.522  0.3782  0.0512 -0.2763
  164SOPE   H9118416   5.034   2.483   9.569 -2.1133  0.2298 -0.7271
  164SOPE  C21018417   5.121   2.371   9.416  0.5926  0.4761 -0.1284
  164SOPE  H10118418   5.192   2.452   9.396  1.3498  0.1175  1.0547
  164SOPE  C21118419   5.142   2.246   9.330  0.0420 -0.8567 -0.8432
  164SOPE  H11R18420   5.093   2.159   9.378  1.0781  0.2050  2.2594
  164SOPE  H11S18421   5.248   2.213   9.321  0.1020 -1.9267  2.7965
  164SOPE  C21218422   5.076   2.274   9.191  0.2123  0.4162 -0.5128
  164SOPE  H12R18423   4.976   2.311   9.221  1.0008  1.5660  0.7346
  164SOPE  H12S18424   5.073   2.180   9.132 -0.8995 -0.2188  0.5388
  164SOPE  C21318425   5.142   2.381   9.100 -0.2621 -0.2173  0.9682
  164SOPE  H13R18426   5.251   2.359   9.107  0.0214  0.8981  0.1923
  164SOPE  H13S18427   5.142   2.482   9.146  1.8272 -0.5035  1.6631
  164SOPE  C21418428   5.072   2.368   8.959  0.1659 -0.5287 -0.3696
  164SOPE  H14R18429   4.968   2.400   8.979 -0.1750 -1.1214 -1.1571
  164SOPE  H14S18430   5.080   2.259   8.935 -0.7553 -0.4013 -1.2532
  164SOPE  C21518431   5.140   2.462   8.854  0.0819 -0.4711  0.2296
  164SOPE  H15R18432   5.247   2.432   8.843 -0.0251 -0.4657 -0.8214
  164SOPE  H15S18433   5.147   2.568   8.886 -1.2750 -0.7886  1.6310
  164SOPE  C21618434   5.079   2.441   8.716  0.5142  0.7087  0.0615
  164SOPE  H16R18435   4.970   2.463   8.719 -0.1608 -2.3448 -0.7911
  164SOPE  H16S18436   5.088   2.334   8.688 -1.9405  0.5779 -0.4029
  164SOPE  C21718437   5.137   2.526   8.607  0.2893  0.4055 -0.9066
  164SOPE  H17R18438   5.248   2.528   8.610  0.2557  1.4642  0.2923
  164SOPE  H17S18439   5.106   2.632   8.622 -0.5088  0.2759 -1.5636
  164SOPE  C21818440   5.089   2.486   8.470 -1.1263 -0.0214  0.7165
  164SOPE  H18R18441   5.109   2.378   8.450  0.4696  0.1594  1.2097
  164SOPE  H18S18442   5.156   2.537   8.397 -1.4900  0.2025  0.5360
  164SOPE  H18T18443   4.985   2.518   8.449 -0.0838  1.7318 -2.1245
  164SOPE   C3318444   4.777   2.785  10.245  0.1073 -0.2684 -1.0349
  164SOPE   H3X18445   4.819   2.887  10.256 -4.0273  1.3189  1.1622
  164SOPE   H3Y18446   4.674   2.791  10.203  0.6516  1.5846 -2.1433
  164SOPE   C3418447   4.856   2.702  10.137  0.7877  0.7086 -0.0559
  164SOPE   H4X18448   4.818   2.599  10.120 -0.4469  1.1390  0.1200
  164SOPE   H4Y18449   4.958   2.698  10.181  0.2065 -0.3154  1.2290
  164SOPE   C3518450   4.856   2.779  10.005  0.2426  0.2022  0.8822
  164SOPE   H5X18451   4.905   2.878  10.016  0.0192  0.7893 -2.7869
  164SOPE   H5Y18452   4.753   2.786   9.964  1.1873  1.2502 -1.4137
  164SOPE   C3618453   4.956   2.717   9.907  0.0898  1.2048 -0.5826
  164SOPE   H6X18454   4.920   2.622   9.862  0.2705 -0.4061  2.5365
  164SOPE   H6Y18455   5.048   2.701   9.966 -0.5123  1.2140  0.3677
  164SOPE   C3718456   5.010   2.807   9.798  0.6324 -0.4738  0.2163
  164SOPE   H7X18457   5.107   2.773   9.755 -0.0162  1.0749 -2.6117
  164SOPE   H7Y18458   5.024   2.909   9.840  0.3557 -1.1568  2.0045
  164SOPE   C3818459   4.925   2.825   9.677 -0.4816  0.1141 -0.1687
  164SOPE   H8X18460   4.823   2.857   9.706 -0.4161  1.2965 -1.2073
  164SOPE   H8Y18461   4.912   2.725   9.629  1.0739 -0.7848  1.2153
  164SOPE   C3918462   4.976   2.931   9.573 -0.1029  0.0617  0.5483
  164SOPE   H9X18463   5.085   2.914   9.558 -0.4294 -1.1687 -0.4128
  164SOPE   H9Y18464   4.957   3.034   9.612 -2.2089  0.6733 -1.9403
  164SOPE  C31018465   4.923   2.907   9.431  0.2984  0.5096 -0.2360
  164SOPE  H10X18466   4.812   2.917   9.426  0.1177 -1.4172 -0.3058
  164SOPE  H10Y18467   4.951   2.802   9.407  0.9969  1.1805 -2.3934
  164SOPE  C31118468   4.996   2.996   9.331  0.4163  0.6439  0.0565
  164SOPE  H11X18469   5.103   2.967   9.337  0.6267  1.6032  1.1294
  164SOPE  H11Y18470   4.988   3.101   9.367 -1.2202  0.4465  0.2644
  164SOPE  C31218471   4.955   2.976   9.179  0.0131  0.1102 -0.0720
  164SOPE  H12X18472   5.019   3.044   9.119 -0.7299  1.2131  0.3792
  164SOPE  H12Y18473   4.859   3.022   9.149  1.1123  2.0380 -0.7960
  164SOPE  C31318474   4.977   2.831   9.115 -0.0302 -0.4705 -0.6316
  164SOPE  H13X18475   4.926   2.753   9.176  0.1119  0.1189  0.2433
  164SOPE  H13Y18476   5.084   2.802   9.112 -0.5115 -2.2839 -1.1643
  164SOPE  C31418477   4.931   2.834   8.965  0.0318 -0.7368 -0.4976
  164SOPE  H14X18478   4.994   2.762   8.909  1.2849  0.1178 -0.2077
  164SOPE  H14Y18479   4.943   2.931   8.913 -2.8475 -0.4097 -0.6174
  164SOPE  C31518480   4.782   2.795   8.951 -0.7084 -0.0119  0.3247
  164SOPE  H15X18481   4.719   2.869   9.005 -1.2989 -0.2501 -0.0366
  164SOPE  H15Y18482   4.783   2.695   8.999 -2.0210 -0.7913 -1.2169
  164SOPE  C31618483   4.729   2.800   8.807 -0.3304  0.4817  0.0785
  164SOPE  H16X18484   4.625   2.758   8.808 -0.7541  1.5425  1.4638
  164SOPE  H16Y18485   4.789   2.719   8.761 -1.4608 -1.5627  2.0714
  164SOPE  C31718486   4.749   2.940   8.732  0.6464 -0.1090  0.2281
  164SOPE  H17X18487   4.850   2.979   8.756  0.4581  0.4561  0.1187
  164SOPE  H17Y18488   4.676   3.014   8.772 -0.1346 -0.8123  0.1156
  164SOPE  C31818489   4.737   2.938   8.585  0.2774 -0.7633  0.1490
  164SOPE  H18X18490   4.811   2.864   8.547  0.8904  0.6643 -1.5057
  164SOPE  H18Y18491   4.755   3.037   8.538  0.5108 -0.3090  1.1615
  164SOPE  H18Z18492   4.641   2.895   8.550  0.6283 -0.6759 -0.9372
  165SOPE     N18493   3.198   2.385  11.176  0.2252  0.1339  0.1014
  165SOPE   HN118494   3.144   2.302  11.143 -0.9073  1.7909 -2.3964
  165SOPE   HN218495   3.254   2.431  11.101 -1.4927  0.6210 -0.9005
  165SOPE   HN318496   3.265   2.357  11.250 -1.4611  0.5258  1.8021
  165SOPE   C1218497   3.104   2.485  11.228  0.2905 -0.4977  0.2961
  165SOPE  H12A18498   3.170   2.543  11.296 -1.9175 -0.9495  2.9083
  165SOPE  H12B18499   3.039   2.433  11.302 -0.8818 -1.0155 -1.0669
  165SOPE   C1118500   3.030   2.557  11.116 -0.4837 -0.2124  0.6195
  165SOPE  H11A18501   2.959   2.632  11.157 -1.1391 -0.3467 -0.2598
  165SOPE  H11B18502   2.973   2.482  11.057  2.2889  0.0042 -2.4517
  165SOPE     P18503   3.074   2.715  10.918 -0.0485  0.1612  0.0351
  165SOPE   O1318504   3.137   2.845  10.928 -0.7457  0.3755 -0.3635
  165SOPE   O1418505   2.926   2.716  10.922 -0.1834  0.8786 -0.2417
  165SOPE   O1218506   3.129   2.614  11.026  0.3901 -0.2270  0.1450
  165SOPE   O1118507   3.117   2.650  10.774 -0.2525 -0.2249 -0.5124
  165SOPE    C118508   3.253   2.605  10.760 -0.0669 -0.0327 -0.0383
  165SOPE    HA18509   3.252   2.503  10.716 -1.9910  0.0715 -0.2889
  165SOPE    HB18510   3.308   2.601  10.856 -1.0385  1.2905  0.5814
  165SOPE    C218511   3.330   2.700  10.661 -0.4585  0.7584 -0.3865
  165SOPE    HS18512   3.345   2.789  10.725  0.2729  1.2921 -1.2819
  165SOPE   O2118513   3.255   2.727  10.548  0.5504  0.1001  0.0592
  165SOPE   C2118514   3.262   2.843  10.490 -0.4236  0.1487  0.4979
  165SOPE   O2218515   3.314   2.946  10.534 -0.3193  0.1075  0.0111
  165SOPE   C2218516   3.194   2.840  10.340  0.1759  0.0312 -0.0388
  165SOPE   H2R18517   3.097   2.789  10.357  2.1960 -2.9712  2.9656
  165SOPE   H2S18518   3.263   2.788  10.271 -2.0161  0.0022 -2.2630
  165SOPE    C318519   3.456   2.632  10.610 -0.1695 -0.2489  0.0826
  165SOPE    HX18520   3.435   2.538  10.554  0.6905  0.5898 -1.6660
  165SOPE    HY18521   3.513   2.591  10.696 -0.5261  1.1344  0.9890
  165SOPE   O3118522   3.545   2.718  10.536  0.1671  0.3682 -0.0899
  165SOPE   C3118523   3.627   2.657  10.454 -0.5195 -0.1220  0.5795
  165SOPE   O3218524   3.652   2.538  10.463  0.3572  0.2848 -0.1507
  165SOPE   C3218525   3.676   2.757  10.349 -0.4932  0.3026 -0.2538
  165SOPE   H2X18526   3.729   2.696  10.272 -0.2139 -1.1227  1.0383
  165SOPE   H2Y18527   3.741   2.831  10.400 -0.8306  1.4695 -1.4905
  165SOPE   C2318528   3.181   2.983  10.267 -0.6476  0.2710  0.4049
  165SOPE   H3R18529   3.283   3.025  10.270 -0.8823  0.7868  1.2122
  165SOPE   H3S18530   3.124   3.056  10.329  1.3405  1.8466  0.4318
  165SOPE   C2418531   3.114   2.970  10.134 -0.0200  0.1647  0.3409
  165SOPE   H4R18532   3.171   2.888  10.085 -2.0521 -0.8552 -0.3807
  165SOPE   H4S18533   3.008   2.939  10.140 -0.9944  2.9397 -1.7461
  165SOPE   C2518534   3.125   3.087  10.039 -0.2772  0.1013 -0.2942
  165SOPE   H5R18535   3.053   3.166  10.070  0.5336  1.0074 -0.7024
  165SOPE   H5S18536   3.227   3.129  10.045 -0.9527  1.7709 -0.2174
  165SOPE   C2618537   3.076   3.049   9.893 -0.1210 -0.9252  0.0424
  165SOPE   H6R18538   3.130   2.958   9.860 -0.3870 -0.0659 -2.9776
  165SOPE   H6S18539   2.968   3.026   9.879 -0.3394  0.1428 -0.1207
  165SOPE   C2718540   3.110   3.156   9.788  0.2563  0.3622  0.3625
  165SOPE   H7R18541   3.048   3.244   9.819 -1.9745 -1.0759  0.1198
  165SOPE   H7S18542   3.218   3.178   9.788  1.3782 -4.5561  0.0506
  165SOPE   C2818543   3.074   3.118   9.645 -0.5117  0.4971  0.4807
  165SOPE   H8R18544   2.964   3.100   9.645 -0.8783  2.6018 -0.1937
  165SOPE   H8S18545   3.077   3.199   9.569 -3.4186 -2.2357 -2.7141
  165SOPE   C2918546   3.153   3.001   9.580 -0.1529 -0.1624  0.2685
  165SOPE   H9118547   3.164   2.912   9.642 -1.3126 -0.8526 -0.4969
  165SOPE  C21018548   3.202   2.997   9.452 -0.4971  0.4988 -0.5524
  165SOPE  H10118549   3.253   2.903   9.423 -2.5903 -0.4930 -1.1069
  165SOPE  C21118550   3.196   3.107   9.345  0.0492  0.2450  0.7905
  165SOPE  H11R18551   3.276   3.176   9.378 -0.8752  0.7822  1.9703
  165SOPE  H11S18552   3.102   3.167   9.345  0.1377  0.3819  0.7426
  165SOPE  C21218553   3.234   3.056   9.204  0.4207  0.5781 -0.2726
  165SOPE  H12R18554   3.155   2.983   9.175  1.1214 -0.2288 -0.1387
  165SOPE  H12S18555   3.325   2.993   9.207 -1.1302 -1.6739  2.6700
  165SOPE  C21318556   3.255   3.178   9.110  0.0273  0.1826  0.5276
  165SOPE  H13R18557   3.345   3.229   9.150 -0.7335  0.9492  1.2609
  165SOPE  H13S18558   3.169   3.248   9.115  0.0822  0.7245 -3.8472
  165SOPE  C21418559   3.274   3.143   8.960  0.2177  0.2263 -0.0996
  165SOPE  H14R18560   3.376   3.102   8.943 -0.7980 -1.7643 -1.5201
  165SOPE  H14S18561   3.265   3.240   8.908  1.3743 -0.0142 -0.7555
  165SOPE  C21518562   3.171   3.040   8.903  0.1861 -0.5838  0.4471
  165SOPE  H15R18563   3.185   2.935   8.939  2.8247 -0.0240  1.1433
  165SOPE  H15S18564   3.184   3.036   8.793 -0.4350  1.5028  0.2806
  165SOPE  C21618565   3.023   3.089   8.912 -0.8835  0.1242 -0.3194
  165SOPE  H16R18566   3.012   3.189   8.863 -1.1635  0.2200 -0.0682
  165SOPE  H16S18567   2.998   3.095   9.020 -0.0471 -2.0077  0.0051
  165SOPE  C21718568   2.923   2.984   8.853 -0.3732 -0.7495  0.1328
  165SOPE  H17R18569   2.831   2.999   8.914  1.8627  0.0164  3.4206
  165SOPE  H17S18570   2.965   2.884   8.879 -0.2141 -0.7179 -0.0074
  165SOPE  C21818571   2.901   2.976   8.701  0.2431  0.1091  0.3011
  165SOPE  H18R18572   2.986   2.942   8.638 -0.8110  0.9219 -1.6009
  165SOPE  H18S18573   2.870   3.075   8.661 -0.7270 -0.7112 -1.0079
  165SOPE  H18T18574   2.811   2.915   8.675 -0.7945  1.1331  1.4226
  165SOPE   C3318575   3.558   2.829  10.274  0.2756  0.8662 -0.6026
  165SOPE   H3X18576   3.525   2.910  10.342  2.3761  1.7014 -0.5482
  165SOPE   H3Y18577   3.473   2.759  10.262  1.0507 -0.0313 -0.8698
  165SOPE   C3418578   3.600   2.900  10.145 -0.3100 -0.0781 -0.4380
  165SOPE   H4X18579   3.637   2.824  10.073 -2.1933 -1.9251  0.5157
  165SOPE   H4Y18580   3.680   2.976  10.163 -0.5426  0.0395  0.1052
  165SOPE   C3518581   3.483   2.968  10.082 -0.2442  0.1129 -0.1158
  165SOPE   H5X18582   3.436   3.046  10.146 -0.6843 -1.6876  1.8273
  165SOPE   H5Y18583   3.402   2.893  10.069 -0.9208  0.5178  1.5957
  165SOPE   C3618584   3.511   3.022   9.939 -0.3171  1.1257  0.0481
  165SOPE   H6X18585   3.610   3.072   9.948  1.0967 -1.8782  2.1464
  165SOPE   H6Y18586   3.432   3.094   9.910 -1.4665 -0.0307  0.2575
  165SOPE   C3718587   3.518   2.913   9.827  0.4358 -0.2352  0.2693
  165SOPE   H7X18588   3.432   2.846   9.806 -1.1389  1.9770 -0.5708
  165SOPE   H7Y18589   3.603   2.845   9.848 -0.2084 -1.6501 -1.6010
  165SOPE   C3818590   3.539   2.984   9.693  0.3042 -0.6140  0.0614
  165SOPE   H8X18591   3.634   3.042   9.692 -1.2238  2.2124  4.4171
  165SOPE   H8Y18592   3.450   3.048   9.674  0.4128  0.0689  1.7640
  165SOPE   C3918593   3.540   2.891   9.574  0.2750  0.0980 -0.0662
  165SOPE   H9X18594   3.440   2.845   9.561 -0.7419  3.0742 -3.4004
  165SOPE   H9Y18595   3.614   2.814   9.607  0.8424  0.8900  0.5245
  165SOPE  C31018596   3.588   2.955   9.448 -0.0664 -0.0606  0.0844
  165SOPE  H10X18597   3.687   2.997   9.476 -0.1122  0.2201 -0.1796
  165SOPE  H10Y18598   3.519   3.039   9.429  0.8964  0.1898 -2.4287
  165SOPE  C31118599   3.596   2.875   9.316 -0.4196 -0.2287 -0.0732
  165SOPE  H11X18600   3.489   2.864   9.289  0.1034 -1.9235 -1.6189
  165SOPE  H11Y18601   3.648   2.777   9.329  2.0763  0.7436 -2.2738
  165SOPE  C31218602   3.685   2.951   9.212 -0.0450 -0.1793  0.3173
  165SOPE  H12X18603   3.787   2.966   9.252  0.0166  0.1426  0.0335
  165SOPE  H12Y18604   3.642   3.053   9.199 -1.6096 -0.6800  1.3307
  165SOPE  C31318605   3.700   2.869   9.082  0.2742  0.2068  0.8974
  165SOPE  H13X18606   3.777   2.792   9.102 -2.1700 -2.6030 -0.0735
  165SOPE  H13Y18607   3.752   2.928   9.004 -0.3591  0.8799  0.9746
  165SOPE  C31418608   3.568   2.823   9.024  0.3791  0.3097  0.1816
  165SOPE  H14X18609   3.490   2.900   9.041  2.5215  2.4447  0.7068
  165SOPE  H14Y18610   3.536   2.731   9.078 -1.9540  0.9479 -0.0657
  165SOPE  C31518611   3.569   2.797   8.874  0.5919 -0.5369 -0.5852
  165SOPE  H15X18612   3.640   2.713   8.858 -0.7346 -1.7227 -0.3602
  165SOPE  H15Y18613   3.607   2.882   8.814 -0.9624 -0.6753 -1.7857
  165SOPE  C31618614   3.432   2.767   8.814 -0.0443 -0.7851  0.5591
  165SOPE  H16X18615   3.456   2.730   8.712 -1.0083  1.2710 -0.4404
  165SOPE  H16Y18616   3.382   2.866   8.807  0.5919 -0.2772  3.0696
  165SOPE  C31718617   3.327   2.673   8.893  0.6957 -0.3787 -0.0941
  165SOPE  H17X18618   3.306   2.730   8.986  0.5699 -1.1914  0.3730
  165SOPE  H17Y18619   3.377   2.576   8.909  0.5428 -0.4643 -0.1347
  165SOPE  C31818620   3.201   2.634   8.810 -0.2408  0.2582 -0.4134
  165SOPE  H18X18621   3.141   2.553   8.855  0.9100 -0.3292  0.0982
  165SOPE  H18Y18622   3.227   2.602   8.707 -1.6189 -0.2591 -0.6055
  165SOPE  H18Z18623   3.135   2.723   8.806 -1.4458 -0.5606  0.7531
  166SOPE     N18624   5.921   2.956  11.102 -0.3135  0.1262  0.4940
  166SOPE   HN118625   5.828   2.909  11.107  0.0974 -0.8073 -0.6033
  166SOPE   HN218626   5.914   3.008  11.012 -0.6610 -0.6161  0.0853
  166SOPE   HN318627   5.996   2.884  11.102  0.6820  1.1580  0.8129
  166SOPE   C1218628   5.932   3.063  11.204 -0.4333 -0.2510 -0.1726
  166SOPE  H12A18629   6.028   3.118  11.191 -0.6411 -0.4128 -2.6528
  166SOPE  H12B18630   5.929   3.016  11.305  0.5605  0.9650  0.4377
  166SOPE   C1118631   5.817   3.162  11.180 -0.3110 -0.0508  0.1445
  166SOPE  H11A18632   5.822   3.243  11.256  0.8324 -1.0182  1.1206
  166SOPE  H11B18633   5.713   3.122  11.188 -0.2865  0.0147  0.8278
  166SOPE     P18634   5.721   3.247  10.957 -0.3826 -0.1442  0.2962
  166SOPE   O1318635   5.629   3.331  11.033 -0.4286 -0.0779  0.3434
  166SOPE   O1418636   5.678   3.113  10.906  0.0689  0.0431  0.1267
  166SOPE   O1218637   5.841   3.228  11.052 -0.1244  0.0259  0.3992
  166SOPE   O1118638   5.761   3.340  10.842 -0.3401  0.0096  0.2168
  166SOPE    C118639   5.837   3.457  10.847  0.1877  0.2458  0.7430
  166SOPE    HA18640   5.906   3.461  10.934 -0.1443 -0.7603  1.0559
  166SOPE    HB18641   5.763   3.540  10.853 -0.9113 -0.7150  0.5392
  166SOPE    C218642   5.922   3.476  10.715 -0.3697  0.3289 -0.4386
  166SOPE    HS18643   5.990   3.388  10.723 -0.9657 -0.2402 -1.5229
  166SOPE   O2118644   6.001   3.589  10.701 -0.0574  0.3131 -0.0077
  166SOPE   C2118645   6.073   3.640  10.790  0.0284 -0.8008 -0.3483
  166SOPE   O2218646   6.087   3.605  10.906  0.1978 -0.3375 -0.1593
  166SOPE   C2218647   6.138   3.760  10.728  0.6874  0.4694  0.1799
  166SOPE   H2R18648   6.200   3.814  10.803 -0.0266  0.3259  0.8727
  166SOPE   H2S18649   6.061   3.834  10.696 -0.9038  0.2194  3.2192
  166SOPE    C318650   5.822   3.463  10.594 -0.1522  0.2580 -0.8308
  166SOPE    HX18651   5.754   3.550  10.601 -0.6171 -0.3730  3.5256
  166SOPE    HY18652   5.757   3.375  10.609 -2.3036  2.3914  3.3119
  166SOPE   O3118653   5.891   3.471  10.466 -0.1523  0.0814 -0.4845
  166SOPE   C3118654   5.969   3.366  10.441 -0.1360 -0.3360  0.2305
  166SOPE   O3218655   5.977   3.264  10.504  0.4126  0.3158 -0.4108
  166SOPE   C3218656   6.053   3.385  10.317 -0.1090  0.1357 -0.2293
  166SOPE   H2X18657   6.145   3.327  10.335  0.5715  0.4934 -2.4693
  166SOPE   H2Y18658   6.091   3.489  10.311 -1.0616  0.6454  1.8212
  166SOPE   C2318659   6.228   3.740  10.605  0.2396 -0.0737  0.0750
  166SOPE   H3R18660   6.291   3.649  10.603  1.7469  0.9748 -1.9837
  166SOPE   H3S18661   6.300   3.825  10.608  0.3330 -0.0450 -2.0908
  166SOPE   C2418662   6.155   3.753  10.471  0.4404 -0.1739  0.4905
  166SOPE   H4R18663   6.075   3.676  10.465  0.3935 -0.1367  0.6368
  166SOPE   H4S18664   6.106   3.853  10.470 -2.0367 -1.3285  0.5959
  166SOPE   C2518665   6.252   3.748  10.354 -0.1322 -0.2732  0.5019
  166SOPE   H5R18666   6.339   3.814  10.374  0.5419 -0.7939 -0.7037
  166SOPE   H5S18667   6.287   3.644  10.340  0.0634 -0.2330  0.6939
  166SOPE   C2618668   6.181   3.785  10.224 -0.0002 -0.0887  0.2134
  166SOPE   H6R18669   6.099   3.710  10.212  0.5298 -0.9093  1.5524
  166SOPE   H6S18670   6.124   3.879  10.240  2.2235  1.2131  0.6483
  166SOPE   C2718671   6.277   3.794  10.103 -0.5554 -0.8299 -0.7868
  166SOPE   H7R18672   6.365   3.857  10.126  0.3537 -1.6018 -2.0804
  166SOPE   H7S18673   6.317   3.692  10.085 -1.3953 -1.2171 -0.5142
  166SOPE   C2818674   6.215   3.844   9.977 -0.7957 -0.4925 -0.3037
  166SOPE   H8R18675   6.179   3.948   9.994  1.6600 -0.1337  3.0975
  166SOPE   H8S18676   6.296   3.838   9.902  0.4925 -1.5041  1.1427
  166SOPE   C2918677   6.096   3.765   9.925  0.2026  0.6439 -0.6143
  166SOPE   H9118678   6.010   3.766   9.993  2.5900  4.3014  2.5167
  166SOPE  C21018679   6.083   3.700   9.813  0.2096  0.7045 -0.3328
  166SOPE  H10118680   5.987   3.651   9.787 -0.9500  1.6753  1.9751
  166SOPE  C21118681   6.184   3.676   9.709 -0.1597 -0.4274 -0.1080
  166SOPE  H11R18682   6.224   3.574   9.727  0.5321 -0.1996 -0.3585
  166SOPE  H11S18683   6.271   3.741   9.734 -1.2364  0.4230  1.5473
  166SOPE  C21218684   6.144   3.701   9.568 -0.3624  0.0845  0.4349
  166SOPE  H12R18685   6.069   3.783   9.570  0.1560  0.5568  0.5086
  166SOPE  H12S18686   6.097   3.608   9.528  0.6473 -0.4139  0.3908
  166SOPE  C21318687   6.250   3.749   9.474 -0.6215  1.0935 -0.1908
  166SOPE  H13R18688   6.338   3.680   9.476 -0.8669  0.5571 -4.1795
  166SOPE  H13S18689   6.274   3.855   9.498 -1.4396  1.3915 -0.7075
  166SOPE  C21418690   6.211   3.735   9.324  0.4263 -0.0573  0.1578
  166SOPE  H14R18691   6.158   3.638   9.326  0.7018 -0.2210 -0.1866
  166SOPE  H14S18692   6.293   3.697   9.259 -0.8211 -0.5267 -1.1529
  166SOPE  C21518693   6.143   3.855   9.270  0.3066  0.3011 -0.5901
  166SOPE  H15R18694   6.218   3.938   9.267 -0.7164  1.2572 -0.1710
  166SOPE  H15S18695   6.060   3.886   9.338  0.3472 -1.2511  0.1872
  166SOPE  C21618696   6.077   3.840   9.139  0.5653 -0.5005 -0.1695
  166SOPE  H16R18697   5.992   3.772   9.161  0.2417 -0.5021 -1.3554
  166SOPE  H16S18698   6.152   3.785   9.078  0.8221 -1.8866  1.3578
  166SOPE  C21718699   6.022   3.972   9.077 -0.5049 -0.1277  0.2588
  166SOPE  H17R18700   6.111   4.035   9.052  0.4774 -1.3736  0.5974
  166SOPE  H17S18701   5.972   4.029   9.158 -0.1819  2.2512 -1.1479
  166SOPE  C21818702   5.948   3.950   8.939  0.0006 -0.4568 -0.4246
  166SOPE  H18R18703   5.897   4.043   8.904 -1.0443 -0.7162  0.3793
  166SOPE  H18S18704   5.864   3.877   8.945 -2.0069  1.5912 -2.5732
  166SOPE  H18T18705   6.014   3.905   8.862  1.1679  0.8278 -0.1934
  166SOPE   C3318706   5.986   3.350  10.181  0.3124  0.4649 -0.2040
  166SOPE   H3X18707   5.908   3.426  10.159 -0.0180 -0.0240 -0.7119
  166SOPE   H3Y18708   5.943   3.248  10.187  1.4196 -0.0602 -0.9902
  166SOPE   C3418709   6.094   3.371  10.070  0.2990  0.5029  0.1388
  166SOPE   H4X18710   6.182   3.304  10.080 -0.5261 -0.7816 -1.1075
  166SOPE   H4Y18711   6.130   3.476  10.070  0.0359  0.5955  0.6071
  166SOPE   C3518712   6.043   3.339   9.933 -0.4503 -0.0915  0.6371
  166SOPE   H5X18713   5.975   3.420   9.899  0.0469  0.3447  0.6769
  166SOPE   H5Y18714   5.976   3.252   9.956 -1.8736  0.5020 -1.1610
  166SOPE   C3618715   6.144   3.297   9.828 -0.0237 -0.3949  0.0221
  166SOPE   H6X18716   6.173   3.192   9.849  2.2471  0.3309  0.6421
  166SOPE   H6Y18717   6.230   3.364   9.849 -0.4424  0.8017 -1.9664
  166SOPE   C3718718   6.108   3.319   9.683  0.4501  0.2530 -0.4183
  166SOPE   H7X18719   6.098   3.421   9.638  0.4662  0.7289  0.6575
  166SOPE   H7Y18720   6.019   3.256   9.663  2.4422 -1.9193 -2.8094
  166SOPE   C3818721   6.206   3.254   9.587 -0.2893  0.0793  0.3510
  166SOPE   H8X18722   6.232   3.151   9.620 -0.1438  0.6175  1.9515
  166SOPE   H8Y18723   6.298   3.316   9.590 -0.9361  1.3758 -3.6417
  166SOPE   C3918724   6.166   3.252   9.441  0.4319 -0.2768  0.0505
  166SOPE   H9X18725   6.202   3.346   9.394  3.1714  0.8512  4.1005
  166SOPE   H9Y18726   6.055   3.251   9.438  0.2873 -1.0044  3.1537
  166SOPE  C31018727   6.231   3.135   9.366  0.0216 -0.3519 -0.4859
  166SOPE  H10X18728   6.205   3.041   9.420  3.5436 -1.5623 -0.7763
  166SOPE  H10Y18729   6.342   3.136   9.368  0.0293 -2.0404  0.4968
  166SOPE  C31118730   6.186   3.117   9.222 -0.0981 -0.4234  0.1994
  166SOPE  H11X18731   6.078   3.091   9.221 -0.3729  0.6795  0.1323
  166SOPE  H11Y18732   6.242   3.031   9.181  0.3073  0.3457 -0.8808
  166SOPE  C31218733   6.210   3.243   9.138  0.1753  0.0387  0.3886
  166SOPE  H12X18734   6.317   3.267   9.159  0.2193 -0.1548  0.3865
  166SOPE  H12Y18735   6.148   3.333   9.156  0.7054  0.6958 -0.9480
  166SOPE  C31318736   6.191   3.225   8.989 -0.0743 -0.9204 -0.0314
  166SOPE  H13X18737   6.245   3.134   8.955  0.3346 -0.7206  0.0855
  166SOPE  H13Y18738   6.222   3.307   8.920  1.2220 -2.1890 -0.9896
  166SOPE  C31418739   6.044   3.181   8.957  0.2220 -0.8160 -0.4173
  166SOPE  H14X18740   5.988   3.275   8.976  0.0715 -0.6348 -1.7285
  166SOPE  H14Y18741   6.003   3.101   9.023  2.4589 -0.8985  0.9128
  166SOPE  C31518742   6.022   3.143   8.815 -0.3061 -0.7296 -0.2028
  166SOPE  H15X18743   5.912   3.129   8.815 -0.8905  3.4740  0.2248
  166SOPE  H15Y18744   6.081   3.058   8.773 -0.6796 -0.2242 -1.7763
  166SOPE  C31618745   6.055   3.262   8.718 -0.4056 -0.1004 -0.4123
  166SOPE  H16X18746   6.164   3.276   8.708 -0.6385  1.0978 -1.2737
  166SOPE  H16Y18747   6.011   3.351   8.767 -2.1093 -1.4314  0.5673
  166SOPE  C31718748   5.974   3.246   8.583  0.5228 -0.5775  0.0407
  166SOPE  H17X18749   5.865   3.242   8.605  0.3772 -0.6669 -0.7018
  166SOPE  H17Y18750   6.010   3.152   8.537 -0.5405 -1.4173  0.8979
  166SOPE  C31818751   6.001   3.355   8.478  0.3415  0.5938  0.2466
  166SOPE  H18X18752   6.108   3.359   8.448  0.2565  1.4651  0.0547
  166SOPE  H18Y18753   5.966   3.452   8.520 -0.8069  0.2610  0.0729
  166SOPE  H18Z18754   5.938   3.332   8.390 -0.3662  0.2456  0.8407
  167SOPE     N18755   1.204   0.834   6.044 -0.2329 -0.1249 -0.5180
  167SOPE   HN118756   1.141   0.758   6.075  1.1164 -0.7059  0.8359
  167SOPE   HN218757   1.291   0.793   6.005 -1.5494 -0.6716 -3.0083
  167SOPE   HN318758   1.215   0.902   6.122 -0.5011  0.5848 -1.0894
  167SOPE   C1218759   1.145   0.907   5.920  0.7271 -0.5576  0.0653
  167SOPE  H12A18760   1.144   0.835   5.836 -0.1099 -0.7801  0.2651
  167SOPE  H12B18761   1.216   0.990   5.895  1.7843 -1.6146 -0.4979
  167SOPE   C1118762   1.003   0.968   5.936 -0.1927  0.5892  0.2591
  167SOPE  H11A18763   0.939   0.883   5.967  1.4664  0.0173  2.3003
  167SOPE  H11B18764   0.973   1.013   5.840  1.8449  2.2354  0.3466
  167SOPE     P18765   0.907   1.106   6.141  0.1998 -0.0220  0.2611
  167SOPE   O1318766   0.912   1.016   6.258 -0.0354 -0.1839  0.1077
  167SOPE   O1418767   0.778   1.114   6.070 -0.0424 -0.5530  0.1466
  167SOPE   O1218768   1.018   1.072   6.035 -0.5196  0.6969  0.2854
  167SOPE   O1118769   0.933   1.253   6.194 -0.3630 -0.3681 -0.4506
  167SOPE    C118770   1.067   1.277   6.244 -0.4197  0.2227 -0.3221
  167SOPE    HA18771   1.087   1.383   6.222  1.1315  0.0966  0.4539
  167SOPE    HB18772   1.144   1.216   6.192  0.0347  0.5108  0.0124
  167SOPE    C218773   1.073   1.260   6.399  0.5897  0.0551 -0.7469
  167SOPE    HS18774   1.084   1.151   6.421  1.9762  0.1780 -0.7558
  167SOPE   O2118775   0.953   1.324   6.452 -0.2525  0.6865  0.1752
  167SOPE   C2118776   0.914   1.279   6.574  0.3578  0.1096  0.2738
  167SOPE   O2218777   0.953   1.179   6.632  0.0160 -0.2912  0.4130
  167SOPE   C2218778   0.799   1.363   6.627 -0.3769  0.0348 -0.8354
  167SOPE   H2R18779   0.735   1.292   6.684  0.8751 -0.1707  0.3350
  167SOPE   H2S18780   0.754   1.414   6.539  0.7434 -0.5493 -1.7539
  167SOPE    C318781   1.203   1.327   6.454 -0.0016 -0.4143 -0.3901
  167SOPE    HX18782   1.194   1.437   6.446 -0.1361 -0.5357 -2.1354
  167SOPE    HY18783   1.280   1.294   6.381  0.3522 -4.0314  1.4710
  167SOPE   O3118784   1.238   1.289   6.593 -0.0831 -0.6144 -0.4148
  167SOPE   C3118785   1.279   1.162   6.600  1.1809 -0.1957  0.7018
  167SOPE   O3218786   1.314   1.092   6.503 -0.1106 -0.6485 -0.3300
  167SOPE   C3218787   1.296   1.131   6.759  1.1578  0.1076 -1.2186
  167SOPE   H2X18788   1.299   1.020   6.759 -1.3263  0.0261  0.1250
  167SOPE   H2Y18789   1.213   1.177   6.817  2.7178  3.5069 -1.5647
  167SOPE   C2318790   0.857   1.471   6.730  0.0646  0.0585  0.5123
  167SOPE   H3R18791   0.905   1.549   6.667 -0.6425  0.0194 -0.0792
  167SOPE   H3S18792   0.931   1.434   6.804 -1.6492 -1.7709  1.3419
  167SOPE   C2418793   0.749   1.545   6.807  0.4274  0.4042  0.3696
  167SOPE   H4R18794   0.690   1.603   6.732  0.0603  1.7030  1.6520
  167SOPE   H4S18795   0.679   1.466   6.841  0.5459  0.6726  1.2311
  167SOPE   C2518796   0.795   1.638   6.918  0.5546 -0.7039 -0.4360
  167SOPE   H5R18797   0.860   1.574   6.982 -0.2494 -2.2841 -1.1846
  167SOPE   H5S18798   0.863   1.718   6.883  1.4739 -1.9207 -1.4782
  167SOPE   C2618799   0.685   1.675   7.025  0.7205  0.3608 -0.0154
  167SOPE   H6R18800   0.641   1.765   6.978 -1.9947 -2.0039 -2.1728
  167SOPE   H6S18801   0.605   1.598   7.033  1.2547 -0.0182  2.2954
  167SOPE   C2718802   0.743   1.708   7.161  0.0509 -0.0859  0.4151
  167SOPE   H7R18803   0.690   1.698   7.258 -0.0685  0.6588  0.4364
  167SOPE   H7S18804   0.820   1.632   7.185 -0.0050 -0.0807  0.6135
  167SOPE   C2818805   0.812   1.848   7.160  0.7156  1.1151 -0.0158
  167SOPE   H8R18806   0.869   1.861   7.255 -0.4971 -0.9992  1.0204
  167SOPE   H8S18807   0.884   1.861   7.076 -0.4187  0.6516 -1.0736
  167SOPE   C2918808   0.716   1.960   7.155 -0.6789  0.9540 -0.4024
  167SOPE   H9118809   0.664   1.971   7.058 -1.9085  1.7474  0.3252
  167SOPE  C21018810   0.676   2.040   7.257  0.8405 -0.2266 -0.3521
  167SOPE  H10118811   0.592   2.110   7.242  0.7790  0.2299  1.8997
  167SOPE  C21118812   0.718   2.032   7.401 -0.7780  0.1115  0.5761
  167SOPE  H11R18813   0.748   2.132   7.439 -0.0242  0.1899 -0.2334
  167SOPE  H11S18814   0.802   1.961   7.415 -0.3928  0.4245 -0.1682
  167SOPE  C21218815   0.594   1.976   7.485 -0.0778 -0.3203  0.7169
  167SOPE  H12R18816   0.563   1.875   7.451 -1.6812 -0.1865  1.7411
  167SOPE  H12S18817   0.503   2.038   7.477 -0.0008 -0.3192 -0.2300
  167SOPE  C21318818   0.642   1.971   7.633 -0.3713  0.0667 -0.1129
  167SOPE  H13R18819   0.663   2.077   7.658 -0.8384  0.8117 -2.7256
  167SOPE  H13S18820   0.734   1.909   7.632 -0.6684 -0.3765 -1.8038
  167SOPE  C21418821   0.542   1.897   7.723  0.0715  0.0176  0.1481
  167SOPE  H14R18822   0.518   1.806   7.664 -1.3579 -0.0011  0.7509
  167SOPE  H14S18823   0.451   1.959   7.737 -1.3569 -2.3448  1.7347
  167SOPE  C21518824   0.593   1.848   7.861 -0.0534 -0.0069  0.1628
  167SOPE  H15R18825   0.699   1.817   7.857  0.2541  1.0011  0.2929
  167SOPE  H15S18826   0.527   1.767   7.900 -0.2933 -2.2366 -4.5439
  167SOPE  C21618827   0.588   1.958   7.970 -0.3561 -0.0067  0.0754
  167SOPE  H16R18828   0.658   2.040   7.945  2.3241 -2.3703 -0.4017
  167SOPE  H16S18829   0.619   1.912   8.066 -0.6496 -0.4389 -0.0359
  167SOPE  C21718830   0.442   2.023   7.995 -0.4383  0.4893  1.3921
  167SOPE  H17R18831   0.388   2.037   7.898  1.6164 -0.2377  0.1021
  167SOPE  H17S18832   0.454   2.121   8.046  3.4217 -0.1897  1.9621
  167SOPE  C21818833   0.347   1.936   8.078  0.1804  0.2571  0.2723
  167SOPE  H18R18834   0.404   1.896   8.164  3.6921  0.8358 -1.6829
  167SOPE  H18S18835   0.298   1.855   8.020  0.3330 -0.6403  1.3837
  167SOPE  H18T18836   0.274   2.007   8.123 -1.2444 -2.0919  1.7766
  167SOPE   C3318837   1.435   1.174   6.823  0.2942  0.0409  0.0457
  167SOPE   H3X18838   1.458   1.276   6.785  0.9649  0.3017  1.1266
  167SOPE   H3Y18839   1.514   1.103   6.789 -2.2571 -2.7385 -0.2587
  167SOPE   C3418840   1.418   1.180   6.981 -0.0595  0.1068  0.0365
  167SOPE   H4X18841   1.389   1.077   7.012 -0.2978 -0.4068 -1.8225
  167SOPE   H4Y18842   1.330   1.241   7.010 -0.6117 -1.3751  1.5457
  167SOPE   C3518843   1.535   1.250   7.052  0.2412 -0.3997 -0.3182
  167SOPE   H5X18844   1.529   1.357   7.022  2.6585 -0.6423 -1.8119
  167SOPE   H5Y18845   1.632   1.199   7.034  1.0106  1.3938 -1.4432
  167SOPE   C3618846   1.514   1.244   7.202  0.3419  0.3526 -0.3349
  167SOPE   H6X18847   1.509   1.138   7.233  0.8541  0.3620 -0.2228
  167SOPE   H6Y18848   1.415   1.289   7.223  0.4756  1.5193 -2.1028
  167SOPE   C3718849   1.612   1.326   7.276 -0.3136  0.7576  0.0607
  167SOPE   H7X18850   1.609   1.430   7.238 -1.6411  0.4022 -0.8499
  167SOPE   H7Y18851   1.708   1.272   7.261 -0.5037  0.0281  1.3664
  167SOPE   C3818852   1.589   1.303   7.424  0.3356  0.2624  0.6709
  167SOPE   H8X18853   1.611   1.196   7.443  1.4781  0.2939 -0.3578
  167SOPE   H8Y18854   1.483   1.323   7.451  0.1053  0.1537 -0.1282
  167SOPE   C3918855   1.675   1.407   7.503 -0.0902 -0.7523  0.0617
  167SOPE   H9X18856   1.649   1.509   7.467  2.0985  1.2992  3.9990
  167SOPE   H9Y18857   1.784   1.392   7.489 -0.3675 -2.9301  0.1071
  167SOPE  C31018858   1.649   1.401   7.655 -0.0453  0.2184  0.1362
  167SOPE  H10X18859   1.563   1.468   7.675  0.0237  0.5568 -0.6737
  167SOPE  H10Y18860   1.734   1.456   7.701 -0.2517  0.6297  0.0249
  167SOPE  C31118861   1.637   1.257   7.710  0.2120  0.6710 -0.1620
  167SOPE  H11X18862   1.720   1.193   7.673 -0.0072 -0.2148  0.8505
  167SOPE  H11Y18863   1.546   1.206   7.670 -0.0253  0.7015  0.3350
  167SOPE  C31218864   1.639   1.267   7.867 -0.3701 -0.9370  0.2726
  167SOPE  H12X18865   1.536   1.294   7.898 -0.6460 -0.5381 -0.9677
  167SOPE  H12Y18866   1.709   1.350   7.890 -0.6018 -1.1343  1.7184
  167SOPE  C31318867   1.662   1.126   7.926 -0.1093  0.0334 -0.0759
  167SOPE  H13X18868   1.766   1.106   7.893 -0.0265  0.4036 -0.0405
  167SOPE  H13Y18869   1.603   1.045   7.876  3.3287 -2.6325 -0.0042
  167SOPE  C31418870   1.649   1.127   8.074 -0.0685  0.3486  0.0221
  167SOPE  H14X18871   1.541   1.117   8.097  0.1598 -1.8964  0.2265
  167SOPE  H14Y18872   1.674   1.225   8.119 -0.5527 -0.3938  1.9826
  167SOPE  C31518873   1.715   1.003   8.144 -0.5209 -0.1158  0.1812
  167SOPE  H15X18874   1.824   1.025   8.149 -0.1591 -1.6252 -0.6476
  167SOPE  H15Y18875   1.701   0.910   8.084  0.3958  0.1020 -0.3688
  167SOPE  C31618876   1.678   0.975   8.285  0.0491 -1.0371  0.1446
  167SOPE  H16X18877   1.710   0.874   8.319  1.0327 -0.8095 -0.0937
  167SOPE  H16Y18878   1.567   0.974   8.294  0.2900 -2.4425  3.5623
  167SOPE  C31718879   1.735   1.077   8.378 -0.5460  0.2755 -0.2586
  167SOPE  H17X18880   1.723   1.181   8.341  0.4175  0.6523  0.4590
  167SOPE  H17Y18881   1.845   1.066   8.384 -0.2962  1.0071 -2.8467
  167SOPE  C31818882   1.682   1.063   8.523 -0.5337  0.2132 -0.8009
  167SOPE  H18X18883   1.571   1.061   8.512 -0.5717  2.0977 -0.8881
  167SOPE  H18Y18884   1.724   1.146   8.584 -0.1849 -0.2738 -0.3804
  167SOPE  H18Z18885   1.718   0.966   8.562  0.0390  0.1211 -1.5466
  168SOPE     N18886   6.795   5.252   6.596 -0.2601  0.2810  0.3162
  168SOPE   HN118887   6.775   5.332   6.532  0.3595 -0.5059 -0.8925
  168SOPE   HN218888   6.728   5.180   6.562 -0.5812  1.7330 -2.3104
  168SOPE   HN318889   6.757   5.275   6.690 -1.7497  0.2026 -0.2469
  168SOPE   C1218890   6.946   5.209   6.593  0.4428  0.0229 -0.3172
  168SOPE  H12A18891   6.968   5.151   6.500 -1.5914 -0.3245 -0.6133
  168SOPE  H12B18892   6.964   5.142   6.680 -1.9822 -1.3091 -0.7608
  168SOPE   C1118893   7.029   5.329   6.610  0.5713  0.5438 -0.1020
  168SOPE  H11A18894   7.140   5.317   6.606  0.6501  1.3719 -0.5635
  168SOPE  H11B18895   6.998   5.376   6.705  2.2944 -0.7176  1.1110
  168SOPE     P18896   7.058   5.430   6.361  0.5832 -0.4503 -0.3890
  168SOPE   O1318897   7.020   5.555   6.298 -0.7111  0.4102 -0.6666
  168SOPE   O1418898   7.023   5.307   6.292 -0.5272 -0.2021 -0.1266
  168SOPE   O1218899   6.998   5.421   6.506 -0.4920  0.0670  0.7009
  168SOPE   O1118900   7.214   5.426   6.384  0.1413 -0.0693  0.1873
  168SOPE    C118901   7.273   5.542   6.444 -0.8851 -0.1689 -0.2741
  168SOPE    HA18902   7.199   5.610   6.489 -2.0432 -1.0267 -0.8633
  168SOPE    HB18903   7.326   5.599   6.364  0.0562  0.9900  1.1623
  168SOPE    C218904   7.397   5.517   6.545  0.8900  0.1280  0.4762
  168SOPE    HS18905   7.477   5.463   6.490 -0.3179 -0.0157 -1.1740
  168SOPE   O2118906   7.344   5.451   6.661  0.3638 -0.3761  0.5281
  168SOPE   C2118907   7.421   5.368   6.720 -0.4267 -0.4303  0.7849
  168SOPE   O2218908   7.534   5.339   6.677 -0.4239 -0.1340  0.4665
  168SOPE   C2218909   7.351   5.304   6.838 -0.3968  0.2938 -0.3337
  168SOPE   H2R18910   7.400   5.208   6.865  0.1814  0.3038 -1.3214
  168SOPE   H2S18911   7.245   5.275   6.823 -0.8709  1.5498  0.5193
  168SOPE    C318912   7.451   5.658   6.583 -0.0478 -0.0985  0.2817
  168SOPE    HX18913   7.476   5.710   6.488 -2.3313  2.6082  1.1069
  168SOPE    HY18914   7.551   5.639   6.629  1.0379 -0.0447 -1.9878
  168SOPE   O3118915   7.355   5.735   6.653 -0.3341  0.4162  0.7641
  168SOPE   C3118916   7.375   5.743   6.788 -0.0554  0.0928  0.1280
  168SOPE   O3218917   7.471   5.700   6.851  0.0933  0.1546  0.8626
  168SOPE   C3218918   7.274   5.841   6.832  0.4675 -0.1780  0.3452
  168SOPE   H2X18919   7.175   5.791   6.819 -0.0763  1.3709 -1.8370
  168SOPE   H2Y18920   7.292   5.928   6.765 -0.3380 -0.7759 -0.6635
  168SOPE   C2318921   7.348   5.407   6.958  0.0430 -0.1720  1.0546
  168SOPE   H3R18922   7.242   5.439   6.945 -0.0889 -0.3742  1.6531
  168SOPE   H3S18923   7.412   5.497   6.943  0.4472 -0.7681 -0.9089
  168SOPE   C2418924   7.369   5.346   7.093 -0.5598  0.0732 -0.4062
  168SOPE   H4R18925   7.285   5.275   7.108  1.2991 -1.8537  1.0920
  168SOPE   H4S18926   7.467   5.294   7.099  0.4601  1.9835 -0.2258
  168SOPE   C2518927   7.338   5.442   7.208 -0.6493  0.3670 -0.0043
  168SOPE   H5R18928   7.374   5.547   7.201 -0.9110  0.6420  2.5490
  168SOPE   H5S18929   7.229   5.465   7.216 -0.8010 -0.4127  0.2517
  168SOPE   C2618930   7.379   5.388   7.343  0.4528 -0.1467  0.9599
  168SOPE   H6R18931   7.352   5.280   7.341 -1.3360  0.3127 -0.4523
  168SOPE   H6S18932   7.488   5.391   7.364  0.7369 -2.3576  0.0017
  168SOPE   C2718933   7.302   5.444   7.465  0.4533 -0.5657  0.1298
  168SOPE   H7R18934   7.343   5.547   7.475 -0.1961 -0.4037  1.2139
  168SOPE   H7S18935   7.194   5.441   7.439  0.1842 -1.8330  1.3728
  168SOPE   C2818936   7.319   5.363   7.596  0.3029  0.1093 -0.8379
  168SOPE   H8R18937   7.296   5.255   7.584 -1.0695  0.2469  0.4180
  168SOPE   H8S18938   7.421   5.376   7.638 -1.0981  1.7204  2.2723
  168SOPE   C2918939   7.223   5.425   7.692 -0.0490  0.3812 -0.1720
  168SOPE   H9118940   7.196   5.525   7.656 -1.0796 -0.5885 -2.1533
  168SOPE  C21018941   7.175   5.381   7.810 -0.0646 -0.1871  0.6834
  168SOPE  H10118942   7.094   5.439   7.857  0.3294  0.0422  1.0818
  168SOPE  C21118943   7.201   5.250   7.878 -0.2112  0.2049 -0.3028
  168SOPE  H11R18944   7.250   5.181   7.806  1.3098 -0.1687  1.0589
  168SOPE  H11S18945   7.105   5.204   7.907  0.6635 -0.3218  1.8235
  168SOPE  C21218946   7.288   5.257   8.008  0.3765 -0.4159 -0.6344
  168SOPE  H12R18947   7.316   5.151   8.027  1.1534 -0.8262 -3.9067
  168SOPE  H12S18948   7.224   5.304   8.086  1.0593  2.5062 -1.7794
  168SOPE  C21318949   7.424   5.327   8.010 -0.0089  0.0688 -0.2621
  168SOPE  H13R18950   7.412   5.422   7.955  0.8245 -0.8154 -2.0126
  168SOPE  H13S18951   7.491   5.251   7.963  0.7766  0.0688  0.8571
  168SOPE  C21418952   7.466   5.353   8.157  0.4206 -0.3958 -0.4523
  168SOPE  H14R18953   7.402   5.431   8.203  0.6171  0.9610 -2.3912
  168SOPE  H14S18954   7.562   5.409   8.160 -0.0103  0.3112  0.3498
  168SOPE  C21518955   7.475   5.232   8.240 -0.6677 -0.3052  0.8296
  168SOPE  H15R18956   7.525   5.153   8.181 -0.2789  1.3531 -1.1100
  168SOPE  H15S18957   7.373   5.195   8.266 -0.8961  0.4304  0.9947
  168SOPE  C21618958   7.565   5.244   8.362 -0.0934 -0.6572 -0.8123
  168SOPE  H16R18959   7.652   5.312   8.352 -0.9226  0.5686  0.0874
  168SOPE  H16S18960   7.615   5.147   8.385  1.1270  0.1731  0.0643
  168SOPE  C21718961   7.487   5.289   8.489  0.1313  0.3963  0.0665
  168SOPE  H17R18962   7.403   5.222   8.517 -0.1579  0.2494 -1.1294
  168SOPE  H17S18963   7.439   5.387   8.465  0.5485  1.0954  1.9912
  168SOPE  C21818964   7.573   5.300   8.613  0.1206 -0.1025 -0.2240
  168SOPE  H18R18965   7.669   5.352   8.593 -0.3544  0.2506 -1.6585
  168SOPE  H18S18966   7.599   5.202   8.658  0.2641  1.1851  2.6088
  168SOPE  H18T18967   7.527   5.360   8.694 -0.3171 -0.2647 -0.3468
  168SOPE   C3318968   7.275   5.882   6.984  0.1479  0.2649 -0.0809
  168SOPE   H3X18969   7.272   5.988   7.016 -1.2037  0.0509  0.5176
  168SOPE   H3Y18970   7.374   5.856   7.027 -1.5289 -1.8295  2.6894
  168SOPE   C3418971   7.174   5.807   7.074  0.5320  1.3648  0.7402
  168SOPE   H4X18972   7.182   5.698   7.052 -0.0359  0.9614  2.4585
  168SOPE   H4Y18973   7.072   5.852   7.071 -1.2750 -2.4931  0.2202
  168SOPE   C3518974   7.205   5.847   7.218  0.4622 -0.3122 -0.1056
  168SOPE   H5X18975   7.201   5.958   7.219  0.1135 -0.3238 -0.2796
  168SOPE   H5Y18976   7.307   5.817   7.251  0.8251  0.2165 -0.7303
  168SOPE   C3618977   7.096   5.784   7.310 -0.1458 -0.2981  0.9068
  168SOPE   H6X18978   7.092   5.679   7.274 -0.0722  0.2308 -0.6822
  168SOPE   H6Y18979   7.003   5.844   7.314 -0.7719 -1.2786  1.3224
  168SOPE   C3718980   7.149   5.789   7.455 -0.0627  0.2111 -0.1386
  168SOPE   H7X18981   7.260   5.794   7.461 -0.1793  1.4112  1.5120
  168SOPE   H7Y18982   7.112   5.694   7.499  1.0394 -0.5513 -0.8575
  168SOPE   C3818983   7.087   5.906   7.532  0.6298  0.7691  0.6177
  168SOPE   H8X18984   6.977   5.912   7.544  0.5765 -0.9460  1.2114
  168SOPE   H8Y18985   7.111   5.998   7.474  1.2643  0.8749  1.0466
  168SOPE   C3918986   7.143   5.924   7.676 -0.3222  0.5942  0.1148
  168SOPE   H9X18987   7.095   6.007   7.732  2.6522  1.2592  1.7865
  168SOPE   H9Y18988   7.249   5.954   7.661  0.1351 -0.0400  1.9149
  168SOPE  C31018989   7.128   5.802   7.756  0.2220  0.5257  0.7495
  168SOPE  H10X18990   7.184   5.717   7.711 -0.0131 -0.0603  1.5342
  168SOPE  H10Y18991   7.027   5.756   7.752  0.5360 -0.2634  1.5496
  168SOPE  C31118992   7.167   5.811   7.906 -0.5376 -0.0130 -0.7414
  168SOPE  H11X18993   7.111   5.892   7.957  0.9834 -0.5896  1.9402
  168SOPE  H11Y18994   7.276   5.830   7.919 -0.3476 -1.3700 -0.2869
  168SOPE  C31218995   7.136   5.681   7.974 -0.0253 -0.1439  0.3811
  168SOPE  H12X18996   7.216   5.612   7.940  0.5583 -0.2947  2.0070
  168SOPE  H12Y18997   7.037   5.646   7.936  0.0399 -0.1365  0.2051
  168SOPE  C31318998   7.139   5.704   8.122 -0.5696 -0.8194  0.4728
  168SOPE  H13X18999   7.047   5.758   8.153 -0.0831 -0.0588  0.6034
  168SOPE  H13Y19000   7.235   5.758   8.141 -1.2044 -0.7105  3.5797
  168SOPE  C31419001   7.141   5.576   8.200 -0.2716 -0.5603 -0.2606
  168SOPE  H14X19002   7.204   5.504   8.144 -0.4411 -1.0952  0.2221
  168SOPE  H14Y19003   7.037   5.542   8.180  0.2344 -1.2775 -1.6872
  168SOPE  C31519004   7.169   5.590   8.347  0.0956  0.3936  0.2956
  168SOPE  H15X19005   7.097   5.665   8.385 -0.8457 -0.9400  1.1948
  168SOPE  H15Y19006   7.272   5.631   8.342  0.1145  0.2751 -0.2881
  168SOPE  C31619007   7.171   5.452   8.421  0.7549 -0.1353  0.6441
  168SOPE  H16X19008   7.238   5.380   8.370  1.5477  1.1176 -0.1217
  168SOPE  H16Y19009   7.065   5.420   8.424  0.2796  1.4738  2.0169
  168SOPE  C31719010   7.217   5.460   8.572 -0.2274 -0.0844 -0.1450
  168SOPE  H17X19011   7.316   5.509   8.582  1.0206 -2.7778  1.6014
  168SOPE  H17Y19012   7.230   5.356   8.611 -1.9998 -0.2554  0.0605
  168SOPE  C31819013   7.122   5.545   8.656 -0.5395 -0.5525  0.2811
  168SOPE  H18X19014   7.022   5.514   8.618 -0.4489  1.3825 -1.6769
  168SOPE  H18Y19015   7.127   5.655   8.639  2.0499 -0.3837  1.9571
  168SOPE  H18Z19016   7.134   5.526   8.765  0.0697 -1.3204  0.0797
  169SOPE     N19017   2.713   0.662   6.106 -0.4474  0.6528  0.1527
  169SOPE   HN119018   2.612   0.684   6.121 -0.6263 -0.6033  0.8627
  169SOPE   HN219019   2.756   0.747   6.066  0.0247  0.4529  0.2380
  169SOPE   HN319020   2.725   0.583   6.040  2.7416  0.5795  0.7529
  169SOPE   C1219021   2.785   0.631   6.239  0.3017  0.5352  0.1852
  169SOPE  H12A19022   2.881   0.581   6.218  0.3420  0.6212  0.1632
  169SOPE  H12B19023   2.719   0.558   6.291  1.9154 -0.3243  1.0519
  169SOPE   C1119024   2.813   0.749   6.329 -0.3404 -0.4558 -0.4772
  169SOPE  H11A19025   2.855   0.829   6.264 -0.2640 -1.7390 -2.0049
  169SOPE  H11B19026   2.881   0.714   6.410  0.1952  1.0972 -0.2248
  169SOPE     P19027   2.619   0.752   6.508  0.0118 -0.2217 -0.1033
  169SOPE   O1319028   2.609   0.602   6.506 -0.3551 -0.0887 -0.5417
  169SOPE   O1419029   2.497   0.829   6.525 -0.0394  0.0739 -0.4656
  169SOPE   O1219030   2.693   0.807   6.376 -0.2282  0.6742 -0.3496
  169SOPE   O1119031   2.719   0.786   6.624  0.3898  0.2467  0.2456
  169SOPE    C119032   2.790   0.905   6.636  0.5458 -0.0134  0.2136
  169SOPE    HA19033   2.777   0.986   6.561  0.7299 -0.0074  0.1874
  169SOPE    HB19034   2.898   0.879   6.645  0.9340  1.3480 -0.4012
  169SOPE    C219035   2.741   0.974   6.767 -0.6472  0.5143  0.8412
  169SOPE    HS19036   2.802   1.066   6.781 -1.3895  0.8924  1.7035
  169SOPE   O2119037   2.757   0.883   6.883  0.1169  0.2821  0.3332
  169SOPE   C2119038   2.883   0.874   6.921  0.0430 -0.1294  0.3125
  169SOPE   O2219039   2.976   0.939   6.877  0.1124  0.5108 -0.7350
  169SOPE   C2219040   2.897   0.757   7.016  0.1940 -0.6732 -0.1520
  169SOPE   H2R19041   2.910   0.666   6.953 -7.5201 -1.1970 -1.3808
  169SOPE   H2S19042   2.805   0.761   7.077  0.8460  2.1704  0.6922
  169SOPE    C319043   2.596   1.026   6.763  0.0144 -1.0015 -0.8494
  169SOPE    HX19044   2.534   0.934   6.755  0.1353 -1.1423 -0.2237
  169SOPE    HY19045   2.588   1.081   6.666 -0.1998 -0.1162 -0.3368
  169SOPE   O3119046   2.562   1.105   6.874  0.5475 -0.3684  0.5491
  169SOPE   C3119047   2.429   1.107   6.899 -0.0973  0.7559 -0.8593
  169SOPE   O3219048   2.354   1.076   6.813  0.6898 -0.4715 -0.8987
  169SOPE   C3219049   2.392   1.166   7.045 -0.3158 -0.3080  0.2074
  169SOPE   H2X19050   2.289   1.139   7.078  0.0364 -0.2739  1.3315
  169SOPE   H2Y19051   2.396   1.276   7.035  1.7237 -0.3854 -0.0256
  169SOPE   C2319052   3.028   0.780   7.108 -0.3923 -0.1592  0.2735
  169SOPE   H3R19053   3.017   0.874   7.165 -1.9879 -0.5735  0.6796
  169SOPE   H3S19054   3.115   0.782   7.039 -0.2337 -2.6868  0.3516
  169SOPE   C2419055   3.059   0.657   7.196  0.0795  0.3326  0.8694
  169SOPE   H4R19056   3.165   0.658   7.232  0.4907  1.7631 -0.3218
  169SOPE   H4S19057   3.009   0.664   7.295 -0.9341 -0.9109  0.4565
  169SOPE   C2519058   3.044   0.514   7.143 -0.2722 -0.9602 -0.0438
  169SOPE   H5R19059   2.938   0.504   7.112 -0.6729 -1.7244  1.5240
  169SOPE   H5S19060   3.105   0.501   7.051  1.5488  2.3583  0.6380
  169SOPE   C2619061   3.093   0.399   7.234 -0.4629 -0.3302  0.7055
  169SOPE   H6R19062   3.093   0.305   7.175 -0.9801  0.6307 -0.8574
  169SOPE   H6S19063   3.197   0.415   7.270 -0.2410 -1.2269  0.4773
  169SOPE   C2719064   3.002   0.381   7.353  0.2689  0.2757 -0.5959
  169SOPE   H7R19065   2.944   0.474   7.371 -2.0908 -1.5543  1.6959
  169SOPE   H7S19066   2.924   0.304   7.331 -2.9559  3.4089 -0.6284
  169SOPE   C2819067   3.083   0.345   7.480 -0.7546 -0.0054 -0.7891
  169SOPE   H8R19068   3.147   0.260   7.449 -0.6750 -0.0406 -0.5280
  169SOPE   H8S19069   3.143   0.436   7.501 -1.1583  0.4862 -1.7199
  169SOPE   C2919070   2.986   0.303   7.588 -0.1760 -0.3874  0.5140
  169SOPE   H9119071   2.893   0.265   7.542 -0.5923  0.9571  0.2375
  169SOPE  C21019072   2.994   0.316   7.722 -0.1029 -0.4017  0.5777
  169SOPE  H10119073   2.912   0.284   7.789 -2.2954  2.9782 -0.3458
  169SOPE  C21119074   3.109   0.384   7.794  0.3919 -0.2117 -0.7668
  169SOPE  H11R19075   3.084   0.486   7.831 -2.2100 -0.3409 -2.0782
  169SOPE  H11S19076   3.202   0.393   7.734  0.7380  1.6149  0.0093
  169SOPE  C21219077   3.161   0.304   7.920 -0.6908 -0.3260  0.1805
  169SOPE  H12R19078   3.089   0.315   8.004  1.0238 -0.3149  1.6692
  169SOPE  H12S19079   3.252   0.364   7.943 -1.1563  0.2626  0.5187
  169SOPE  C21319080   3.212   0.167   7.880 -0.1130  0.5791  0.5555
  169SOPE  H13R19081   3.302   0.192   7.820 -0.9774  1.6095 -0.3387
  169SOPE  H13S19082   3.150   0.109   7.808  1.7064 -0.1325 -0.4776
  169SOPE  C21419083   3.243   0.083   8.007  0.0400 -0.4950  0.1678
  169SOPE  H14R19084   3.292  -0.011   7.975  1.3687  0.5183 -0.8219
  169SOPE  H14S19085   3.148   0.055   8.058  0.0368 -2.8006 -1.0589
  169SOPE  C21519086   3.332   0.163   8.100 -0.0008 -0.3039 -0.7830
  169SOPE  H15R19087   3.273   0.236   8.159  0.1652 -0.3755 -0.5242
  169SOPE  H15S19088   3.406   0.216   8.035 -1.1012  2.4029  0.1129
  169SOPE  C21619089   3.411   0.087   8.209  0.3212 -0.2708 -0.4440
  169SOPE  H16R19090   3.474   0.019   8.148  2.1399  1.7057 -0.7894
  169SOPE  H16S19091   3.344   0.025   8.274  1.9259 -2.9881 -1.2728
  169SOPE  C21719092   3.502   0.183   8.286 -0.5436 -0.0951  0.4554
  169SOPE  H17R19093   3.448   0.248   8.358  0.7478  2.9598 -1.2764
  169SOPE  H17S19094   3.549   0.245   8.207 -1.0021 -0.7431 -0.3374
  169SOPE  C21819095   3.612   0.114   8.371 -0.0279  0.0595  0.7688
  169SOPE  H18R19096   3.679   0.195   8.408  0.6902 -0.7883  1.3513
  169SOPE  H18S19097   3.681   0.050   8.312 -2.1245  0.1280 -1.8057
  169SOPE  H18T19098   3.577   0.048   8.454  2.8092 -0.9801  1.2060
  169SOPE   C3319099   2.500   1.118   7.136 -0.2638  0.5035 -0.9729
  169SOPE   H3X19100   2.588   1.181   7.107 -0.7762  0.2113 -3.2057
  169SOPE   H3Y19101   2.525   1.012   7.115 -1.4265 -0.0292  0.2318
  169SOPE   C3419102   2.452   1.134   7.285 -0.4309 -0.2547  0.2351
  169SOPE   H4X19103   2.364   1.067   7.291 -2.6608  2.4895 -0.4270
  169SOPE   H4Y19104   2.437   1.244   7.297 -0.1166  0.2847 -3.5547
  169SOPE   C3519105   2.556   1.096   7.386  0.0866  0.4162 -0.0138
  169SOPE   H5X19106   2.639   1.161   7.350  0.3209 -0.5632 -1.2813
  169SOPE   H5Y19107   2.569   0.985   7.380 -0.0665  0.3700  0.4612
  169SOPE   C3619108   2.521   1.127   7.535  0.1128  0.8368 -0.3270
  169SOPE   H6X19109   2.606   1.103   7.602 -2.3664 -0.0087  2.5839
  169SOPE   H6Y19110   2.430   1.068   7.557  1.9829 -1.6098  1.1738
  169SOPE   C3719111   2.502   1.269   7.574  0.0763  0.1442 -0.6654
  169SOPE   H7X19112   2.403   1.314   7.547  0.5934  1.3053 -0.6533
  169SOPE   H7Y19113   2.582   1.330   7.527  0.1756 -0.3543 -1.1496
  169SOPE   C3819114   2.508   1.285   7.723 -0.0312  0.1601 -0.0792
  169SOPE   H8X19115   2.609   1.261   7.764  0.1721  2.1610  0.6398
  169SOPE   H8Y19116   2.510   1.395   7.735  0.0074 -0.0870  2.5713
  169SOPE   C3919117   2.395   1.227   7.810 -0.8916  0.0764 -0.2757
  169SOPE   H9X19118   2.303   1.212   7.749 -0.1955 -1.4652 -0.9881
  169SOPE   H9Y19119   2.350   1.302   7.878 -0.2959 -0.6245  0.9137
  169SOPE  C31019120   2.423   1.094   7.888 -0.1343 -0.2562  0.2327
  169SOPE  H10X19121   2.472   1.026   7.815 -1.1557  0.0377 -0.7349
  169SOPE  H10Y19122   2.328   1.050   7.925 -0.8828  0.2104 -1.1077
  169SOPE  C31119123   2.523   1.122   7.999  0.3365 -0.5334  0.3038
  169SOPE  H11X19124   2.469   1.160   8.088 -1.1213 -1.5665 -0.1197
  169SOPE  H11Y19125   2.603   1.195   7.974  0.3551 -1.0209 -1.1358
  169SOPE  C31219126   2.590   0.982   8.035 -0.4431 -0.0181  0.7578
  169SOPE  H12X19127   2.664   0.941   7.963 -1.4778 -1.4558  0.4935
  169SOPE  H12Y19128   2.503   0.913   8.029 -0.3532 -0.0091 -1.2069
  169SOPE  C31319129   2.640   0.987   8.174 -0.2982 -0.0045 -0.9469
  169SOPE  H13X19130   2.549   1.001   8.237 -0.1688  1.5107 -1.0784
  169SOPE  H13Y19131   2.694   1.083   8.187  0.1178 -0.1362 -1.6799
  169SOPE  C31419132   2.706   0.856   8.227 -0.0846  0.4875  0.1531
  169SOPE  H14X19133   2.716   0.873   8.336 -2.9619  0.0022  0.5478
  169SOPE  H14Y19134   2.807   0.836   8.185 -0.0780 -0.0666  0.4257
  169SOPE  C31519135   2.619   0.724   8.209 -1.1234  0.3704 -0.2187
  169SOPE  H15X19136   2.592   0.699   8.104 -0.7362  0.2786 -0.2944
  169SOPE  H15Y19137   2.527   0.744   8.269 -0.2822  2.2298  0.4827
  169SOPE  C31619138   2.692   0.600   8.270  0.0312  0.1087  0.0132
  169SOPE  H16X19139   2.791   0.577   8.226  0.1775 -0.3288  0.5600
  169SOPE  H16Y19140   2.630   0.509   8.253 -0.1315  0.1335  0.4547
  169SOPE  C31719141   2.700   0.605   8.419 -0.1032 -0.3399  0.1688
  169SOPE  H17X19142   2.618   0.661   8.470 -1.3624 -1.5131 -0.5501
  169SOPE  H17Y19143   2.789   0.670   8.436 -2.2864  2.4296  1.3542
  169SOPE  C31819144   2.729   0.470   8.497 -0.0607  0.3654  0.1148
  169SOPE  H18X19145   2.651   0.391   8.492  0.1799  0.1670 -0.5480
  169SOPE  H18Y19146   2.749   0.495   8.603 -1.5687  2.3166 -0.0243
  169SOPE  H18Z19147   2.818   0.417   8.457  0.7609  0.4775  1.7718
  170SOPE     N19148   3.636   5.888   6.355  0.2065 -0.0869 -0.0783
  170SOPE   HN119149   3.581   5.932   6.279  1.4712 -2.4695 -2.4535
  170SOPE   HN219150   3.736   5.891   6.327  0.6280 -0.3878  1.3458
  170SOPE   HN319151   3.610   5.788   6.361  1.5495 -0.6162 -2.4081
  170SOPE   C1219152   3.631   5.958   6.485 -0.7585  0.2780 -0.1933
  170SOPE  H12A19153   3.728   5.932   6.534  0.4694  0.2448 -2.5639
  170SOPE  H12B19154   3.549   5.907   6.540 -0.7092 -1.1729 -1.4541
  170SOPE   C1119155   3.621   6.116   6.486 -0.0267 -0.4445 -0.5603
  170SOPE  H11A19156   3.620   6.135   6.596 -1.7816 -0.0125 -0.6349
  170SOPE  H11B19157   3.529   6.143   6.429 -0.7132  1.0486  1.1824
  170SOPE     P19158   3.773   6.315   6.420 -0.3410  0.2306 -0.4300
  170SOPE   O1319159   3.707   6.372   6.301  0.2944  0.3165  0.2898
  170SOPE   O1419160   3.918   6.337   6.428 -0.4067  0.0974  0.1887
  170SOPE   O1219161   3.742   6.157   6.419 -0.7191 -0.0176  0.0455
  170SOPE   O1119162   3.708   6.364   6.557  0.0901 -0.0137  0.2881
  170SOPE    C119163   3.573   6.425   6.549  0.1307  0.2002  0.5765
  170SOPE    HA19164   3.508   6.365   6.482 -0.8162 -0.1831  1.8163
  170SOPE    HB19165   3.574   6.527   6.505 -0.0778  0.2216  0.6229
  170SOPE    C219166   3.498   6.442   6.679  0.0221 -0.0000  0.3511
  170SOPE    HS19167   3.415   6.516   6.670  0.7190  0.7179 -0.3257
  170SOPE   O2119168   3.585   6.479   6.788  0.0092 -0.1936 -0.0471
  170SOPE   C2119169   3.639   6.597   6.779 -0.0755 -0.3774  0.8417
  170SOPE   O2219170   3.628   6.676   6.686 -0.0889 -0.3323  0.0221
  170SOPE   C2219171   3.719   6.621   6.897 -0.2812 -1.3009  0.1896
  170SOPE   H2R19172   3.816   6.649   6.853 -0.3398 -1.0667  0.2113
  170SOPE   H2S19173   3.735   6.530   6.960  1.1668 -2.6586 -2.0755
  170SOPE    C319174   3.421   6.309   6.724 -0.3005 -0.3638  0.1993
  170SOPE    HX19175   3.504   6.235   6.736  0.6507  0.0476 -3.4164
  170SOPE    HY19176   3.354   6.270   6.645 -0.6489  0.2429  0.1918
  170SOPE   O3119177   3.339   6.321   6.849 -0.0382 -0.2069  0.2116
  170SOPE   C3119178   3.224   6.383   6.844 -0.2688 -0.0670  0.2304
  170SOPE   O3219179   3.166   6.415   6.741 -0.1689 -0.0323  0.5486
  170SOPE   C3219180   3.166   6.419   6.978  1.0518  1.0774 -0.6306
  170SOPE   H2X19181   3.061   6.384   6.966  1.5544 -1.4808  1.9932
  170SOPE   H2Y19182   3.164   6.530   6.988 -0.9846  1.2309 -2.2524
  170SOPE   C2319183   3.663   6.741   6.968 -1.0116 -0.1455  0.0324
  170SOPE   H3R19184   3.624   6.825   6.908 -1.9168 -1.1687 -0.8242
  170SOPE   H3S19185   3.745   6.791   7.025 -0.5470 -1.4613  0.5464
  170SOPE   C2419186   3.565   6.704   7.077  0.1421  0.3341 -0.5785
  170SOPE   H4R19187   3.474   6.664   7.026  0.6524 -0.9799 -0.4784
  170SOPE   H4S19188   3.610   6.630   7.147 -0.7848 -0.1033 -0.4269
  170SOPE   C2519189   3.541   6.819   7.174  0.6276  0.0412  0.3383
  170SOPE   H5R19190   3.639   6.866   7.197  0.2287  0.5479  1.0560
  170SOPE   H5S19191   3.469   6.887   7.125  0.8380 -0.1873 -0.2857
  170SOPE   C2619192   3.486   6.761   7.309  0.1102 -0.2990  0.4727
  170SOPE   H6R19193   3.568   6.702   7.356  0.7987  1.4391  1.5091
  170SOPE   H6S19194   3.477   6.851   7.373  1.0861  0.1222  0.0144
  170SOPE   C2719195   3.345   6.693   7.301 -0.6194  0.8742 -0.0865
  170SOPE   H7R19196   3.282   6.783   7.286 -0.2028  1.0303 -0.9453
  170SOPE   H7S19197   3.335   6.638   7.205  0.9931  1.0812 -0.3790
  170SOPE   C2819198   3.311   6.599   7.418 -0.1560 -0.1959 -0.5447
  170SOPE   H8R19199   3.231   6.536   7.373  0.4694 -2.2584  1.1203
  170SOPE   H8S19200   3.390   6.526   7.444  0.4487 -0.6238 -3.4126
  170SOPE   C2919201   3.267   6.685   7.540  0.3615  0.4747  0.3863
  170SOPE   H9119202   3.206   6.775   7.524 -0.4338  0.0452  0.9317
  170SOPE  C21019203   3.298   6.666   7.669  0.1033  0.1128  0.1830
  170SOPE  H10119204   3.264   6.739   7.744 -0.4071  1.3294 -1.2074
  170SOPE  C21119205   3.376   6.543   7.720 -0.0639 -0.0142  0.1351
  170SOPE  H11R19206   3.450   6.583   7.793  0.6044 -0.4645 -0.2812
  170SOPE  H11S19207   3.435   6.495   7.639 -0.5782  0.2874 -0.4188
  170SOPE  C21219208   3.280   6.442   7.781 -0.0888  0.3393 -0.0466
  170SOPE  H12R19209   3.202   6.412   7.708 -0.5766  0.4785  0.4101
  170SOPE  H12S19210   3.230   6.490   7.868 -0.4356 -0.6013  0.2783
  170SOPE  C21319211   3.358   6.313   7.821 -0.3985  0.1316  0.3415
  170SOPE  H13R19212   3.419   6.272   7.737  1.4221 -0.1150  1.7707
  170SOPE  H13S19213   3.269   6.253   7.850 -0.8123  0.3945 -0.3408
  170SOPE  C21419214   3.453   6.327   7.936 -0.6035  0.1495  0.9692
  170SOPE  H14R19215   3.421   6.402   8.013 -0.7118 -0.2570  1.3181
  170SOPE  H14S19216   3.553   6.371   7.917 -1.8311  2.6117 -0.0073
  170SOPE  C21519217   3.468   6.195   8.006 -0.5824  0.4648  0.1547
  170SOPE  H15R19218   3.491   6.114   7.933 -0.1503  0.5295  0.2245
  170SOPE  H15S19219   3.381   6.171   8.071 -1.2007  2.0553 -0.0531
  170SOPE  C21619220   3.588   6.197   8.106 -0.0614 -0.4149  0.0774
  170SOPE  H16R19221   3.594   6.295   8.158 -0.1811  0.7407 -2.0494
  170SOPE  H16S19222   3.676   6.173   8.042  1.7892  2.1203  1.5721
  170SOPE  C21719223   3.591   6.084   8.207  0.3535  0.3711 -0.1410
  170SOPE  H17R19224   3.554   5.987   8.169  0.8637 -0.2580  0.9631
  170SOPE  H17S19225   3.515   6.111   8.285 -0.8385 -1.0945 -0.7794
  170SOPE  C21819226   3.718   6.061   8.285 -0.2063 -0.2306 -1.3798
  170SOPE  H18R19227   3.707   6.004   8.380  0.5239 -3.4969 -3.1808
  170SOPE  H18S19228   3.763   6.161   8.304 -2.4483  0.3430  1.1907
  170SOPE  H18T19229   3.790   6.012   8.217  0.5682  1.3091 -1.7021
  170SOPE   C3319230   3.235   6.369   7.108 -0.1136  0.0976 -0.4497
  170SOPE   H3X19231   3.180   6.424   7.188 -0.5709  1.1154 -1.4429
  170SOPE   H3Y19232   3.343   6.396   7.112  0.2984 -1.5574  0.1327
  170SOPE   C3419233   3.228   6.225   7.146  0.3606  0.2975  0.0281
  170SOPE   H4X19234   3.282   6.161   7.072 -0.0403  1.4561 -1.2791
  170SOPE   H4Y19235   3.123   6.191   7.141  0.7429 -1.1250  1.1965
  170SOPE   C3519236   3.278   6.196   7.291 -0.1021  0.2576 -0.2411
  170SOPE   H5X19237   3.249   6.281   7.356  0.2072 -0.0518  0.3033
  170SOPE   H5Y19238   3.388   6.180   7.290 -0.0026  0.7722  1.1442
  170SOPE   C3619239   3.227   6.066   7.348  0.3523 -0.0047  0.0440
  170SOPE   H6X19240   3.253   5.972   7.294 -1.0601 -0.2860 -0.1606
  170SOPE   H6Y19241   3.117   6.069   7.358  0.1946 -2.1388 -0.7053
  170SOPE   C3719242   3.284   6.055   7.491 -0.1295 -0.2377 -0.5111
  170SOPE   H7X19243   3.258   6.148   7.547  1.0802  0.2070 -0.6740
  170SOPE   H7Y19244   3.395   6.051   7.483  0.0594  1.6086  1.0137
  170SOPE   C3819245   3.226   5.940   7.581 -0.4003  0.4487  0.5607
  170SOPE   H8X19246   3.268   5.841   7.555 -0.5968  0.6906 -0.6912
  170SOPE   H8Y19247   3.117   5.929   7.564 -0.0341 -1.0002 -0.9397
  170SOPE   C3919248   3.240   5.969   7.735  0.8531  0.5084 -0.7267
  170SOPE   H9X19249   3.185   6.055   7.781  0.1301  0.2416 -1.0873
  170SOPE   H9Y19250   3.350   5.983   7.743  1.0435 -0.8618 -0.8340
  170SOPE  C31019251   3.203   5.845   7.829  0.5614 -0.4377 -0.1214
  170SOPE  H10X19252   3.099   5.813   7.812  0.6672 -1.9626  1.9667
  170SOPE  H10Y19253   3.200   5.894   7.929  3.1342  0.4138 -0.4094
  170SOPE  C31119254   3.286   5.721   7.807 -0.4065  0.3380 -0.4125
  170SOPE  H11X19255   3.388   5.743   7.843 -0.2192 -1.0869 -0.0262
  170SOPE  H11Y19256   3.280   5.692   7.700  0.4967  0.5543 -0.5264
  170SOPE  C31219257   3.232   5.602   7.890  0.5263 -0.3449 -0.3693
  170SOPE  H12X19258   3.139   5.563   7.844 -0.4736  0.9339  0.5251
  170SOPE  H12Y19259   3.206   5.629   7.995  2.7596 -2.2187  0.7038
  170SOPE  C31319260   3.340   5.493   7.897 -0.0969 -0.0081 -0.7567
  170SOPE  H13X19261   3.432   5.537   7.940 -0.2022  0.8983 -1.4421
  170SOPE  H13Y19262   3.361   5.460   7.793 -0.0527 -1.6553 -0.2466
  170SOPE  C31419263   3.296   5.368   7.983 -0.3531  0.7497 -0.4706
  170SOPE  H14X19264   3.371   5.287   7.965 -1.9759 -0.8492 -0.1876
  170SOPE  H14Y19265   3.197   5.333   7.946  0.6534 -1.0705 -1.5494
  170SOPE  C31519266   3.276   5.397   8.129 -0.1776  0.6507 -0.3435
  170SOPE  H15X19267   3.235   5.307   8.179  1.1144  0.5831  0.5943
  170SOPE  H15Y19268   3.194   5.472   8.131  2.0581  3.1690 -0.7240
  170SOPE  C31619269   3.385   5.464   8.211  0.9430  0.4407 -0.2664
  170SOPE  H16X19270   3.431   5.544   8.149  1.6137  0.0623 -0.2588
  170SOPE  H16Y19271   3.466   5.391   8.231  2.0377  1.0537 -2.3350
  170SOPE  C31719272   3.341   5.513   8.351  0.4719  0.2764  0.1135
  170SOPE  H17X19273   3.316   5.422   8.410 -1.3104 -0.6818 -2.0687
  170SOPE  H17Y19274   3.254   5.581   8.340 -0.5288 -0.6003  2.2268
  170SOPE  C31819275   3.433   5.599   8.425  0.3923 -0.0542 -0.0179
  170SOPE  H18X19276   3.385   5.660   8.505  0.0341  0.9195 -0.9651
  170SOPE  H18Y19277   3.471   5.678   8.357  0.9426 -0.9961 -0.8108
  170SOPE  H18Z19278   3.516   5.547   8.478  1.8800  1.0872 -1.1814
  171SOPE     N19279   3.691   2.477   6.350 -0.4323  0.2298  0.5116
  171SOPE   HN119280   3.604   2.459   6.294  0.6543  2.4568 -2.0198
  171SOPE   HN219281   3.726   2.383   6.377 -0.5620 -0.2690 -0.9734
  171SOPE   HN319282   3.678   2.526   6.440  1.3962 -0.0605  0.9467
  171SOPE   C1219283   3.805   2.525   6.269  0.6053 -0.6576  0.1908
  171SOPE  H12A19284   3.782   2.629   6.239 -2.7518 -1.2743  0.3363
  171SOPE  H12B19285   3.810   2.455   6.183  1.0951  0.6748 -0.8780
  171SOPE   C1119286   3.937   2.519   6.356 -0.1029 -0.1766 -0.6009
  171SOPE  H11A19287   3.917   2.537   6.463 -0.3523  1.1320 -0.8562
  171SOPE  H11B19288   3.995   2.603   6.312 -0.7470  0.5450 -0.0816
  171SOPE     P19289   3.979   2.273   6.424  0.7266 -0.3563  0.1676
  171SOPE   O1319290   4.074   2.167   6.380  0.1731 -0.0285  0.2749
  171SOPE   O1419291   3.839   2.238   6.434 -0.5608 -0.3117 -0.6709
  171SOPE   O1219292   3.998   2.396   6.325 -0.1863  0.3940 -0.0923
  171SOPE   O1119293   4.029   2.328   6.561  0.1191 -0.3098  0.1343
  171SOPE    C119294   4.106   2.246   6.638 -0.5245 -0.0343 -0.6842
  171SOPE    HA19295   4.212   2.262   6.609 -0.4040  0.8081  0.1924
  171SOPE    HB19296   4.087   2.139   6.614 -0.9824  0.0659 -0.7624
  171SOPE    C219297   4.088   2.266   6.790 -0.1926  0.3182  0.3395
  171SOPE    HS19298   3.983   2.232   6.808  0.4050 -1.3394  0.7660
  171SOPE   O2119299   4.115   2.402   6.829 -0.5229 -0.4590  0.3246
  171SOPE   C2119300   4.010   2.462   6.896 -0.0109 -0.0116 -0.5501
  171SOPE   O2219301   3.911   2.402   6.943  0.4426 -0.3615  0.6411
  171SOPE   C2219302   4.026   2.617   6.914 -0.2684  0.1717 -0.0979
  171SOPE   H2R19303   3.937   2.644   6.975 -0.4330  3.7650 -1.8014
  171SOPE   H2S19304   4.016   2.672   6.818  0.4967  2.1600  0.9297
  171SOPE    C319305   4.188   2.174   6.853 -0.7618 -0.6217  0.9259
  171SOPE    HX19306   4.293   2.200   6.830 -0.7680 -0.7398  0.7680
  171SOPE    HY19307   4.162   2.072   6.817  1.9318 -1.0150 -0.0280
  171SOPE   O3119308   4.178   2.175   6.995  0.4507 -0.3260 -0.4936
  171SOPE   C3119309   4.264   2.084   7.047 -0.0535 -0.0926 -0.9509
  171SOPE   O3219310   4.328   2.007   6.983  0.0482  0.0407 -0.3194
  171SOPE   C3219311   4.274   2.098   7.201 -0.0648 -0.6643 -0.0455
  171SOPE   H2X19312   4.172   2.105   7.244  0.2582 -3.1216  1.1993
  171SOPE   H2Y19313   4.323   2.196   7.221 -0.3176 -0.8669  1.6532
  171SOPE   C2319314   4.167   2.669   6.963 -0.1951  0.4846 -0.6299
  171SOPE   H3R19315   4.160   2.779   6.973 -2.5125  0.1662  1.6974
  171SOPE   H3S19316   4.230   2.651   6.873  0.5549  0.2087 -0.0500
  171SOPE   C2419317   4.240   2.593   7.079  0.2411  0.0964 -0.5135
  171SOPE   H4R19318   4.269   2.493   7.039  0.0237 -0.5101  0.8403
  171SOPE   H4S19319   4.330   2.654   7.100 -1.3948  2.1638  0.6294
  171SOPE   C2519320   4.154   2.575   7.210  0.3979 -0.3407  0.1302
  171SOPE   H5R19321   4.145   2.678   7.250  2.6098  0.1577 -0.6039
  171SOPE   H5S19322   4.048   2.545   7.190 -0.4395  1.5372  1.5767
  171SOPE   C2619323   4.212   2.479   7.312 -1.7318 -0.3162  0.0157
  171SOPE   H6R19324   4.247   2.386   7.262 -0.1104  0.5797 -0.5566
  171SOPE   H6S19325   4.296   2.535   7.360 -1.5253 -1.1019  0.5880
  171SOPE   C2719326   4.124   2.445   7.428 -0.0513 -0.0992  0.5709
  171SOPE   H7R19327   4.115   2.533   7.495  0.5235 -1.3726  2.3677
  171SOPE   H7S19328   4.024   2.427   7.382 -0.6175  0.1696  1.6713
  171SOPE   C2819329   4.158   2.318   7.502  0.7820  0.1978 -0.4794
  171SOPE   H8R19330   4.142   2.227   7.440 -0.9381  0.2257 -0.1050
  171SOPE   H8S19331   4.265   2.316   7.532  1.3199 -1.3359 -2.4392
  171SOPE   C2919332   4.074   2.308   7.622 -0.1246  0.4100 -1.0121
  171SOPE   H9119333   3.974   2.268   7.597 -0.2285 -0.9359  1.4123
  171SOPE  C21019334   4.095   2.355   7.746 -0.4564  0.1127 -1.3620
  171SOPE  H10119335   4.016   2.333   7.820 -1.7480  2.0416 -2.1516
  171SOPE  C21119336   4.212   2.437   7.795  0.1611 -0.2529 -0.1490
  171SOPE  H11R19337   4.179   2.513   7.869  0.9357  0.4897 -0.5632
  171SOPE  H11S19338   4.256   2.497   7.712  1.6766 -3.2010 -1.5714
  171SOPE  C21219339   4.327   2.373   7.876  0.4759  0.0362 -0.1900
  171SOPE  H12R19340   4.399   2.456   7.892  3.3224 -1.6160 -3.6143
  171SOPE  H12S19341   4.381   2.291   7.823  1.6301  0.7597 -0.1487
  171SOPE  C21319342   4.286   2.326   8.014  1.1900 -0.2191 -0.5182
  171SOPE  H13R19343   4.374   2.303   8.077 -0.3069 -0.6721  1.4446
  171SOPE  H13S19344   4.228   2.232   8.025  1.4026  0.0050  2.9796
  171SOPE  C21419345   4.199   2.432   8.101 -0.2454 -0.5480  0.1921
  171SOPE  H14R19346   4.098   2.434   8.055  0.4796  1.4590 -1.3944
  171SOPE  H14S19347   4.249   2.530   8.093  0.3576 -0.7480  1.3581
  171SOPE  C21519348   4.200   2.386   8.243 -0.1548  0.4872 -0.5858
  171SOPE  H15R19349   4.305   2.383   8.280 -0.7373 -3.6953  0.9171
  171SOPE  H15S19350   4.167   2.281   8.255  1.2643  0.2683  1.6875
  171SOPE  C21619351   4.126   2.475   8.333 -0.8504 -0.5951 -0.0090
  171SOPE  H16R19352   4.098   2.425   8.428  2.0719  1.3238  1.9655
  171SOPE  H16S19353   4.028   2.504   8.288  0.3137  0.9819 -1.6234
  171SOPE  C21719354   4.205   2.592   8.380  0.1414 -0.3296 -0.2332
  171SOPE  H17R19355   4.233   2.656   8.293  3.4169 -0.5100  0.6394
  171SOPE  H17S19356   4.298   2.563   8.433  1.0992  1.7717 -0.7294
  171SOPE  C21819357   4.118   2.687   8.464 -1.0208  0.1003  0.2541
  171SOPE  H18R19358   4.071   2.636   8.550 -0.2283  1.0080  1.2262
  171SOPE  H18S19359   4.032   2.735   8.412 -0.5719  0.0313 -0.5662
  171SOPE  H18T19360   4.181   2.770   8.502 -0.5635 -0.3544  0.4898
  171SOPE   C3319361   4.363   1.986   7.258 -0.3477  0.7371  0.3168
  171SOPE   H3X19362   4.458   1.984   7.202  0.3925 -1.5617  1.5640
  171SOPE   H3Y19363   4.319   1.884   7.246 -0.3324  0.7382  0.2549
  171SOPE   C3419364   4.396   1.991   7.407  0.7294 -0.2381 -0.2349
  171SOPE   H4X19365   4.444   2.087   7.439 -0.2327  0.9374 -2.2247
  171SOPE   H4Y19366   4.475   1.915   7.417 -0.9406 -2.0888 -0.8785
  171SOPE   C3519367   4.267   1.964   7.487 -0.3738  0.1161 -0.8182
  171SOPE   H5X19368   4.235   1.860   7.464  0.3621 -0.5463  1.0703
  171SOPE   H5Y19369   4.180   2.032   7.473 -0.2436  0.2929 -0.7767
  171SOPE   C3619370   4.307   1.985   7.638  0.3007 -0.3328  0.3417
  171SOPE   H6X19371   4.218   1.960   7.699 -0.1703  1.0784  0.2581
  171SOPE   H6Y19372   4.324   2.094   7.652 -0.3691 -0.1944  0.0760
  171SOPE   C3719373   4.429   1.906   7.681 -0.2180 -0.3073  0.4242
  171SOPE   H7X19374   4.522   1.939   7.631  0.5154 -1.3853  1.0680
  171SOPE   H7Y19375   4.416   1.797   7.667 -0.7808 -0.3424  1.2088
  171SOPE   C3819376   4.458   1.930   7.831  0.4680 -0.2549 -0.9152
  171SOPE   H8X19377   4.440   2.036   7.860  2.6404 -0.3915  1.0575
  171SOPE   H8Y19378   4.566   1.914   7.849  0.1623 -0.1984  1.1108
  171SOPE   C3919379   4.368   1.846   7.928 -0.0217 -0.0448 -0.0708
  171SOPE   H9X19380   4.375   1.740   7.894  1.7360  0.5102 -1.4838
  171SOPE   H9Y19381   4.264   1.884   7.924 -0.8578 -2.1524  0.9159
  171SOPE  C31019382   4.414   1.855   8.074 -0.3109  0.0008  0.0176
  171SOPE  H10X19383   4.433   1.956   8.114  0.2707 -0.3328  0.5826
  171SOPE  H10Y19384   4.513   1.804   8.078 -0.9076 -1.1193  0.7020
  171SOPE  C31119385   4.328   1.773   8.176  0.1744 -0.2856  0.0217
  171SOPE  H11X19386   4.381   1.781   8.273 -1.1778  1.8424  0.6308
  171SOPE  H11Y19387   4.326   1.663   8.158 -0.7750 -0.6562  2.3097
  171SOPE  C31219388   4.185   1.827   8.195  0.2202 -0.0821  0.3418
  171SOPE  H12X19389   4.130   1.812   8.099  0.7776 -0.3244  0.0581
  171SOPE  H12Y19390   4.192   1.934   8.225 -0.9680 -0.7457  3.0892
  171SOPE  C31319391   4.114   1.765   8.314 -0.0757  0.3167  0.2194
  171SOPE  H13X19392   4.007   1.791   8.299  0.7768  2.3234 -2.9158
  171SOPE  H13Y19393   4.163   1.801   8.408 -0.0802  0.3408  0.2120
  171SOPE  C31419394   4.120   1.617   8.329 -0.9200  0.2036  0.3801
  171SOPE  H14X19395   4.221   1.571   8.333 -0.7736  0.5828  1.0064
  171SOPE  H14Y19396   4.073   1.554   8.250 -2.0708 -0.2608  1.4096
  171SOPE  C31519397   4.046   1.565   8.458 -0.8404  0.3659 -0.1404
  171SOPE  H15X19398   3.946   1.612   8.447 -0.3621  1.5295  0.4037
  171SOPE  H15Y19399   4.092   1.613   8.548 -3.0475  3.0073 -0.3470
  171SOPE  C31619400   4.042   1.413   8.475  0.3630 -0.2670 -0.5771
  171SOPE  H16X19401   4.148   1.382   8.471 -0.2603 -2.8856  1.4845
  171SOPE  H16Y19402   4.002   1.364   8.383  0.3786 -0.4736 -0.4735
  171SOPE  C31719403   3.977   1.347   8.595 -0.5869 -0.1041 -0.2036
  171SOPE  H17X19404   4.064   1.350   8.664  0.8974 -0.7870 -2.0235
  171SOPE  H17Y19405   3.968   1.241   8.562  0.3091 -0.3430  0.3030
  171SOPE  C31819406   3.851   1.402   8.653  0.1455 -0.3191 -0.0973
  171SOPE  H18X19407   3.865   1.500   8.704  0.8802 -0.3246 -0.2932
  171SOPE  H18Y19408   3.819   1.330   8.731 -1.2550 -1.7134 -1.9046
  171SOPE  H18Z19409   3.774   1.404   8.572  1.0423  0.5674 -0.9329
  172SOPE     N19410   4.427   4.806   6.629 -0.4845 -0.4581  0.7631
  172SOPE   HN119411   4.374   4.732   6.681 -1.4425  2.2662  3.8330
  172SOPE   HN219412   4.506   4.834   6.691  0.9261 -0.4834 -0.9778
  172SOPE   HN319413   4.368   4.890   6.615 -1.3248 -0.3972  4.1289
  172SOPE   C1219414   4.490   4.745   6.501 -0.3844  0.1637 -0.9955
  172SOPE  H12A19415   4.518   4.827   6.431  1.4312 -0.1768 -0.7137
  172SOPE  H12B19416   4.412   4.696   6.440 -1.0134 -0.2939  0.1630
  172SOPE   C1119417   4.598   4.632   6.526 -0.8808 -0.8313 -0.2289
  172SOPE  H11A19418   4.618   4.582   6.428 -0.0571  0.0688 -0.5224
  172SOPE  H11B19419   4.572   4.542   6.586  1.6082 -1.8454 -0.6435
  172SOPE     P19420   4.826   4.745   6.508 -0.1714 -0.1516 -0.1294
  172SOPE   O1319421   4.776   4.843   6.406  0.2219  0.1046  0.0188
  172SOPE   O1419422   4.916   4.638   6.460  0.6962 -0.6480  0.2185
  172SOPE   O1219423   4.703   4.696   6.593  0.4725 -0.0260  0.5185
  172SOPE   O1119424   4.907   4.833   6.612 -0.0562  0.5514 -0.5632
  172SOPE    C119425   4.831   4.935   6.683  0.9561 -0.2539  0.1348
  172SOPE    HA19426   4.721   4.929   6.670  1.0623 -0.7049 -0.6122
  172SOPE    HB19427   4.865   5.034   6.645 -0.6356  1.1841  2.3264
  172SOPE    C219428   4.853   4.926   6.834  0.0241 -0.2026 -0.5190
  172SOPE    HS19429   4.963   4.931   6.852  0.1423 -1.9918 -0.6194
  172SOPE   O2119430   4.808   4.798   6.885  0.6978 -0.2288  0.3336
  172SOPE   C2119431   4.685   4.764   6.894  0.4703 -0.0340 -0.3184
  172SOPE   O2219432   4.585   4.820   6.850  0.6392 -0.6236  0.0625
  172SOPE   C2219433   4.685   4.622   6.962  0.4076 -0.0981  0.8095
  172SOPE   H2R19434   4.784   4.592   7.003  0.1447 -0.3001  1.2952
  172SOPE   H2S19435   4.657   4.565   6.871  0.9111  1.2824 -0.2348
  172SOPE    C319436   4.790   5.042   6.916 -0.8572  0.4882  0.5276
  172SOPE    HX19437   4.686   5.065   6.885  0.1698  3.2420 -1.0333
  172SOPE    HY19438   4.854   5.127   6.885  0.6763 -0.7633  0.2378
  172SOPE   O3119439   4.804   5.030   7.060 -0.4473 -0.2879 -0.8045
  172SOPE   C3119440   4.928   5.045   7.109 -0.8857 -0.2193  0.3020
  172SOPE   O3219441   5.030   5.069   7.045 -0.8541 -0.9752  0.4106
  172SOPE   C3219442   4.922   5.012   7.260  0.5220 -0.1878 -0.4256
  172SOPE   H2X19443   4.906   4.904   7.284  2.5479 -0.4752 -0.2519
  172SOPE   H2Y19444   4.835   5.074   7.291  0.3031  0.3348 -2.0390
  172SOPE   C2319445   4.585   4.621   7.081  0.0789  0.1860  0.1894
  172SOPE   H3R19446   4.542   4.520   7.100 -0.7221  0.2822 -1.0526
  172SOPE   H3S19447   4.501   4.683   7.044  0.0737  0.1785  0.1899
  172SOPE   C2419448   4.658   4.663   7.214  0.2447  0.4324  0.3891
  172SOPE   H4R19449   4.742   4.591   7.217 -0.1263 -0.0481 -0.6726
  172SOPE   H4S19450   4.700   4.766   7.209  0.6405  0.1823 -1.7522
  172SOPE   C2519451   4.571   4.653   7.342 -0.4920  0.2671  0.6435
  172SOPE   H5R19452   4.465   4.679   7.319  0.2323  0.3805 -2.9093
  172SOPE   H5S19453   4.564   4.544   7.364 -0.7391  0.1238 -0.1049
  172SOPE   C2619454   4.622   4.720   7.469 -0.5537  0.0980  0.8754
  172SOPE   H6R19455   4.635   4.828   7.447 -0.2251 -0.3024 -0.9870
  172SOPE   H6S19456   4.553   4.717   7.557 -0.6317  0.9388  0.8391
  172SOPE   C2719457   4.755   4.665   7.520  0.0774 -0.2856  0.4413
  172SOPE   H7R19458   4.771   4.561   7.485 -4.1244 -0.5915 -0.8626
  172SOPE   H7S19459   4.838   4.733   7.494  0.3509 -0.8979 -0.3161
  172SOPE   C2819460   4.751   4.639   7.670  1.0458 -0.0676  0.4653
  172SOPE   H8R19461   4.651   4.602   7.701  1.0502  0.4635  1.1150
  172SOPE   H8S19462   4.828   4.569   7.707 -1.2482 -1.6866  2.3331
  172SOPE   C2919463   4.772   4.773   7.732  0.2126 -0.1229  0.1897
  172SOPE   H9119464   4.803   4.854   7.665 -3.8366  0.3645 -1.2354
  172SOPE  C21019465   4.754   4.804   7.861 -0.5985 -0.1735  0.6630
  172SOPE  H10119466   4.761   4.911   7.884  3.6965  0.1795 -1.7793
  172SOPE  C21119467   4.712   4.705   7.964  0.5587 -0.3849  0.3170
  172SOPE  H11R19468   4.679   4.609   7.918 -0.1325  0.4843 -1.0344
  172SOPE  H11S19469   4.626   4.754   8.014  1.4613  1.2061  0.3270
  172SOPE  C21219470   4.828   4.679   8.063 -0.3021 -0.3564 -0.0031
  172SOPE  H12R19471   4.836   4.772   8.122 -1.4431 -0.3154  0.0926
  172SOPE  H12S19472   4.931   4.670   8.022 -0.1052  0.0283  0.4048
  172SOPE  C21319473   4.797   4.560   8.166 -0.6650 -0.4642 -0.2971
  172SOPE  H13R19474   4.832   4.464   8.122  1.8623  0.3846 -0.1817
  172SOPE  H13S19475   4.689   4.547   8.189 -0.8127  1.1195 -0.0993
  172SOPE  C21419476   4.864   4.570   8.310 -0.3042 -0.6546  0.3681
  172SOPE  H14R19477   4.975   4.577   8.310 -0.4188  1.6186 -0.2544
  172SOPE  H14S19478   4.838   4.475   8.360 -1.0903  0.4714  2.1386
  172SOPE  C21519479   4.800   4.694   8.379 -0.1498  0.4472 -0.4060
  172SOPE  H15R19480   4.694   4.667   8.401  0.2322 -0.2759  0.6301
  172SOPE  H15S19481   4.800   4.790   8.324 -0.7348  1.0774  0.6664
  172SOPE  C21619482   4.873   4.733   8.509  0.5622  0.0775  0.0795
  172SOPE  H16R19483   4.983   4.723   8.494  0.2150 -0.6696 -2.2322
  172SOPE  H16S19484   4.869   4.655   8.587 -2.7030  1.8920  1.8448
  172SOPE  C21719485   4.833   4.873   8.564  0.0221  1.0701 -0.1767
  172SOPE  H17R19486   4.722   4.878   8.575  0.0667  0.2454  0.6953
  172SOPE  H17S19487   4.880   4.949   8.497 -3.2152  2.9934 -0.3825
  172SOPE  C21819488   4.871   4.909   8.714 -0.4148  0.4235 -0.4948
  172SOPE  H18R19489   4.849   5.013   8.744  1.3662  0.8032 -0.4263
  172SOPE  H18S19490   4.982   4.898   8.719 -0.4125  0.8177  0.3033
  172SOPE  H18T19491   4.831   4.840   8.791 -0.2159  1.0211  0.1366
  172SOPE   C3319492   5.057   5.048   7.317 -0.7122  0.3864 -0.3005
  172SOPE   H3X19493   5.068   5.158   7.313 -1.8053  0.4394 -2.7226
  172SOPE   H3Y19494   5.134   5.005   7.249 -1.6424 -0.2502 -0.9650
  172SOPE   C3419495   5.098   5.022   7.464 -0.7092 -0.4203  1.0866
  172SOPE   H4X19496   5.198   5.070   7.469 -1.1700  0.6097  0.6054
  172SOPE   H4Y19497   5.125   4.916   7.481  0.0789 -0.5106 -0.6125
  172SOPE   C3519498   5.003   5.087   7.563  0.4551 -0.5141  0.4331
  172SOPE   H5X19499   4.911   5.026   7.553 -0.3036  0.8683 -1.2121
  172SOPE   H5Y19500   4.981   5.195   7.550  1.6253 -0.1562  1.3708
  172SOPE   C3619501   5.040   5.062   7.717 -0.0887 -0.1907  0.3745
  172SOPE   H6X19502   5.142   5.100   7.736  0.0552  0.3994 -1.4765
  172SOPE   H6Y19503   5.037   4.954   7.743 -0.5934 -0.5939 -1.2950
  172SOPE   C3719504   4.949   5.129   7.811 -0.3720  0.0060  0.2711
  172SOPE   H7X19505   4.844   5.097   7.793 -0.9992  0.8474  2.2221
  172SOPE   H7Y19506   4.972   5.235   7.787  1.9218 -0.7043 -0.8189
  172SOPE   C3819507   4.974   5.093   7.960  0.2620 -0.5740  0.2990
  172SOPE   H8X19508   5.073   5.045   7.950  0.7628  0.5258 -0.0714
  172SOPE   H8Y19509   4.908   5.009   7.991  1.5358 -0.7040  2.7241
  172SOPE   C3919510   4.973   5.210   8.055  0.0118 -0.5140  0.3196
  172SOPE   H9X19511   5.055   5.278   8.025 -1.7157 -0.2153 -4.0658
  172SOPE   H9Y19512   4.987   5.188   8.163  0.1768 -0.2753  0.3447
  172SOPE  C31019513   4.841   5.286   8.039  0.0285  0.8259 -0.8556
  172SOPE  H10X19514   4.760   5.218   8.074 -0.6603  1.3796 -1.3341
  172SOPE  H10Y19515   4.810   5.304   7.934 -1.1528 -1.4829 -0.9305
  172SOPE  C31119516   4.836   5.409   8.130 -0.5110  0.2190  0.2197
  172SOPE  H11X19517   4.877   5.495   8.073 -0.2783  1.1275  1.7228
  172SOPE  H11Y19518   4.908   5.392   8.213  3.8533 -1.0255 -3.5721
  172SOPE  C31219519   4.698   5.435   8.190 -0.5414 -0.0445  0.4048
  172SOPE  H12X19520   4.659   5.338   8.228 -0.1738 -0.3707 -0.0357
  172SOPE  H12Y19521   4.638   5.484   8.110 -1.4559 -0.1097  1.0378
  172SOPE  C31319522   4.694   5.525   8.318 -0.2347 -0.2423  0.5632
  172SOPE  H13X19523   4.765   5.607   8.294  1.2247 -2.0760 -1.5528
  172SOPE  H13Y19524   4.730   5.463   8.404  0.8741  1.1512  1.1215
  172SOPE  C31419525   4.558   5.593   8.358 -1.0393  0.0625  0.1559
  172SOPE  H14X19526   4.486   5.519   8.399 -2.7534  0.9854 -1.1152
  172SOPE  H14Y19527   4.514   5.651   8.273  0.0576  0.5989 -0.0638
  172SOPE  C31519528   4.588   5.688   8.469 -0.5813 -0.1500 -0.6280
  172SOPE  H15X19529   4.646   5.775   8.433  1.5940 -1.1571  0.3882
  172SOPE  H15Y19530   4.648   5.625   8.538 -1.1076  0.1478  0.1166
  172SOPE  C31619531   4.451   5.737   8.529  0.7336 -0.6947  0.2000
  172SOPE  H16X19532   4.384   5.648   8.537  1.8238 -1.3741  2.0708
  172SOPE  H16Y19533   4.393   5.813   8.472  0.6458  0.0455  1.2572
  172SOPE  C31719534   4.459   5.807   8.666  0.0646 -0.0853 -0.2850
  172SOPE  H17X19535   4.482   5.915   8.655  2.8082 -0.6033  0.1344
  172SOPE  H17Y19536   4.541   5.751   8.716  1.5398 -0.6205 -3.1972
  172SOPE  C31819537   4.324   5.790   8.744 -0.7197  0.3941  0.6554
  172SOPE  H18X19538   4.346   5.796   8.853  1.5686  0.1242  0.2287
  172SOPE  H18Y19539   4.282   5.688   8.728 -0.0778  0.0558  1.0914
  172SOPE  H18Z19540   4.248   5.863   8.710 -1.7641  0.0451  2.1738
  173SAPI   C1219541   0.351   1.180  10.855  1.0244  0.5654 -0.3135
  173SAPI    H219542   0.286   1.117  10.920 -2.7763  2.0648 -2.4985
  173SAPI    O219543   0.413   1.263  10.944  0.4061 -0.4261 -0.2666
  173SAPI   HO219544   0.354   1.286  11.017  0.3074  1.7626 -0.9969
  173SAPI   C1319545   0.460   1.105  10.781  0.0934  1.4693  0.2411
  173SAPI    H319546   0.404   1.030  10.721  1.2856  0.5582  0.2527
  173SAPI    O319547   0.527   1.016  10.873  0.0255  0.4913 -0.5934
  173SAPI   HO319548   0.617   1.045  10.884 -0.2657  0.9873  0.6321
  173SAPI   C1419549   0.553   1.188  10.702  0.2351  0.5150 -0.1248
  173SAPI    H419550   0.604   1.265  10.765  0.9177 -1.5947  1.9717
  173SAPI    O419551   0.660   1.114  10.644 -0.1511 -0.4724 -0.1316
  173SAPI   HO419552   0.741   1.138  10.690 -1.2311  5.7211 -0.9903
  173SAPI   C1519553   0.475   1.268  10.606  0.8822 -0.6126 -0.2417
  173SAPI    H519554   0.420   1.201  10.537  0.5807  1.0355 -1.6474
  173SAPI    O519555   0.552   1.350  10.519 -0.2905  0.0997  0.0403
  173SAPI   HO519556   0.505   1.432  10.501  1.0499  0.8023 -0.3600
  173SAPI   C1619557   0.360   1.354  10.674 -0.0895  0.0254 -0.0660
  173SAPI    H619558   0.412   1.429  10.738  0.2492 -0.0083 -0.2963
  173SAPI    O619559   0.290   1.423  10.572  0.6458 -0.2553 -0.4342
  173SAPI   HO619560   0.266   1.514  10.589  0.6100 -0.5048  0.9646
  173SAPI   C1119561   0.271   1.262  10.752 -0.0763  0.5396  0.2740
  173SAPI    H119562   0.231   1.192  10.675 -0.7975  0.1571  0.9878
  173SAPI     P19563   0.027   1.270  10.867  0.1156  0.1046 -0.2037
  173SAPI   O1319564   0.001   1.316  11.001 -0.0300 -0.2596 -0.3941
  173SAPI   O1419565   0.034   1.121  10.852  0.2054 -0.8504 -0.6257
  173SAPI   O1219566   0.171   1.342  10.817 -0.7998  0.9196 -0.0795
  173SAPI   O1119567  -0.066   1.345  10.762  0.5774 -0.3843  0.0948
  173SAPI    C119568  -0.175   1.268  10.704 -0.4604 -0.2916 -0.6934
  173SAPI    HA19569  -0.222   1.203  10.781 -0.4668  1.7405  1.0616
  173SAPI    HB19570  -0.254   1.336  10.664 -1.0305  1.0561  2.5287
  173SAPI    C219571  -0.126   1.186  10.588 -0.3562  0.1266 -0.2523
  173SAPI    HS19572  -0.033   1.137  10.625 -1.4119 -2.2684 -0.6892
  173SAPI   O2119573  -0.087   1.282  10.489 -0.0939 -0.6841 -0.2763
  173SAPI   C2119574   0.010   1.248  10.415  0.3506 -0.7761  0.3315
  173SAPI   O2219575   0.085   1.151  10.420 -0.4787  0.3644  0.5896
  173SAPI   C2219576   0.026   1.356  10.304  0.4096  0.5513 -0.1713
  173SAPI   H2R19577  -0.032   1.447  10.331  1.7532  1.2448  0.4458
  173SAPI   H2S19578   0.132   1.390  10.299  0.0267  1.5641 -1.5492
  173SAPI    C319579  -0.245   1.097  10.533 -0.2367  0.0163 -0.0136
  173SAPI    HX19580  -0.320   1.173  10.505  2.6532  3.4709  1.1916
  173SAPI    HY19581  -0.287   1.050  10.625  0.8083  0.8160  0.8875
  173SAPI   O3119582  -0.223   1.013  10.414 -0.2519  0.8954  0.1123
  173SAPI   C3119583  -0.155   0.903  10.446 -0.1180  0.9961 -0.4333
  173SAPI   O3219584  -0.112   0.878  10.555 -0.2089 -0.1947  0.3591
  173SAPI   C3219585  -0.132   0.816  10.320  0.5959  0.5909  0.4057
  173SAPI   H2X19586  -0.223   0.756  10.293  0.9465  0.2940 -0.1244
  173SAPI   H2Y19587  -0.044   0.751  10.341 -1.3863 -1.6214  2.2693
  173SAPI   C2319588   0.008   1.301  10.163  0.5207 -0.3982  0.5385
  173SAPI   H3R19589  -0.097   1.265  10.168  1.0851 -2.4056 -1.1794
  173SAPI   H3S19590   0.082   1.220  10.145  0.4949 -0.3458  0.1958
  173SAPI   C2419591   0.014   1.409  10.050 -0.5373 -0.0175  0.7749
  173SAPI   H4R19592   0.117   1.448  10.036 -0.2726 -0.2531  2.0605
  173SAPI   H4S19593  -0.039   1.492  10.100  3.3790  2.2889  1.2638
  173SAPI   C2519594  -0.050   1.363   9.920  0.0289 -0.2261 -0.8462
  173SAPI   H5R19595  -0.137   1.299   9.940  0.9837 -0.7261  2.0205
  173SAPI   C2619596   0.003   1.379   9.799 -0.2989  0.9035 -0.1604
  173SAPI   H6R19597  -0.060   1.356   9.711 -0.0417  3.1799 -0.9705
  173SAPI   C2719598   0.127   1.454   9.768  0.1395  0.6082 -0.0757
  173SAPI   H7R19599   0.189   1.474   9.859  0.7208 -2.1184  0.1970
  173SAPI   H7S19600   0.108   1.546   9.710  1.3487  2.0525  1.7623
  173SAPI   C2819601   0.218   1.373   9.678 -0.2701  0.7217 -0.3146
  173SAPI   H8R19602   0.293   1.306   9.722  0.9957  0.8873 -2.1309
  173SAPI   C2919603   0.207   1.371   9.541 -0.7544  0.0169 -0.6000
  173SAPI   H9R19604   0.278   1.304   9.490 -1.0455 -0.1179 -0.8290
  173SAPI  C21019605   0.112   1.450   9.458  0.0015 -0.0328 -0.1666
  173SAPI  H10R19606   0.163   1.514   9.384 -1.5813  0.5112 -0.8030
  173SAPI  H10S19607   0.051   1.527   9.511  1.5211  1.1479 -0.1021
  173SAPI  C21119608   0.011   1.358   9.388 -0.5562 -0.7318  0.2239
  173SAPI  H11R19609  -0.024   1.270   9.444  0.8582 -0.0036  2.3383
  173SAPI  C21219610  -0.030   1.374   9.260 -0.3801 -0.9293 -0.3516
  173SAPI  H12R19611  -0.081   1.291   9.209  0.5170 -0.9233 -1.2696
  173SAPI  C21319612   0.014   1.489   9.172  0.4425 -0.2924  0.0470
  173SAPI  H13R19613   0.109   1.469   9.119  0.0673 -2.4952  0.1343
  173SAPI  H13S19614   0.017   1.582   9.233 -1.6663  0.6163 -1.1573
  173SAPI  C21419615  -0.091   1.524   9.067 -0.4350  0.3135  0.8151
  173SAPI  H14R19616  -0.191   1.525   9.113 -0.9267  3.3241 -0.1951
  173SAPI  C21519617  -0.083   1.551   8.936  0.3694  0.3070  0.5651
  173SAPI  H15R19618  -0.178   1.575   8.886  0.7889 -0.0522 -0.4076
  173SAPI  C21619619   0.040   1.559   8.847 -0.0945 -0.1655 -0.5705
  173SAPI  H16R19620   0.136   1.555   8.903  0.4450  1.5292 -1.3443
  173SAPI  H16S19621   0.032   1.658   8.798 -2.8426  0.8437  1.7422
  173SAPI  C21719622   0.072   1.438   8.745  0.4426 -0.3096 -0.0125
  173SAPI  H17R19623   0.047   1.338   8.786  0.4514  0.1425  1.0991
  173SAPI  H17S19624   0.179   1.452   8.718  0.1387 -1.1020 -1.7131
  173SAPI  C21819625  -0.002   1.466   8.614  0.6966  0.2816  0.1184
  173SAPI  H18R19626  -0.009   1.576   8.604  0.7455  0.3243  0.5323
  173SAPI  H18S19627  -0.111   1.451   8.627  0.0111  3.4259 -1.5416
  173SAPI  C21919628   0.062   1.398   8.488 -0.8931 -0.4399  0.1881
  173SAPI  H19R19629   0.158   1.353   8.521  1.1893  3.2442 -0.5175
  173SAPI  H19S19630   0.092   1.478   8.417  0.5869 -0.5838  0.6271
  173SAPI  C22019631  -0.019   1.294   8.410  0.1028  0.5047 -0.3758
  173SAPI  H20R19632   0.037   1.259   8.321 -0.7662  0.1441 -0.7896
  173SAPI  H20S19633  -0.125   1.315   8.384 -0.8875  0.1937  3.1203
  173SAPI  H20T19634  -0.019   1.206   8.477  0.6006 -0.3647 -1.5014
  173SAPI   C3319635  -0.092   0.913  10.204  0.4986 -0.2079  0.5722
  173SAPI   H3X19636  -0.004   0.973  10.236  1.3971 -0.7054 -0.8834
  173SAPI   H3Y19637  -0.170   0.991  10.192 -1.0386 -1.7754  0.2585
  173SAPI   C3419638  -0.078   0.845  10.061  0.2673  0.0006 -0.1362
  173SAPI   H4X19639  -0.179   0.800  10.047  0.0916 -0.1244  1.5074
  173SAPI   H4Y19640  -0.008   0.759  10.067 -1.0028 -1.2233 -2.0964
  173SAPI   C3519641  -0.053   0.945   9.940 -0.2232 -0.1174 -0.5164
  173SAPI   H5X19642   0.050   0.976   9.965 -0.4056 -0.1273  0.2740
  173SAPI   H5Y19643  -0.117   1.035   9.957  0.4871  0.7808 -2.5268
  173SAPI   C3619644  -0.062   0.882   9.799  0.3352 -0.3607 -0.5805
  173SAPI   H6X19645  -0.161   0.837   9.774  0.6717 -0.2301 -2.1977
  173SAPI   H6Y19646   0.008   0.796   9.796  0.9521  0.0866  0.6323
  173SAPI   C3719647  -0.035   0.980   9.685 -0.1830  0.4311  0.4839
  173SAPI   H7X19648   0.052   1.045   9.709  2.5088 -3.4265  1.7437
  173SAPI   H7Y19649  -0.127   1.039   9.667 -1.0172 -1.1176 -0.3921
  173SAPI   C3819650  -0.007   0.902   9.553  0.6711  0.5383  0.0758
  173SAPI   H8X19651  -0.089   0.829   9.539  1.2479 -1.0291  4.1050
  173SAPI   H8Y19652   0.089   0.846   9.558  0.1721 -0.4959 -1.5459
  173SAPI   C3919653  -0.006   0.991   9.431 -0.0251  0.5896 -0.0562
  173SAPI   H9X19654   0.065   1.076   9.441 -1.4354  1.9557 -1.3715
  173SAPI   H9Y19655  -0.107   1.037   9.431 -0.3745 -0.1695  0.8530
  173SAPI  C31019656   0.023   0.915   9.303 -0.7876 -0.6826  0.2325
  173SAPI  H10X19657   0.083   0.825   9.328 -0.7834 -0.8872 -0.4967
  173SAPI  H10Y19658   0.085   0.960   9.222 -0.0338 -0.3166  1.0139
  173SAPI  C31119659  -0.108   0.876   9.223  0.3304 -0.4311 -0.0904
  173SAPI  H11X19660  -0.173   0.826   9.299 -1.2553  0.9345 -0.5300
  173SAPI  H11Y19661  -0.079   0.795   9.154  1.0967  2.5763 -3.4013
  173SAPI  C31219662  -0.163   1.001   9.140 -0.0113 -0.1132  0.3325
  173SAPI  H12X19663  -0.080   1.029   9.072  0.2517 -0.9918  0.2878
  173SAPI  H12Y19664  -0.194   1.082   9.210  0.1993  0.7899 -0.6261
  173SAPI  C31319665  -0.275   0.952   9.050 -0.2998  0.5018  0.6148
  173SAPI  H13X19666  -0.350   0.897   9.110 -0.6155 -0.6633 -0.8166
  173SAPI  H13Y19667  -0.238   0.889   8.966  0.1888  0.0648  1.1494
  173SAPI  C31419668  -0.339   1.069   8.977  0.1388 -0.0256  0.3391
  173SAPI  H14X19669  -0.369   1.144   9.053  2.2015  0.0087  1.1699
  173SAPI  H14Y19670  -0.428   1.035   8.921 -0.0482  1.9280 -0.5911
  173SAPI  C31519671  -0.240   1.132   8.880  0.4368 -0.3056  0.2697
  173SAPI  H15X19672  -0.166   1.053   8.857 -0.0166 -0.8153  0.5335
  173SAPI  H15Y19673  -0.172   1.209   8.921 -0.7024 -0.0077  1.6517
  173SAPI  C31619674  -0.299   1.175   8.741 -0.3672  0.1688 -0.3868
  173SAPI  H16X19675  -0.366   1.106   8.686 -1.4212 -0.0559  1.1503
  173SAPI  H16Y19676  -0.207   1.186   8.680 -0.8303  0.1075 -1.0975
  173SAPI  C31719677  -0.358   1.315   8.751 -0.0247  0.9122 -0.1004
  173SAPI  H17X19678  -0.296   1.390   8.804  1.4708  0.0400 -0.5710
  173SAPI  H17Y19679  -0.452   1.305   8.808  0.0319 -4.6088 -0.7124
  173SAPI  C31819680  -0.392   1.376   8.613  0.2314  0.1256  1.0706
  173SAPI  H18X19681  -0.484   1.335   8.567  0.6218  1.1050 -0.6061
  173SAPI  H18Y19682  -0.313   1.344   8.542 -0.4700 -1.8641  1.1716
  173SAPI  H18Z19683  -0.417   1.484   8.611  1.5556  0.4213 -1.1332
  174SAPI   C1219684   3.778   2.488  11.045  0.6307  0.4079 -0.3303
  174SAPI    H219685   3.728   2.443  11.133  1.0751 -0.7572 -0.6538
  174SAPI    O219686   3.740   2.627  11.033 -0.1260  0.5722  0.1577
  174SAPI   HO219687   3.662   2.623  10.977 -1.4141  1.0234  1.8870
  174SAPI   C1319688   3.929   2.473  11.076 -0.1085 -0.3487  0.2589
  174SAPI    H319689   3.957   2.365  11.081 -2.7611 -1.0670  0.5520
  174SAPI    O319690   3.973   2.536  11.199  0.3149  0.0737 -0.8430
  174SAPI   HO319691   4.006   2.624  11.177  1.7507 -0.8378 -2.4998
  174SAPI   C1419692   4.002   2.538  10.957  0.0362  0.4756  0.1493
  174SAPI    H419693   3.962   2.642  10.955  1.4635  1.0173 -1.2192
  174SAPI    O419694   4.146   2.527  10.966  0.0475  0.5061  0.4814
  174SAPI   HO419695   4.177   2.615  10.944 -3.3277  1.7650  0.5590
  174SAPI   C1519696   3.962   2.466  10.830 -0.3913 -0.1509  0.7584
  174SAPI    H519697   4.009   2.366  10.840 -0.0225  0.1118  1.7218
  174SAPI    O519698   4.020   2.529  10.714  0.3634 -0.5965  0.0077
  174SAPI   HO519699   3.962   2.602  10.692 -2.1447 -1.1034  4.2136
  174SAPI   C1619700   3.812   2.455  10.798 -0.1624  0.5743  0.3048
  174SAPI    H619701   3.785   2.559  10.770  2.3107  1.3864  0.7645
  174SAPI    O619702   3.786   2.370  10.689 -0.2657  0.2570  0.0477
  174SAPI   HO619703   3.735   2.405  10.616 -0.3645 -2.2114 -1.1202
  174SAPI   C1119704   3.732   2.416  10.923  0.1133  0.0704  0.4724
  174SAPI    H119705   3.758   2.311  10.946 -0.1856 -0.7939 -2.8142
  174SAPI     P19706   3.479   2.314  10.926  0.0612 -0.0788 -0.0588
  174SAPI   O1319707   3.343   2.377  10.948 -0.3938  0.1435  0.2962
  174SAPI   O1419708   3.523   2.234  11.042 -0.2561 -0.2259  0.4235
  174SAPI   O1219709   3.591   2.430  10.894 -0.0480  0.1808 -0.1548
  174SAPI   O1119710   3.477   2.221  10.800 -0.0623 -0.0668  0.5773
  174SAPI    C119711   3.389   2.247  10.695  0.2575 -0.2391  0.2369
  174SAPI    HA19712   3.288   2.207  10.716  0.6774 -1.8645 -0.7685
  174SAPI    HB19713   3.395   2.351  10.655 -0.2477 -0.0223  0.7269
  174SAPI    C219714   3.422   2.164  10.564  0.4298 -0.8680 -0.0716
  174SAPI    HS19715   3.425   2.059  10.602 -0.2873 -0.9873 -0.3419
  174SAPI   O2119716   3.551   2.204  10.508  0.7170 -0.5312  0.2150
  174SAPI   C2119717   3.606   2.114  10.423 -0.1979 -0.5068 -0.1921
  174SAPI   O2219718   3.556   2.007  10.389  0.0047  0.0182 -0.5522
  174SAPI   C2219719   3.737   2.178  10.371 -0.3597 -0.1401  0.2441
  174SAPI   H2R19720   3.705   2.271  10.319 -1.2894 -1.2801 -1.2881
  174SAPI   H2S19721   3.814   2.204  10.447  1.0249  0.2461 -1.2540
  174SAPI    C319722   3.307   2.168  10.459 -0.4538  0.0566  0.3754
  174SAPI    HX19723   3.224   2.128  10.520 -0.8710  0.4542  0.0721
  174SAPI    HY19724   3.326   2.095  10.378 -2.7571 -0.4568  0.2733
  174SAPI   O3119725   3.274   2.303  10.417  0.0838 -0.2132 -0.3395
  174SAPI   C3119726   3.313   2.337  10.293 -0.6559  0.1798  0.6707
  174SAPI   O3219727   3.375   2.265  10.220  0.1222  0.1516  0.3979
  174SAPI   C3219728   3.288   2.490  10.270 -0.1837  0.3485 -0.6917
  174SAPI   H2X19729   3.346   2.528  10.356 -0.5059  1.0269 -0.7723
  174SAPI   H2Y19730   3.180   2.503  10.291 -0.1735  0.9031 -0.9746
  174SAPI   C2319731   3.809   2.079  10.271 -0.3440  0.0809  0.1326
  174SAPI   H3R19732   3.733   2.013  10.223 -0.9401  1.0355 -0.2450
  174SAPI   H3S19733   3.872   2.007  10.327  0.0207 -0.3508 -0.8238
  174SAPI   C2419734   3.896   2.149  10.167 -0.2060 -0.5400 -0.8981
  174SAPI   H4R19735   3.975   2.211  10.215 -0.1162  0.7288 -2.6250
  174SAPI   H4S19736   3.828   2.220  10.115  0.2720  0.0056 -0.7894
  174SAPI   C2519737   3.967   2.057  10.075  0.7983 -0.6986 -0.5376
  174SAPI   H5R19738   4.018   1.971  10.123  4.5213  2.6968  1.9501
  174SAPI   C2619739   4.004   2.074   9.943 -0.0293 -0.2065  0.2847
  174SAPI   H6R19740   4.053   1.988   9.894 -2.2670 -0.9545 -0.6887
  174SAPI   C2719741   3.968   2.194   9.855 -0.2478 -0.1190 -0.0402
  174SAPI   H7R19742   3.944   2.279   9.922 -0.7976 -0.4172  0.1480
  174SAPI   H7S19743   3.881   2.172   9.788 -1.8847 -0.1184  2.0182
  174SAPI   C2819744   4.093   2.242   9.778  1.1312  0.3859  0.0277
  174SAPI   H8R19745   4.177   2.275   9.841  0.4805  1.1607  0.4985
  174SAPI   C2919746   4.127   2.226   9.646  0.5090 -0.9378 -0.1513
  174SAPI   H9R19747   4.230   2.247   9.614  0.1428  0.8763 -0.1982
  174SAPI  C21019748   4.034   2.159   9.545 -0.0413 -0.2757  0.0005
  174SAPI  H10R19749   4.058   2.197   9.443 -1.4763  2.3577  0.6002
  174SAPI  H10S19750   3.928   2.187   9.558 -0.6676 -2.7795  0.6264
  174SAPI  C21119751   4.046   2.011   9.543 -0.5823  0.2441  0.1295
  174SAPI  H11R19752   4.054   1.970   9.645  1.5081 -0.3420 -0.2293
  174SAPI  C21219753   4.049   1.924   9.437 -0.2745 -0.0625  0.9798
  174SAPI  H12R19754   4.058   1.817   9.460 -3.7418 -0.4828  0.6258
  174SAPI  C21319755   4.045   1.975   9.298  0.5531  0.5902 -0.4245
  174SAPI  H13R19756   4.105   2.068   9.297  3.1594 -1.0480 -0.7605
  174SAPI  H13S19757   3.939   1.995   9.271 -0.4754 -2.9159  0.6884
  174SAPI  C21419758   4.116   1.882   9.207  1.2227  0.7580  0.2994
  174SAPI  H14R19759   4.213   1.855   9.251 -0.8354 -2.8116  2.9241
  174SAPI  C21519760   4.074   1.830   9.091 -0.3094 -0.2021 -0.6356
  174SAPI  H15R19761   4.143   1.766   9.033  0.1375  1.0374 -1.4875
  174SAPI  C21619762   3.947   1.874   9.024 -0.3929 -0.0692 -0.0728
  174SAPI  H16R19763   3.970   1.930   8.931 -0.9960  1.2911  0.5933
  174SAPI  H16S19764   3.879   1.935   9.087  1.3419  0.7754  1.0391
  174SAPI  C21719765   3.866   1.749   8.975  0.5256 -0.4960  0.4281
  174SAPI  H17R19766   3.851   1.668   9.050  2.0083 -0.3791  0.8610
  174SAPI  H17S19767   3.915   1.710   8.883 -2.5744 -3.0137 -0.2541
  174SAPI  C21819768   3.734   1.787   8.921  0.4171  0.3573 -0.2178
  174SAPI  H18R19769   3.699   1.852   9.004  0.1490  0.3802 -0.3476
  174SAPI  H18S19770   3.657   1.708   8.917 -0.4699  1.0941  1.9557
  174SAPI  C21919771   3.751   1.870   8.792 -0.0301 -0.9011 -0.1160
  174SAPI  H19R19772   3.817   1.827   8.714  0.4076 -1.7614  0.7231
  174SAPI  H19S19773   3.817   1.955   8.821 -1.0220 -0.1392 -0.0503
  174SAPI  C22019774   3.607   1.908   8.740 -0.3359 -0.2216  0.1071
  174SAPI  H20R19775   3.615   1.966   8.645  0.8715  0.3876  0.5655
  174SAPI  H20S19776   3.548   1.962   8.816 -1.3956 -2.0704  0.6315
  174SAPI  H20T19777   3.552   1.814   8.716 -0.0762 -0.5409  0.7395
  174SAPI   C3319778   3.326   2.549  10.128 -0.0876 -0.1162  0.6436
  174SAPI   H3X19779   3.431   2.520  10.104  0.5640  1.3203  1.6717
  174SAPI   H3Y19780   3.311   2.659  10.137  0.7503  0.1713 -1.1231
  174SAPI   C3419781   3.230   2.497  10.020 -0.2493  0.2027  0.9603
  174SAPI   H4X19782   3.127   2.493  10.062  0.7467 -0.1764  3.4643
  174SAPI   H4Y19783   3.250   2.391   9.992 -1.2993  0.0667  0.7133
  174SAPI   C3519784   3.232   2.580   9.889 -0.0161 -0.6655 -0.4737
  174SAPI   H5X19785   3.330   2.633   9.889  0.2635 -1.1734 -1.1071
  174SAPI   H5Y19786   3.151   2.656   9.898  1.7946  1.3258 -0.6518
  174SAPI   C3619787   3.227   2.504   9.762 -0.1796 -0.0868  0.7994
  174SAPI   H6X19788   3.129   2.452   9.754 -2.0840  3.1611  2.1566
  174SAPI   H6Y19789   3.302   2.422   9.775 -0.9499 -0.4626  3.2096
  174SAPI   C3719790   3.236   2.591   9.633 -0.1709 -0.1787 -0.3924
  174SAPI   H7X19791   3.325   2.651   9.661 -0.5209 -0.6183  1.7427
  174SAPI   H7Y19792   3.152   2.661   9.615 -0.0180 -0.4664 -2.3179
  174SAPI   C3819793   3.279   2.514   9.510 -1.5971  0.2396  0.3663
  174SAPI   H8X19794   3.185   2.477   9.463 -0.6876 -1.2042 -0.3617
  174SAPI   H8Y19795   3.345   2.431   9.541 -2.0284  0.3547  1.6387
  174SAPI   C3919796   3.364   2.592   9.407 -0.0827  0.1533  0.1726
  174SAPI   H9X19797   3.446   2.648   9.458 -0.9739  2.3046 -0.7119
  174SAPI   H9Y19798   3.306   2.663   9.345  0.5844  2.1074  1.7394
  174SAPI  C31019799   3.434   2.497   9.305  0.1526 -0.7337 -0.1485
  174SAPI  H10X19800   3.469   2.407   9.360  1.1298 -0.3506 -0.1403
  174SAPI  H10Y19801   3.523   2.541   9.256  0.1523 -0.3620  0.1824
  174SAPI  C31119802   3.345   2.444   9.197  0.2911  0.4442  0.6065
  174SAPI  H11X19803   3.314   2.525   9.127  0.7455 -1.2429 -1.5968
  174SAPI  H11Y19804   3.252   2.413   9.249  1.0541 -1.0564  1.0955
  174SAPI  C31219805   3.385   2.324   9.106 -0.8244  0.2539  0.0309
  174SAPI  H12X19806   3.427   2.244   9.171  0.4502  1.4793  0.7393
  174SAPI  H12Y19807   3.464   2.347   9.031 -0.8893 -0.2891 -0.2107
  174SAPI  C31319808   3.274   2.258   9.028  0.3640 -0.0477  0.0122
  174SAPI  H13X19809   3.205   2.336   8.989 -0.9288 -1.2913 -0.2260
  174SAPI  H13Y19810   3.216   2.196   9.099 -1.6780  0.6928 -0.9652
  174SAPI  C31419811   3.319   2.168   8.916  0.4608  0.5172 -0.6190
  174SAPI  H14X19812   3.425   2.134   8.923  0.3299 -0.1919 -1.8883
  174SAPI  H14Y19813   3.314   2.226   8.821  1.0049  1.2549 -0.2078
  174SAPI  C31519814   3.226   2.042   8.897 -0.1680  0.2646  0.0656
  174SAPI  H15X19815   3.231   1.981   8.990 -2.7308  1.2715  0.9149
  174SAPI  H15Y19816   3.266   1.987   8.809 -0.3275 -1.4968  1.0732
  174SAPI  C31619817   3.078   2.081   8.886  0.1898  0.9072 -0.1325
  174SAPI  H16X19818   3.069   2.147   8.797 -0.3212 -1.7194 -2.1029
  174SAPI  H16Y19819   3.032   2.124   8.978 -1.9215 -1.6649  0.0565
  174SAPI  C31719820   2.988   1.961   8.861 -0.2170  0.4249  0.2135
  174SAPI  H17X19821   2.891   1.970   8.914 -0.3503  1.1295 -0.1477
  174SAPI  H17Y19822   3.031   1.864   8.895 -0.9371  0.1643  0.3786
  174SAPI  C31819823   2.956   1.954   8.709  0.3715 -0.6856 -0.2724
  174SAPI  H18X19824   3.041   1.950   8.639 -1.1738  0.2473 -2.2406
  174SAPI  H18Y19825   2.905   2.047   8.675 -0.2017 -0.4641  1.1476
  174SAPI  H18Z19826   2.885   1.869   8.696 -0.2707 -0.2967  0.5949
  175SAPI   C1219827   5.335   1.198   6.334  0.3066 -0.4082 -0.6362
  175SAPI    H219828   5.299   1.303   6.346  0.0559 -0.3613 -1.7275
  175SAPI    O219829   5.342   1.171   6.190  0.3244 -0.4264 -0.5943
  175SAPI   HO219830   5.256   1.194   6.152  0.5651  1.0430 -0.3086
  175SAPI   C1319831   5.467   1.178   6.406 -0.1281 -0.6695 -0.5109
  175SAPI    H319832   5.449   1.208   6.512 -2.0646 -1.1104 -0.6843
  175SAPI    O319833   5.570   1.260   6.347 -0.4214 -0.0533  0.5274
  175SAPI   HO319834   5.567   1.236   6.254 -1.7240 -1.4747  0.9238
  175SAPI   C1419835   5.512   1.034   6.401 -0.2004  0.4405  0.4121
  175SAPI    H419836   5.537   1.015   6.295  2.4802 -1.2229  1.3046
  175SAPI    O419837   5.633   1.011   6.472 -0.5790  0.2872  0.0856
  175SAPI   HO419838   5.691   0.971   6.407  1.2904 -0.4334  2.1165
  175SAPI   C1519839   5.403   0.941   6.452  0.5007 -0.5557 -0.5355
  175SAPI    H519840   5.388   0.980   6.555 -1.6119 -1.1915 -0.5645
  175SAPI    O519841   5.445   0.800   6.468 -0.1058 -0.5893 -0.8431
  175SAPI   HO519842   5.462   0.784   6.561 -1.3781  1.7387 -0.1949
  175SAPI   C1619843   5.265   0.963   6.393  0.1422  0.3218 -0.2191
  175SAPI    H619844   5.277   0.931   6.287  1.0110  0.5910 -0.2052
  175SAPI    O619845   5.171   0.876   6.453  0.0739 -0.2300  0.3045
  175SAPI   HO619846   5.203   0.786   6.450 -0.9487 -0.5832 -0.2461
  175SAPI   C1119847   5.226   1.105   6.399  0.1775 -0.2928  0.6461
  175SAPI    H119848   5.216   1.134   6.506  1.6399  0.0193  0.7125
  175SAPI     P19849   4.999   1.267   6.391  0.2016 -0.0122  0.3287
  175SAPI   O1319850   4.931   1.323   6.271 -0.4850 -0.0242  0.2267
  175SAPI   O1419851   5.070   1.366   6.476  0.2495  0.1398  0.0111
  175SAPI   O1219852   5.090   1.137   6.342  0.4343 -0.0094 -0.1886
  175SAPI   O1119853   4.884   1.195   6.475  0.8153 -0.6724 -1.4987
  175SAPI    C119854   4.834   1.254   6.597  0.2174 -0.1201  0.5979
  175SAPI    HA19855   4.822   1.364   6.590 -0.6725 -0.3303 -1.4984
  175SAPI    HB19856   4.734   1.208   6.611 -0.0475 -0.0058 -0.8779
  175SAPI    C219857   4.922   1.228   6.728  0.5953  0.0382  0.6185
  175SAPI    HS19858   5.008   1.295   6.708  1.0135 -0.7557 -0.2929
  175SAPI   O2119859   4.955   1.090   6.735 -0.5582  0.6841  0.2490
  175SAPI   C2119860   5.074   1.059   6.774 -0.7437  0.4513 -0.1798
  175SAPI   O2219861   5.163   1.140   6.800  0.8833  0.3032 -0.6227
  175SAPI   C2219862   5.097   0.909   6.779  0.1460  1.1657  0.1433
  175SAPI   H2R19863   5.021   0.867   6.710 -0.3929  1.5720  0.4753
  175SAPI   H2S19864   5.197   0.878   6.744 -2.1744 -4.8563 -1.8202
  175SAPI    C319865   4.853   1.291   6.855  0.2613  0.1787 -0.0206
  175SAPI    HX19866   4.746   1.261   6.866  1.0627 -2.0742  1.9198
  175SAPI    HY19867   4.870   1.400   6.838  1.2388 -0.0677 -0.6370
  175SAPI   O3119868   4.920   1.245   6.976  0.3541  0.2200 -0.2596
  175SAPI   C3119869   5.016   1.313   7.029  0.3133 -0.6964 -0.1689
  175SAPI   O3219870   5.057   1.423   6.976  0.4647  0.4441 -0.2590
  175SAPI   C3219871   5.066   1.251   7.156 -0.2406  0.0109 -0.5530
  175SAPI   H2X19872   5.128   1.325   7.211  0.9035  0.3421 -2.2352
  175SAPI   H2Y19873   5.130   1.167   7.122  1.1195  0.3627  1.0578
  175SAPI   C2319874   5.068   0.852   6.922 -0.5650 -0.4332 -0.7310
  175SAPI   H3R19875   5.140   0.889   6.998  0.2556  2.0155 -2.6178
  175SAPI   H3S19876   5.084   0.742   6.925 -0.9846 -0.4496  1.9507
  175SAPI   C2419877   4.919   0.874   6.959 -0.0238 -0.4305 -0.4188
  175SAPI   H4R19878   4.887   0.981   6.960 -0.0957 -0.4503 -0.5850
  175SAPI   H4S19879   4.911   0.850   7.067 -2.9298 -1.0684 -0.7338
  175SAPI   C2519880   4.824   0.801   6.867 -0.5631 -0.1330 -0.4885
  175SAPI   H5R19881   4.861   0.779   6.766 -0.9148 -1.4382 -0.3466
  175SAPI   C2619882   4.702   0.761   6.902  0.0523 -0.2644  0.4884
  175SAPI   H6R19883   4.631   0.725   6.827  2.6300 -3.1492 -0.6831
  175SAPI   C2719884   4.645   0.779   7.036 -0.0463 -0.6904 -0.4215
  175SAPI   H7R19885   4.539   0.767   7.007 -0.5270  3.1008 -0.4255
  175SAPI   H7S19886   4.669   0.879   7.077 -2.6184  0.3496 -1.3983
  175SAPI   C2819887   4.667   0.686   7.144  0.3108  0.7570 -0.5932
  175SAPI   H8R19888   4.683   0.582   7.111  2.4280  0.7058  0.4684
  175SAPI   C2919889   4.690   0.709   7.275 -0.4304  1.1691 -0.3347
  175SAPI   H9R19890   4.689   0.614   7.330  2.7303  1.7110  0.7412
  175SAPI  C21019891   4.690   0.845   7.344  0.6386  0.3526  0.2905
  175SAPI  H10R19892   4.588   0.885   7.368 -0.4030 -2.3445  0.4944
  175SAPI  H10S19893   4.734   0.917   7.271  0.5484 -0.7411 -0.8572
  175SAPI  C21119894   4.779   0.846   7.467 -0.3436 -0.5095 -0.2369
  175SAPI  H11R19895   4.866   0.779   7.461  1.2597  1.3234  1.5250
  175SAPI  C21219896   4.758   0.918   7.580 -0.1167 -0.0771  0.5368
  175SAPI  H12R19897   4.839   0.917   7.655 -0.6384  1.4148  1.1257
  175SAPI  C21319898   4.647   1.012   7.602  0.4873  0.0517 -0.1789
  175SAPI  H13R19899   4.562   0.949   7.569  1.6634 -1.2265 -0.8215
  175SAPI  H13S19900   4.655   1.095   7.529 -1.0038 -1.0221 -1.5951
  175SAPI  C21419901   4.635   1.055   7.743 -0.2565  0.3531  0.2630
  175SAPI  H14R19902   4.653   1.163   7.755  0.7445  0.2896 -0.5528
  175SAPI  C21519903   4.593   0.982   7.848 -0.8836  0.3678 -0.5819
  175SAPI  H15R19904   4.580   1.037   7.943 -0.9610  0.7321 -0.8001
  175SAPI  C21619905   4.554   0.834   7.858  0.2815 -0.3339  0.5867
  175SAPI  H16R19906   4.633   0.778   7.912 -0.7354 -2.7942 -0.4015
  175SAPI  H16S19907   4.534   0.794   7.757  2.9930 -0.8158  0.2259
  175SAPI  C21719908   4.419   0.823   7.920  0.0614  1.1736 -0.4115
  175SAPI  H17R19909   4.386   0.717   7.914 -0.4891  1.4350 -2.3476
  175SAPI  H17S19910   4.340   0.883   7.869 -1.5133 -0.0529  0.5571
  175SAPI  C21819911   4.408   0.853   8.074  0.9643 -0.4577  0.9461
  175SAPI  H18R19912   4.453   0.951   8.099  0.0737  0.4927 -1.0718
  175SAPI  H18S19913   4.474   0.777   8.121 -0.8902 -1.3321  2.2083
  175SAPI  C21919914   4.268   0.839   8.137  0.2636 -0.5213  0.9050
  175SAPI  H19R19915   4.252   0.730   8.125 -1.3290 -0.1559 -0.4873
  175SAPI  H19S19916   4.184   0.879   8.076 -0.2742 -0.6723  1.5564
  175SAPI  C22019917   4.253   0.862   8.285  0.0083 -0.5386 -0.7191
  175SAPI  H20R19918   4.154   0.833   8.326 -0.7507  1.3953 -1.1160
  175SAPI  H20S19919   4.246   0.970   8.310 -0.7180 -0.9620  1.0336
  175SAPI  H20T19920   4.346   0.823   8.331  0.9477  1.4606 -0.8775
  175SAPI   C3319921   4.957   1.189   7.245 -0.0079 -0.3199  0.2394
  175SAPI   H3X19922   4.891   1.133   7.176 -0.2791 -0.0186  0.2515
  175SAPI   H3Y19923   4.895   1.264   7.298 -0.2146 -0.5469  0.3181
  175SAPI   C3419924   5.018   1.100   7.354  0.2701  0.2539 -0.6537
  175SAPI   H4X19925   5.108   1.043   7.322 -0.9374 -2.0438 -0.1029
  175SAPI   H4Y19926   4.946   1.027   7.398  0.6555 -0.9745 -2.0046
  175SAPI   C3519927   5.064   1.186   7.476 -0.1802  0.9476 -0.3777
  175SAPI   H5X19928   4.982   1.236   7.532  0.1652  1.0608  0.0274
  175SAPI   H5Y19929   5.146   1.259   7.460  0.8346  0.3238  1.6674
  175SAPI   C3619930   5.124   1.087   7.586 -0.1010  0.1513  0.1745
  175SAPI   H6X19931   5.219   1.056   7.536  0.6719  2.2403  0.2949
  175SAPI   H6Y19932   5.057   0.999   7.594  1.0169 -0.7881 -0.5323
  175SAPI   C3719933   5.143   1.138   7.732  0.3728 -0.0835  0.0246
  175SAPI   H7X19934   5.193   1.236   7.714  0.7604 -0.4675 -1.0880
  175SAPI   H7Y19935   5.211   1.067   7.785 -1.1541 -0.8412  0.9869
  175SAPI   C3819936   5.006   1.135   7.806 -0.5909  0.7654  0.2347
  175SAPI   H8X19937   4.963   1.034   7.789 -0.9160  0.9051  0.2397
  175SAPI   H8Y19938   4.937   1.210   7.763 -1.7389  0.8025  2.1133
  175SAPI   C3919939   5.018   1.177   7.955  0.2316 -0.0226 -0.8882
  175SAPI   H9X19940   5.030   1.285   7.976 -1.0557 -0.6318  3.6246
  175SAPI   H9Y19941   5.098   1.120   8.007  0.1177 -0.0560 -0.7498
  175SAPI  C31019942   4.885   1.149   8.027  0.1828 -0.0086 -0.7861
  175SAPI  H10X19943   4.860   1.048   7.988 -0.2859  0.1177 -0.8114
  175SAPI  H10Y19944   4.808   1.220   7.989 -0.0168 -0.2169 -0.7749
  175SAPI  C31119945   4.898   1.137   8.172 -0.0459 -0.5091 -0.1027
  175SAPI  H11X19946   4.995   1.085   8.190  0.3372  0.3116  0.2652
  175SAPI  H11Y19947   4.816   1.079   8.220  1.3492 -0.4792  2.4631
  175SAPI  C31219948   4.904   1.275   8.251 -0.1329 -0.2184  0.1272
  175SAPI  H12X19949   4.820   1.329   8.203 -0.0490 -0.2580 -0.0631
  175SAPI  H12Y19950   4.991   1.336   8.220 -0.5651  0.4126  0.1428
  175SAPI  C31319951   4.895   1.266   8.403 -0.5203  0.0964 -0.4269
  175SAPI  H13X19952   4.984   1.230   8.459 -0.1273  0.9810 -0.4680
  175SAPI  H13Y19953   4.824   1.188   8.436  0.3388 -0.4291  0.2326
  175SAPI  C31419954   4.870   1.405   8.479  0.1257 -0.9398 -0.1193
  175SAPI  H14X19955   4.769   1.442   8.454  0.8131  1.5536  0.6067
  175SAPI  H14Y19956   4.946   1.479   8.446 -2.6018  1.1463 -1.9499
  175SAPI  C31519957   4.873   1.390   8.632 -0.0346 -0.1563  0.4921
  175SAPI  H15X19958   4.888   1.281   8.648  0.2117 -0.2742 -0.4918
  175SAPI  H15Y19959   4.778   1.413   8.685 -0.6607 -1.5803  0.0303
  175SAPI  C31619960   4.986   1.470   8.704 -0.4737  0.0143 -0.0615
  175SAPI  H16X19961   4.967   1.577   8.683  1.2833  0.4081  0.2711
  175SAPI  H16Y19962   5.082   1.439   8.658 -0.1083  0.8166  0.1441
  175SAPI  C31719963   4.995   1.433   8.851 -0.5404 -0.4597 -0.9274
  175SAPI  H17X19964   5.004   1.323   8.854 -0.7834 -0.5216 -2.0988
  175SAPI  H17Y19965   4.911   1.465   8.916 -0.2228 -1.2474 -0.1210
  175SAPI  C31819966   5.123   1.485   8.906 -1.2205  0.2002 -0.0186
  175SAPI  H18X19967   5.147   1.586   8.866 -1.7870  1.0396  1.7245
  175SAPI  H18Y19968   5.199   1.411   8.873 -1.9922  0.0378 -1.4757
  175SAPI  H18Z19969   5.113   1.478   9.016  0.0996  2.2878  0.2704
  176SAPI   C1219970   5.240   5.977   6.352  0.4590  0.0625  0.8618
  176SAPI    H219971   5.130   5.987   6.360  0.2268  0.2121 -1.9716
  176SAPI    O219972   5.282   5.897   6.458  0.0604  0.3497  0.2929
  176SAPI   HO219973   5.288   5.955   6.534 -1.8828  1.4202 -0.3610
  176SAPI   C1319974   5.271   5.896   6.230  0.5220 -0.3243  0.7474
  176SAPI    H319975   5.235   5.952   6.141 -0.5220 -0.8186  0.8566
  176SAPI    O319976   5.202   5.774   6.229  0.1349 -0.1265  0.2719
  176SAPI   HO319977   5.219   5.732   6.314 -0.8250 -0.4977  0.2925
  176SAPI   C1419978   5.428   5.881   6.209  0.1118 -0.0231 -0.3545
  176SAPI    H419979   5.485   5.826   6.288 -0.4574 -1.4993 -0.9531
  176SAPI    O419980   5.459   5.831   6.084 -0.0876  0.4730  0.2984
  176SAPI   HO419981   5.553   5.812   6.082  0.4714  3.0521 -1.5051
  176SAPI   C1519982   5.500   6.017   6.217 -0.2351  0.4151 -0.4872
  176SAPI    H519983   5.475   6.082   6.130  0.8533  1.2239 -0.2082
  176SAPI    O519984   5.643   6.008   6.197  0.3426 -0.3043 -0.7157
  176SAPI   HO519985   5.680   5.989   6.283  1.5771 -0.4587 -1.2787
  176SAPI   C1619986   5.464   6.089   6.345  0.0093 -0.4713  0.1003
  176SAPI    H619987   5.512   6.022   6.419  1.2893 -0.6323 -0.8674
  176SAPI    O619988   5.531   6.213   6.356  0.1035 -0.9083  0.1908
  176SAPI   HO619989   5.589   6.230   6.431  1.6039  2.5756 -1.6466
  176SAPI   C1119990   5.313   6.111   6.354  0.5162  0.4809 -1.3720
  176SAPI    H119991   5.296   6.172   6.262  1.5082  0.5410 -1.5184
  176SAPI     P19992   5.122   6.248   6.481  0.1821  0.0479  0.4295
  176SAPI   O1319993   5.064   6.263   6.347 -0.5893  0.0424 -0.4440
  176SAPI   O1419994   5.144   6.377   6.554  0.6875 -0.0616 -0.1288
  176SAPI   O1219995   5.270   6.174   6.478 -0.5612 -0.1941 -0.6522
  176SAPI   O1119996   5.036   6.139   6.567  0.1163 -0.3670  0.2082
  176SAPI    C119997   5.073   6.097   6.701 -0.7023  0.2503 -0.0531
  176SAPI    HA19998   5.144   6.012   6.707  0.1575  1.0473  1.1862
  176SAPI    HB19999   5.129   6.175   6.757  0.1478  0.6138 -1.3913
  176SAPI    C220000   4.948   6.071   6.783 -0.3552  0.6647 -0.8201
  176SAPI    HS20001   4.895   6.000   6.717  0.2219 -0.7532  0.2238
  176SAPI   O2120002   4.877   6.192   6.804  0.1029 -0.1789  0.1718
  176SAPI   C2120003   4.745   6.186   6.826 -0.0550 -0.2048 -0.0785
  176SAPI   O2220004   4.675   6.092   6.797 -0.5671  0.0148  0.0715
  176SAPI   C2220005   4.699   6.320   6.894 -0.3935 -0.4239  0.0633
  176SAPI   H2R20006   4.794   6.372   6.918 -0.3389 -0.6311  0.3019
  176SAPI   H2S20007   4.632   6.381   6.829 -1.0795  0.2774  1.4149
  176SAPI    C320008   4.984   5.981   6.908 -0.1846  0.3354  0.6590
  176SAPI    HX20009   5.019   5.885   6.865 -0.6249 -0.3597  1.8210
  176SAPI    HY20010   4.886   5.967   6.958 -0.2640  0.2002  0.4596
  176SAPI   O3120011   5.089   6.035   6.992  0.1728  0.8693 -0.0160
  176SAPI   C3120012   5.048   6.137   7.073  0.2710  0.5437 -0.0820
  176SAPI   O3220013   4.934   6.180   7.095 -0.2013  0.3342  0.5909
  176SAPI   C3220014   5.169   6.193   7.148 -0.2291  0.3136 -0.8775
  176SAPI   H2X20015   5.147   6.288   7.200  1.6248 -0.5899  1.6832
  176SAPI   H2Y20016   5.252   6.220   7.079  1.9202  1.5670  2.0931
  176SAPI   C2320017   4.619   6.289   7.025 -0.1774  0.3030 -0.2671
  176SAPI   H3R20018   4.615   6.371   7.100  2.8598  0.1663  0.0939
  176SAPI   H3S20019   4.680   6.219   7.086 -1.1801  0.0407  0.4589
  176SAPI   C2420020   4.471   6.252   6.988 -0.4058 -0.1389 -0.2445
  176SAPI   H4R20021   4.466   6.191   6.895 -2.0455 -1.6327  0.8027
  176SAPI   H4S20022   4.410   6.345   6.990 -0.3868 -0.1245 -0.3351
  176SAPI   C2520023   4.411   6.150   7.088 -0.2092 -0.6973  0.5164
  176SAPI   H5R20024   4.393   6.049   7.051  0.6993 -0.5094 -0.4544
  176SAPI   C2620025   4.382   6.165   7.220  0.9385 -1.1667  0.2000
  176SAPI   H6R20026   4.347   6.080   7.280 -1.5929 -1.3118 -1.3803
  176SAPI   C2720027   4.398   6.290   7.311  0.8825 -0.0315  0.6623
  176SAPI   H7R20028   4.390   6.388   7.259  1.6303 -0.3440 -0.0607
  176SAPI   H7S20029   4.503   6.299   7.346  0.6754 -1.2023  1.6103
  176SAPI   C2820030   4.299   6.278   7.424  0.2914  0.0289 -0.3033
  176SAPI   H8R20031   4.194   6.293   7.394  0.0057 -1.5174 -0.1090
  176SAPI   C2920032   4.329   6.267   7.556 -0.1931 -0.2840  0.2976
  176SAPI   H9R20033   4.254   6.260   7.637  0.7042  0.1060  1.1683
  176SAPI  C21020034   4.467   6.255   7.610  0.3603  0.2201 -0.0730
  176SAPI  H10R20035   4.509   6.357   7.602 -2.2419  1.4688  1.2881
  176SAPI  H10S20036   4.518   6.189   7.537 -2.6857 -3.5122  0.9837
  176SAPI  C21120037   4.471   6.208   7.750  0.9735  0.5157 -0.2835
  176SAPI  H11R20038   4.464   6.099   7.762 -0.6213  0.8233  1.8204
  176SAPI  C21220039   4.480   6.273   7.868 -0.0482 -0.7279  0.1337
  176SAPI  H12R20040   4.501   6.213   7.957 -0.9211 -1.3159 -0.0487
  176SAPI  C21320041   4.474   6.423   7.887 -0.5851  0.2456  0.5591
  176SAPI  H13R20042   4.370   6.443   7.922 -1.2692 -0.7415 -0.8657
  176SAPI  H13S20043   4.478   6.475   7.789 -1.7682  0.3812  0.5772
  176SAPI  C21420044   4.576   6.485   7.986 -1.0315 -0.1266 -0.4929
  176SAPI  H14R20045   4.674   6.504   7.939 -1.4643 -1.7610 -2.1212
  176SAPI  C21520046   4.551   6.519   8.111 -0.3375  0.3579 -0.3620
  176SAPI  H15R20047   4.644   6.554   8.157 -0.9273 -0.8743  1.8841
  176SAPI  C21620048   4.427   6.511   8.198  0.0617  0.6114 -0.2516
  176SAPI  H16R20049   4.329   6.508   8.146  0.8134 -0.3438 -1.6690
  176SAPI  H16S20050   4.413   6.595   8.269  2.0034  1.1781 -0.5035
  176SAPI  C21720051   4.420   6.380   8.289 -0.6257 -0.7875  0.0540
  176SAPI  H17R20052   4.479   6.295   8.251 -0.2533  0.2926 -1.8776
  176SAPI  H17S20053   4.316   6.342   8.291 -0.9185 -0.0360 -0.6470
  176SAPI  C21820054   4.483   6.412   8.426 -0.0527 -0.3375  0.1469
  176SAPI  H18R20055   4.417   6.473   8.492  1.7718  0.2765  1.4367
  176SAPI  H18S20056   4.576   6.469   8.408 -1.5606  2.3955  0.7093
  176SAPI  C21920057   4.524   6.278   8.489 -0.6560 -0.8518 -0.2750
  176SAPI  H19R20058   4.608   6.250   8.422  0.9095  0.6075  1.0399
  176SAPI  H19S20059   4.437   6.210   8.477 -0.6093 -0.7954 -0.9861
  176SAPI  C22020060   4.566   6.291   8.631  0.0725  0.1450  0.0340
  176SAPI  H20R20061   4.613   6.196   8.666  1.7075  1.0018  0.2077
  176SAPI  H20S20062   4.487   6.320   8.704  0.3736 -0.6046  0.6724
  176SAPI  H20T20063   4.642   6.371   8.642  0.7250 -0.6631  1.5699
  176SAPI   C3320064   5.246   6.103   7.253 -0.6065  0.3652 -0.0282
  176SAPI   H3X20065   5.355   6.124   7.258 -0.2168 -1.7815  1.2523
  176SAPI   H3Y20066   5.218   6.000   7.222 -2.3538  0.2709  1.7353
  176SAPI   C3420067   5.191   6.126   7.392  0.5629  0.0196  0.7369
  176SAPI   H4X20068   5.197   6.031   7.450  0.7111  1.1785  2.6561
  176SAPI   H4Y20069   5.084   6.153   7.395  0.1099 -1.7101  0.4135
  176SAPI   C3520070   5.278   6.218   7.479 -0.9146  0.1178  0.2532
  176SAPI   H5X20071   5.257   6.323   7.450  1.7337  0.5039 -0.4746
  176SAPI   H5Y20072   5.385   6.196   7.458 -1.6760 -3.5126 -0.1588
  176SAPI   C3620073   5.260   6.208   7.633 -0.0324  0.5817  0.1991
  176SAPI   H6X20074   5.215   6.108   7.650 -0.5487  0.6562 -0.6876
  176SAPI   H6Y20075   5.183   6.283   7.659  0.8307  1.1605  1.1246
  176SAPI   C3720076   5.386   6.223   7.721  0.0595  0.7602  0.1068
  176SAPI   H7X20077   5.430   6.325   7.708  2.6881 -0.3239  0.2078
  176SAPI   H7Y20078   5.461   6.143   7.705  1.4664  2.1762 -0.5146
  176SAPI   C3820079   5.347   6.220   7.873 -0.2147  0.3373 -0.4211
  176SAPI   H8X20080   5.266   6.145   7.885 -0.4247  0.7662  0.9184
  176SAPI   H8Y20081   5.300   6.320   7.890 -0.5131  0.2099 -0.4854
  176SAPI   C3920082   5.460   6.205   7.975 -0.4132  0.4861 -0.4022
  176SAPI   H9X20083   5.562   6.237   7.943  0.4990 -1.9026  0.0232
  176SAPI   H9Y20084   5.477   6.096   7.989  0.0717  0.7550  1.1714
  176SAPI  C31020085   5.443   6.270   8.113  0.7954 -0.4783 -0.0745
  176SAPI  H10X20086   5.339   6.245   8.143  0.0097  2.3934 -0.2594
  176SAPI  H10Y20087   5.438   6.381   8.100  0.2634 -0.3214  1.3269
  176SAPI  C31120088   5.540   6.233   8.220 -0.5762 -0.2058 -0.5225
  176SAPI  H11X20089   5.641   6.267   8.187  0.0051 -3.0518 -1.8153
  176SAPI  H11Y20090   5.537   6.125   8.244 -0.7644  0.2678  1.7336
  176SAPI  C31220091   5.515   6.301   8.351 -0.3661  0.3272  0.4979
  176SAPI  H12X20092   5.452   6.389   8.325  0.5727  1.0857  0.7549
  176SAPI  H12Y20093   5.605   6.333   8.408 -1.3589 -1.3019  3.0842
  176SAPI  C31320094   5.430   6.226   8.455 -0.3124 -0.5045  1.0815
  176SAPI  H13X20095   5.328   6.215   8.413 -0.4026 -2.3035  1.7595
  176SAPI  H13Y20096   5.416   6.288   8.547  0.9179  0.4940  0.6152
  176SAPI  C31420097   5.469   6.085   8.491 -0.2573  0.3171  0.6096
  176SAPI  H14X20098   5.520   6.031   8.409  0.2530  1.1042  0.4065
  176SAPI  H14Y20099   5.379   6.022   8.512 -1.1944  1.9898  1.7336
  176SAPI  C31520100   5.553   6.092   8.617  0.9093  0.4348 -0.9608
  176SAPI  H15X20101   5.507   6.158   8.694  0.0696 -2.0406  0.7392
  176SAPI  H15Y20102   5.653   6.135   8.592  1.7345 -0.1768  1.1538
  176SAPI  C31620103   5.581   5.949   8.681  0.0834 -0.2393 -0.0433
  176SAPI  H16X20104   5.597   5.866   8.609 -0.7195 -1.5540  1.2800
  176SAPI  H16Y20105   5.491   5.929   8.742 -0.8552  3.5895 -0.0691
  176SAPI  C31720106   5.703   5.959   8.765  0.1916 -0.1077  0.2606
  176SAPI  H17X20107   5.682   6.045   8.833  1.3982  1.0783 -0.8443
  176SAPI  H17Y20108   5.788   5.995   8.704  1.6623  1.5434  3.1983
  176SAPI  C31820109   5.739   5.831   8.841 -0.5426 -0.1018  0.6067
  176SAPI  H18X20110   5.652   5.802   8.903  0.6932 -0.8629  2.0401
  176SAPI  H18Y20111   5.834   5.842   8.899  0.2846 -1.0645 -0.5440
  176SAPI  H18Z20112   5.760   5.749   8.769  0.1293 -0.6470  1.4071
  177SLPC     N20113   4.878   3.411  11.345  0.5510 -0.0426 -0.0667
  177SLPC   C1320114   4.987   3.482  11.407  0.0646 -0.0211 -0.2234
  177SLPC  H13A20115   5.042   3.559  11.355 -0.8429  1.0039  0.3100
  177SLPC  H13B20116   4.949   3.533  11.494  1.4271  0.7616 -0.0717
  177SLPC  H13C20117   5.067   3.415  11.436  1.4169  1.9214  0.6276
  177SLPC   C1420118   4.761   3.498  11.367 -0.7754 -0.0990  0.2153
  177SLPC  H14A20119   4.763   3.594  11.316 -1.3070  0.1372  0.6313
  177SLPC  H14B20120   4.673   3.451  11.326 -1.6415  1.2426  0.4779
  177SLPC  H14C20121   4.752   3.523  11.472  0.8225 -1.5963  0.7212
  177SLPC   C1520122   4.849   3.278  11.405  0.0336 -0.3299  0.2423
  177SLPC  H15A20123   4.782   3.221  11.343 -0.3440  0.2954  0.0678
  177SLPC  H15B20124   4.944   3.227  11.404  0.8156  1.0054  2.0116
  177SLPC  H15C20125   4.802   3.277  11.503 -1.3942  0.7199 -0.4170
  177SLPC   C1220126   4.901   3.401  11.197  0.6582 -0.3255  0.0166
  177SLPC  H12A20127   4.935   3.500  11.172 -0.9778 -0.2014 -1.7665
  177SLPC  H12B20128   4.805   3.376  11.154  0.5457 -1.1488  0.7331
  177SLPC   C1120129   5.013   3.305  11.146 -0.2893  0.3206 -0.0423
  177SLPC  H11A20130   5.097   3.315  11.218 -0.2935 -3.2876  0.5350
  177SLPC  H11B20131   5.043   3.350  11.048 -1.0698 -0.7525 -0.7826
  177SLPC     P20132   4.844   3.127  11.054  0.1285  0.2695 -0.0784
  177SLPC   O1320133   4.817   2.985  11.069 -0.5607  0.7181  0.0584
  177SLPC   O1420134   4.723   3.216  11.073 -0.2154 -0.1088  0.2584
  177SLPC   O1220135   4.970   3.174  11.139 -0.3169 -0.2972  0.0987
  177SLPC   O1120136   4.898   3.153  10.906 -0.4337  0.0844 -0.3358
  177SLPC    C120137   5.003   3.063  10.863  0.6456  0.7519  0.8234
  177SLPC    HA20138   5.092   3.060  10.929  2.0892 -2.1189 -1.1485
  177SLPC    HB20139   4.965   2.959  10.865 -0.1542  1.0248  0.0768
  177SLPC    C220140   5.051   3.096  10.719  0.4140  0.1557 -0.5800
  177SLPC    HS20141   5.104   3.010  10.671 -0.7165 -0.3556 -0.9364
  177SLPC   O2120142   5.129   3.216  10.718  0.1274  0.0390  0.0357
  177SLPC   C2120143   5.253   3.189  10.744  0.8753  0.9360  0.6269
  177SLPC   O2220144   5.302   3.083  10.775 -0.2049 -0.3262 -0.0061
  177SLPC   C2220145   5.332   3.321  10.724  0.0682 -0.3382 -0.6030
  177SLPC   H2R20146   5.263   3.400  10.687  1.5355  1.6464  0.7913
  177SLPC   H2S20147   5.379   3.350  10.821 -0.9837  1.0755 -0.4977
  177SLPC    C320148   4.923   3.112  10.629  0.8077  0.1541 -0.0908
  177SLPC    HX20149   4.867   3.205  10.651  1.1291  0.6627 -1.3992
  177SLPC    HY20150   4.863   3.024  10.662  1.7445 -0.7085 -0.6387
  177SLPC   O3120151   4.965   3.093  10.493  0.7463 -0.0520 -0.4468
  177SLPC   C3120152   4.967   3.201  10.417  0.0030 -0.2005  0.0428
  177SLPC   O3220153   4.921   3.310  10.445  0.1803 -0.0205 -0.2751
  177SLPC   C3220154   5.049   3.174  10.297  0.0693  0.0304  0.1749
  177SLPC   H2X20155   5.054   3.065  10.280  1.6298 -0.0670  1.1004
  177SLPC   H2Y20156   5.156   3.199  10.316  0.0999 -0.6007  0.8591
  177SLPC   C2320157   5.456   3.299  10.632  0.3609  0.4094  0.5258
  177SLPC   H3R20158   5.516   3.215  10.672  0.0120  0.9316  2.2187
  177SLPC   H3S20159   5.522   3.388  10.644  1.4229 -0.0142 -1.8783
  177SLPC   C2420160   5.433   3.288  10.478 -0.2685  0.1660 -0.2242
  177SLPC   H4R20161   5.360   3.363  10.440  0.0441 -0.8797 -3.0496
  177SLPC   H4S20162   5.387   3.189  10.454 -2.1609  0.6006  1.5304
  177SLPC   C2520163   5.563   3.290  10.394 -0.3789  0.1371 -0.2708
  177SLPC   H5R20164   5.628   3.201  10.408 -2.1402 -1.2218 -0.5494
  177SLPC   H5S20165   5.626   3.377  10.423 -1.2505 -0.2454  2.9640
  177SLPC   C2620166   5.542   3.294  10.241 -0.3601 -0.3910 -0.1260
  177SLPC   H6R20167   5.643   3.281  10.198 -0.4282  2.2760 -1.1790
  177SLPC   H6S20168   5.493   3.389  10.210  1.2015  2.1325  4.6692
  177SLPC   C2720169   5.467   3.176  10.175  0.9669 -0.3660  0.5227
  177SLPC   H7R20170   5.366   3.166  10.219 -0.4280  0.7905 -2.2945
  177SLPC   H7S20171   5.522   3.083  10.201  0.0550 -0.9837  0.2662
  177SLPC   C2820172   5.467   3.190  10.025  0.2431  0.4219 -0.5455
  177SLPC   H8R20173   5.574   3.186   9.996  0.7896  1.8358  1.2036
  177SLPC   H8S20174   5.417   3.287  10.003 -0.3703 -0.0424 -1.2069
  177SLPC   C2920175   5.400   3.079   9.957  0.1492  0.0033  0.6425
  177SLPC   H9R20176   5.343   3.021  10.030 -0.3149  0.6578  0.8052
  177SLPC  C21020177   5.413   3.052   9.825 -0.3634  0.1495 -0.0842
  177SLPC  H10R20178   5.357   2.965   9.789 -2.2653  1.0180  0.7032
  177SLPC  C21120179   5.505   3.115   9.726 -0.1471 -0.2540 -0.1606
  177SLPC  H11R20180   5.595   3.158   9.774  0.5088 -1.7453 -0.0176
  177SLPC  H11S20181   5.542   3.034   9.660  1.0630 -0.9470  1.3302
  177SLPC  C21220182   5.424   3.215   9.647 -0.3376  0.0640  0.7942
  177SLPC  H12R20183   5.415   3.312   9.700  2.6578  1.0113 -0.2787
  177SLPC  C21320184   5.367   3.195   9.522 -0.3268  0.1541  0.0230
  177SLPC  H13R20185   5.321   3.285   9.478 -0.8151 -0.6202 -1.0648
  177SLPC  C21420186   5.367   3.077   9.433  0.3443 -0.1939 -1.0958
  177SLPC  H14R20187   5.269   3.029   9.452  0.9940 -0.8609  0.6473
  177SLPC  H14S20188   5.446   3.004   9.463 -0.4323 -1.2168 -1.5207
  177SLPC  C21520189   5.400   3.129   9.291 -1.0566 -0.1649 -0.0794
  177SLPC  H15R20190   5.331   3.211   9.263 -0.5804  0.7412  1.3749
  177SLPC  H15S20191   5.393   3.040   9.225  1.6511 -0.0138 -0.6063
  177SLPC  C21620192   5.553   3.169   9.267  0.0130  0.3875 -0.1353
  177SLPC  H16R20193   5.565   3.275   9.296  1.3975 -0.3001  1.8950
  177SLPC  H16S20194   5.575   3.158   9.159 -0.2341 -0.1757 -0.1323
  177SLPC  C21720195   5.663   3.094   9.339  0.1597  0.8442  0.5596
  177SLPC  H17R20196   5.647   2.986   9.319 -2.8870  0.9773  1.9349
  177SLPC  H17S20197   5.636   3.095   9.447 -1.1438 -1.4076  0.2883
  177SLPC  C21820198   5.805   3.135   9.330  0.4530 -0.3358 -0.1951
  177SLPC  H18R20199   5.815   3.246   9.328 -0.2331 -0.2573  0.4378
  177SLPC  H18S20200   5.850   3.101   9.234 -0.7000 -1.8945 -0.2170
  177SLPC  H18T20201   5.866   3.097   9.415 -1.2586  1.5181  1.9483
  177SLPC   C3320202   4.993   3.244  10.176 -0.2092  0.0894  0.0203
  177SLPC   H3X20203   4.997   3.354  10.190 -2.7545  0.1243  0.6635
  177SLPC   H3Y20204   4.885   3.225  10.158 -0.4095  1.8172 -0.7334
  177SLPC   C3420205   5.064   3.207  10.054  0.0011  0.5017  0.7459
  177SLPC   H4X20206   5.065   3.096  10.045  0.0694  0.5148  0.5811
  177SLPC   H4Y20207   5.174   3.221  10.055  0.2050  0.1409 -3.9096
  177SLPC   C3520208   4.992   3.265   9.926  0.3110 -0.0071  0.2737
  177SLPC   H5X20209   4.955   3.366   9.953 -2.2794 -0.2664 -2.0859
  177SLPC   H5Y20210   4.903   3.199   9.913  0.8673 -0.1799 -2.8334
  177SLPC   C3620211   5.072   3.274   9.804 -0.3240 -0.1449  0.3794
  177SLPC   H6X20212   5.111   3.176   9.769 -2.4234  0.3849 -3.7468
  177SLPC   H6Y20213   5.166   3.331   9.823  0.9491 -2.7874  2.4860
  177SLPC   C3720214   4.988   3.343   9.696  0.7045  1.4282 -0.6308
  177SLPC   H7X20215   4.953   3.443   9.730 -0.6949  0.5488  0.5768
  177SLPC   H7Y20216   4.889   3.293   9.686  1.5493 -0.8700  1.9428
  177SLPC   C3820217   5.062   3.356   9.561 -0.4280  0.9971  0.0928
  177SLPC   H8X20218   5.081   3.258   9.512 -2.3935  0.8826 -0.4718
  177SLPC   H8Y20219   5.166   3.390   9.583 -0.5770  0.4083  1.7656
  177SLPC   C3920220   4.994   3.447   9.452 -0.4227  0.3574 -0.6213
  177SLPC   H9X20221   5.072   3.454   9.373  0.4634  2.1230  0.3644
  177SLPC   H9Y20222   4.971   3.548   9.494 -0.4521  0.5903 -1.1943
  177SLPC  C31020223   4.867   3.390   9.400  0.1493  0.3551 -0.4084
  177SLPC  H10X20224   4.795   3.384   9.485 -0.5047  1.1766 -0.8912
  177SLPC  H10Y20225   4.881   3.286   9.362 -2.4882  0.6310 -2.2872
  177SLPC  C31120226   4.802   3.474   9.284 -0.6159 -0.2990 -0.6367
  177SLPC  H11X20227   4.831   3.581   9.290  3.4588 -1.2645 -1.6611
  177SLPC  H11Y20228   4.692   3.478   9.296 -0.5527 -4.3494  2.2750
  177SLPC  C31220229   4.830   3.415   9.148 -0.0047  0.1732 -0.0435
  177SLPC  H12X20230   4.801   3.308   9.141  1.3257 -0.3289  1.6026
  177SLPC  H12Y20231   4.939   3.425   9.130 -0.3659  0.8218 -2.0010
  177SLPC  C31320232   4.745   3.491   9.048 -0.2211  0.3227 -0.0865
  177SLPC  H13X20233   4.781   3.595   9.060  1.0812 -0.4139  2.6707
  177SLPC  H13Y20234   4.641   3.471   9.080 -0.3736 -1.0538 -1.3761
  177SLPC  C31420235   4.758   3.457   8.900 -0.2530  0.2286  0.0711
  177SLPC  H14X20236   4.745   3.347   8.890 -0.3583  0.3244 -0.8713
  177SLPC  H14Y20237   4.860   3.477   8.861  0.1222 -2.6233 -0.5250
  177SLPC  C31520238   4.658   3.537   8.820  0.3363  0.0424  0.1794
  177SLPC  H15X20239   4.675   3.646   8.826 -1.7859  0.5747 -2.4024
  177SLPC  H15Y20240   4.564   3.508   8.872  0.6731 -3.3657 -0.9423
  177SLPC  C31620241   4.644   3.497   8.674 -0.0051 -0.2126 -0.1153
  177SLPC  H16X20242   4.743   3.503   8.624 -0.1412 -1.4253 -0.5368
  177SLPC  H16Y20243   4.581   3.571   8.621 -0.5007 -0.0475  0.6980
  177SLPC  C31720244   4.586   3.362   8.641 -0.1147  0.2701 -0.3372
  177SLPC  H17X20245   4.482   3.348   8.675  0.2481 -2.3416 -0.2009
  177SLPC  H17Y20246   4.642   3.278   8.688 -0.9580  1.2887  2.6103
  177SLPC  C31820247   4.590   3.331   8.490 -0.4285  0.0724 -0.4660
  177SLPC  H18X20248   4.680   3.369   8.436 -0.5098  1.5234  0.4140
  177SLPC  H18Y20249   4.499   3.370   8.440 -0.6021 -0.5648 -0.6600
  177SLPC  H18Z20250   4.584   3.224   8.461 -2.4986  0.7056 -2.4487
  178SLPC     N20251   0.383   5.626  11.247 -0.0332  0.6438  0.8448
  178SLPC   C1320252   0.309   5.547  11.347 -0.1666  0.0792  0.6488
  178SLPC  H13A20253   0.351   5.558  11.446 -1.2293  0.3484  1.0697
  178SLPC  H13B20254   0.208   5.585  11.341 -0.0145  0.1754 -2.1390
  178SLPC  H13C20255   0.307   5.448  11.303  0.0708  0.4361 -0.1791
  178SLPC   C1420256   0.512   5.546  11.222  0.0695 -0.5392 -0.3211
  178SLPC  H14A20257   0.572   5.547  11.312 -0.9943  0.1617  0.3930
  178SLPC  H14B20258   0.497   5.441  11.199 -0.1561 -0.8401  1.1402
  178SLPC  H14C20259   0.578   5.589  11.149  2.4149 -1.9777  0.8870
  178SLPC   C1520260   0.420   5.766  11.292  0.6338  0.4527 -0.7649
  178SLPC  H15A20261   0.466   5.769  11.389 -3.3832 -0.3976  1.2742
  178SLPC  H15B20262   0.492   5.805  11.221 -0.3176 -0.1765 -2.0914
  178SLPC  H15C20263   0.337   5.835  11.281  0.0571  0.1671  1.6022
  178SLPC   C1220264   0.300   5.643  11.122  0.6097  0.2174 -0.1716
  178SLPC  H12A20265   0.353   5.685  11.038  0.6085  1.7421  0.5772
  178SLPC  H12B20266   0.225   5.720  11.134  1.4373  0.8256  1.1329
  178SLPC   C1120267   0.240   5.518  11.051 -0.1985  0.4658  0.2836
  178SLPC  H11A20268   0.317   5.441  11.028  0.1531  0.4152  1.5386
  178SLPC  H11B20269   0.199   5.549  10.953 -2.1147  1.1089  1.2685
  178SLPC     P20270  -0.006   5.520  11.132 -0.0751  0.1258  0.1117
  178SLPC   O1320271  -0.099   5.418  11.192  0.3863 -0.3637 -0.1779
  178SLPC   O1420272   0.005   5.646  11.214  0.0796 -0.1628  0.1873
  178SLPC   O1220273   0.139   5.458  11.132 -0.2404  0.2859 -0.1053
  178SLPC   O1120274  -0.037   5.547  10.978 -0.1378 -0.5113  0.4044
  178SLPC    C120275  -0.082   5.456  10.879  0.2511  0.8142 -0.3901
  178SLPC    HA20276  -0.118   5.364  10.930  3.1742 -0.5593 -0.7364
  178SLPC    HB20277  -0.168   5.500  10.822 -1.8784 -0.4927  1.7085
  178SLPC    C220278   0.032   5.420  10.781  0.0617 -0.6510 -0.1683
  178SLPC    HS20279   0.118   5.374  10.834  0.2461  0.9490  0.9562
  178SLPC   O2120280   0.074   5.554  10.719  0.0764  0.2379 -0.2802
  178SLPC   C2120281   0.190   5.553  10.651  0.2848  0.3644  0.0318
  178SLPC   O2220282   0.263   5.456  10.649 -0.2790 -0.0478 -0.0692
  178SLPC   C2220283   0.212   5.687  10.586 -0.1025  0.4946 -0.0159
  178SLPC   H2R20284   0.186   5.770  10.655  0.4066  1.5280 -1.0548
  178SLPC   H2S20285   0.322   5.688  10.575  0.0501 -2.5875  0.8191
  178SLPC    C320286  -0.012   5.311  10.677  0.7780  0.3872  0.0229
  178SLPC    HX20287  -0.120   5.323  10.653 -0.0565  1.0929  3.7945
  178SLPC    HY20288  -0.014   5.211  10.725 -0.8108 -0.2817 -1.4050
  178SLPC   O3120289   0.057   5.304  10.550 -0.0568 -0.2177  0.5364
  178SLPC   C3120290   0.155   5.213  10.533  0.5035 -0.1491 -0.2922
  178SLPC   O3220291   0.215   5.159  10.625  0.0469 -0.3881 -0.1728
  178SLPC   C3220292   0.185   5.200  10.381  0.7180  0.3561  0.5554
  178SLPC   H2X20293   0.265   5.126  10.359  1.8311  2.2121 -1.9144
  178SLPC   H2Y20294   0.235   5.290  10.339  2.7467 -1.4034 -0.9194
  178SLPC   C2320295   0.132   5.700  10.458 -0.1003 -0.9732 -0.8015
  178SLPC   H3R20296   0.022   5.694  10.471 -0.1376  1.8158  0.5789
  178SLPC   H3S20297   0.168   5.612  10.400  0.4701 -1.3312  0.0750
  178SLPC   C2420298   0.168   5.819  10.368 -0.7698  0.0023 -0.8262
  178SLPC   H4R20299   0.216   5.905  10.421  0.1015 -3.0911  3.7169
  178SLPC   H4S20300   0.070   5.856  10.331 -1.1005  0.3409  0.3613
  178SLPC   C2520301   0.252   5.785  10.244 -0.0407 -0.2786 -0.2286
  178SLPC   H5R20302   0.198   5.706  10.186 -0.5459 -0.4236  0.4262
  178SLPC   H5S20303   0.350   5.743  10.273 -0.5767  0.1262  2.3612
  178SLPC   C2620304   0.267   5.907  10.146  0.1011 -1.1379 -0.4301
  178SLPC   H6R20305   0.351   5.964  10.193 -0.8646  0.5128 -0.6959
  178SLPC   H6S20306   0.174   5.966  10.149 -0.4852 -2.1013  0.9716
  178SLPC   C2720307   0.313   5.857  10.006  0.4651  0.0153 -0.3395
  178SLPC   H7R20308   0.254   5.767   9.977 -0.5448  0.9919 -1.3956
  178SLPC   H7S20309   0.416   5.816  10.009  0.3787 -0.0441  2.7501
  178SLPC   C2820310   0.304   5.968   9.903 -0.9174  0.3440  0.3462
  178SLPC   H8R20311   0.386   6.041   9.922 -1.8976  1.4960  0.1916
  178SLPC   H8S20312   0.209   6.015   9.936 -1.5858  1.1446 -2.5590
  178SLPC   C2920313   0.298   5.926   9.753 -0.1042  0.5831  0.0111
  178SLPC   H9R20314   0.382   5.867   9.713 -0.3858 -0.6744  1.2158
  178SLPC  C21020315   0.204   5.950   9.658  0.0823  0.1856  0.6743
  178SLPC  H10R20316   0.227   5.918   9.555  0.8861  2.6984  0.0425
  178SLPC  C21120317   0.078   6.029   9.675 -0.0844  0.4007 -0.5913
  178SLPC  H11R20318   0.098   6.129   9.631  2.7645  0.4043  0.6163
  178SLPC  H11S20319   0.058   6.046   9.783 -1.8401 -1.6225 -0.5596
  178SLPC  C21220320  -0.045   5.976   9.601 -0.7096 -0.0150 -0.4526
  178SLPC  H12R20321  -0.022   5.922   9.508 -0.3240  0.4778 -0.6503
  178SLPC  C21320322  -0.176   5.980   9.636  0.4222 -0.0092 -0.2351
  178SLPC  H13R20323  -0.246   5.925   9.572  0.3849  0.4668 -0.6171
  178SLPC  C21420324  -0.232   6.041   9.758  0.7082 -0.1792  0.9091
  178SLPC  H14R20325  -0.327   6.095   9.737  0.4620 -1.3041 -0.9788
  178SLPC  H14S20326  -0.160   6.115   9.799  1.7995  0.1602 -1.5117
  178SLPC  C21520327  -0.269   5.927   9.848 -0.2416  0.0754  0.3852
  178SLPC  H15R20328  -0.173   5.878   9.875 -0.2984  0.7059  1.7431
  178SLPC  H15S20329  -0.333   5.855   9.794 -0.9364 -2.0122  3.8404
  178SLPC  C21620330  -0.345   5.967   9.975  0.0103  0.6284  0.2648
  178SLPC  H16R20331  -0.398   5.876  10.008 -1.1051  1.0847 -0.2526
  178SLPC  H16S20332  -0.413   6.049   9.945  1.2817  1.3542 -0.7052
  178SLPC  C21720333  -0.254   6.012  10.078 -0.6022  0.6813  0.2700
  178SLPC  H17R20334  -0.183   6.092  10.048  0.5327  1.0142  3.6468
  178SLPC  H17S20335  -0.183   5.927  10.093  0.2049  1.0021 -1.5589
  178SLPC  C21820336  -0.326   6.059  10.204  0.0016 -0.1126  0.0431
  178SLPC  H18R20337  -0.368   6.155  10.169  2.3087  0.8207 -0.3053
  178SLPC  H18S20338  -0.261   6.069  10.293 -0.0021  0.2839  0.0013
  178SLPC  H18T20339  -0.410   5.992  10.230  0.3814  0.8382  4.0448
  178SLPC   C3320340   0.049   5.177  10.307 -0.2023  0.3959  0.4159
  178SLPC   H3X20341   0.005   5.274  10.274  0.7443  0.6580 -0.1053
  178SLPC   H3Y20342  -0.022   5.113  10.363 -0.9115 -0.6883 -1.7007
  178SLPC   C3420343   0.074   5.096  10.180 -0.4814  0.2080 -0.2666
  178SLPC   H4X20344   0.114   4.994  10.200 -2.2639 -0.5793 -0.6021
  178SLPC   H4Y20345   0.156   5.136  10.118  0.4003 -1.8862 -0.4880
  178SLPC   C3520346  -0.052   5.077  10.096 -0.1666 -0.1670  0.1950
  178SLPC   H5X20347  -0.090   5.179  10.074 -1.6266 -0.3445  1.8468
  178SLPC   H5Y20348  -0.125   5.008  10.142 -0.4959 -0.7195 -1.1563
  178SLPC   C3620349  -0.017   4.999   9.965 -0.4420  0.5763 -0.0412
  178SLPC   H6X20350  -0.111   5.008   9.907  0.5014 -0.1966 -1.7129
  178SLPC   H6Y20351   0.020   4.896   9.983  1.9868  1.4733  0.3905
  178SLPC   C3720352   0.089   5.072   9.879  0.0635  0.8250 -0.1440
  178SLPC   H7X20353   0.190   5.066   9.927  0.0230 -0.5673 -0.2107
  178SLPC   H7Y20354   0.063   5.179   9.864 -1.8061  0.2701 -1.0167
  178SLPC   C3820355   0.101   5.006   9.742 -0.1830 -0.1645  0.3205
  178SLPC   H8X20356   0.004   4.999   9.686  0.1977  1.1417 -0.5309
  178SLPC   H8Y20357   0.127   4.900   9.758 -1.3676 -0.5377 -0.1477
  178SLPC   C3920358   0.219   5.073   9.663  0.3487  0.1598  0.2112
  178SLPC   H9X20359   0.315   5.047   9.712  0.5303 -0.0813 -0.2672
  178SLPC   H9Y20360   0.203   5.182   9.649  2.8240  0.5154 -0.0999
  178SLPC  C31020361   0.218   5.002   9.524  0.1197 -0.5168  0.3155
  178SLPC  H10X20362   0.109   4.997   9.501  0.6920  1.6356 -3.3841
  178SLPC  H10Y20363   0.263   4.901   9.535  1.8883  0.1000 -1.0655
  178SLPC  C31120364   0.280   5.089   9.415 -0.1770 -0.1128 -0.0648
  178SLPC  H11X20365   0.383   5.119   9.444 -0.1109  2.8207 -3.1032
  178SLPC  H11Y20366   0.231   5.188   9.410  2.8550  1.3647 -2.9449
  178SLPC  C31220367   0.272   5.040   9.265  0.4242  0.1723 -0.3441
  178SLPC  H12X20368   0.266   5.126   9.196 -0.0321 -0.0525 -0.5876
  178SLPC  H12Y20369   0.174   4.989   9.256 -0.2847  1.5637 -0.5161
  178SLPC  C31320370   0.392   4.942   9.245 -0.1938  0.2906 -0.1513
  178SLPC  H13X20371   0.374   4.842   9.289  1.2774  0.9498  2.0389
  178SLPC  H13Y20372   0.483   4.969   9.302 -0.6990 -1.3541  1.4720
  178SLPC  C31420373   0.403   4.911   9.090 -0.0175  0.1513 -0.2969
  178SLPC  H14X20374   0.473   4.826   9.076 -0.4341 -0.4585  1.2164
  178SLPC  H14Y20375   0.448   4.995   9.033 -1.0167 -0.9187 -2.7407
  178SLPC  C31520376   0.271   4.864   9.025 -0.2389 -0.0715  0.3714
  178SLPC  H15X20377   0.234   4.782   9.091  0.0726  0.1812  0.8694
  178SLPC  H15Y20378   0.199   4.948   9.038 -0.3564 -0.3290  1.4787
  178SLPC  C31620379   0.290   4.825   8.876 -0.3407  0.4080 -0.0854
  178SLPC  H16X20380   0.315   4.913   8.813 -0.7401 -0.3994 -1.3841
  178SLPC  H16Y20381   0.198   4.785   8.826  0.8756  0.0904 -2.1342
  178SLPC  C31720382   0.411   4.735   8.849  0.4709 -0.0745  0.1186
  178SLPC  H17X20383   0.403   4.652   8.922  0.0168 -1.4347 -1.4757
  178SLPC  H17Y20384   0.498   4.802   8.870  1.3989 -0.5253 -2.1939
  178SLPC  C31820385   0.420   4.681   8.706 -0.3192  0.1309  0.6706
  178SLPC  H18X20386   0.500   4.604   8.706  2.2139  2.6703  0.1569
  178SLPC  H18Y20387   0.448   4.763   8.636  1.6893 -1.8911 -0.9410
  178SLPC  H18Z20388   0.332   4.625   8.669  2.0721 -1.8252 -2.2776
  179SLPC     N20389   1.222   1.959  10.887 -0.2066 -0.6712 -0.0309
  179SLPC   C1320390   1.332   1.974  10.990 -0.1853 -0.2799  0.1314
  179SLPC  H13A20391   1.369   2.075  10.979 -0.3697  0.3056  4.0068
  179SLPC  H13B20392   1.288   1.960  11.088  1.1827  0.9000  0.9270
  179SLPC  H13C20393   1.409   1.899  10.981  0.4518  0.6160 -2.1223
  179SLPC   C1420394   1.112   2.041  10.936  0.5398 -0.3320  0.4686
  179SLPC  H14A20395   1.031   2.009  10.872 -1.5252  0.2486  2.7267
  179SLPC  H14B20396   1.084   2.015  11.037  1.0491  0.4645  0.8159
  179SLPC  H14C20397   1.129   2.148  10.937 -1.7171  0.0995 -2.1688
  179SLPC   C1520398   1.183   1.815  10.872  0.2395 -0.3094  0.1245
  179SLPC  H15A20399   1.187   1.760  10.965 -1.3584  0.3490  0.5954
  179SLPC  H15B20400   1.096   1.810  10.809  0.6380 -0.6393 -0.4094
  179SLPC  H15C20401   1.252   1.765  10.806  0.3411  0.7308 -0.5648
  179SLPC   C1220402   1.273   2.008  10.751  0.0485  0.8668 -0.2770
  179SLPC  H12A20403   1.373   1.975  10.726 -1.5074 -3.1732 -1.6668
  179SLPC  H12B20404   1.281   2.115  10.760  0.9331  0.6551  1.6273
  179SLPC   C1120405   1.192   1.980  10.622 -0.4952  0.0677 -0.1871
  179SLPC  H11A20406   1.215   2.050  10.539  0.9879  0.0191  0.1559
  179SLPC  H11B20407   1.088   2.007  10.651 -0.0133  0.6607  1.0768
  179SLPC     P20408   1.326   1.785  10.521  0.0679 -0.2379 -0.6492
  179SLPC   O1320409   1.453   1.831  10.595  0.2114  0.0405 -0.0865
  179SLPC   O1420410   1.299   1.638  10.523  0.1031  0.5729 -0.0139
  179SLPC   O1220411   1.188   1.850  10.582 -0.5726 -0.2117  0.3108
  179SLPC   O1120412   1.328   1.840  10.376  0.3565 -0.0139  0.6099
  179SLPC    C120413   1.205   1.835  10.308 -0.5225  0.2813 -0.7347
  179SLPC    HA20414   1.169   1.735  10.277 -1.3508  0.4921 -0.4740
  179SLPC    HB20415   1.133   1.894  10.370 -0.4799  0.5304 -0.9201
  179SLPC    C220416   1.222   1.907  10.175 -0.6680  0.8934  0.1923
  179SLPC    HS20417   1.130   1.903  10.113 -0.3464  0.3128 -0.2583
  179SLPC   O2120418   1.345   1.864  10.107 -0.1017 -0.7343 -0.3043
  179SLPC   C2120419   1.358   1.742  10.069  0.8658 -0.2568 -0.4355
  179SLPC   O2220420   1.268   1.655  10.076 -0.6412  0.1793  0.2748
  179SLPC   C2220421   1.498   1.712  10.011  0.0092 -0.1000 -0.1643
  179SLPC   H2R20422   1.565   1.728  10.098 -1.5089 -1.2701  1.2608
  179SLPC   H2S20423   1.486   1.604   9.985 -0.7927  0.1733 -0.9601
  179SLPC    C320424   1.228   2.061  10.203 -0.5280 -0.6419  0.6812
  179SLPC    HX20425   1.313   2.095  10.267 -1.3243  0.9010  0.9567
  179SLPC    HY20426   1.135   2.088  10.257  0.0578  1.3866  0.7490
  179SLPC   O3120427   1.228   2.132  10.077 -0.0847  0.3489  0.2771
  179SLPC   C3120428   1.351   2.175  10.033 -0.7318 -0.8052  0.1122
  179SLPC   O3220429   1.457   2.130  10.075  0.1799  0.2149  0.3894
  179SLPC   C3220430   1.331   2.279   9.925 -0.3765 -0.7749 -0.1434
  179SLPC   H2X20431   1.286   2.375   9.957  1.9317  0.3585 -0.1868
  179SLPC   H2Y20432   1.278   2.236   9.837 -2.7455  1.2295  0.2716
  179SLPC   C2320433   1.522   1.795   9.890 -1.1138 -0.3573  0.3112
  179SLPC   H3R20434   1.626   1.776   9.856 -0.8042  1.0862  0.4126
  179SLPC   H3S20435   1.499   1.900   9.916 -1.0828 -0.2352 -0.1484
  179SLPC   C2420436   1.446   1.754   9.763  0.3568  0.0373  0.5384
  179SLPC   H4R20437   1.341   1.730   9.787  0.0158 -0.6666 -1.5822
  179SLPC   H4S20438   1.490   1.658   9.730  1.8202  1.1738 -0.9141
  179SLPC   C2520439   1.460   1.860   9.648 -0.2993 -0.4185  0.6804
  179SLPC   H5R20440   1.554   1.918   9.654 -0.1818 -0.2549 -2.1621
  179SLPC   H5S20441   1.380   1.934   9.667  2.6827  2.6401  1.8626
  179SLPC   C2620442   1.426   1.797   9.512  0.0485  0.2855 -1.0046
  179SLPC   H6R20443   1.320   1.765   9.505  0.4919 -1.3076 -0.4211
  179SLPC   H6S20444   1.479   1.700   9.511 -1.1942 -0.4392  0.5789
  179SLPC   C2720445   1.455   1.892   9.392 -0.0740 -0.4086  0.0007
  179SLPC   H7R20446   1.563   1.881   9.369  0.2984  3.2427 -0.3182
  179SLPC   H7S20447   1.445   1.998   9.423 -0.4749  0.1070 -1.8262
  179SLPC   C2820448   1.365   1.866   9.268  0.9164  0.1853  0.3760
  179SLPC   H8R20449   1.361   1.954   9.200 -1.0295  0.7870  1.2436
  179SLPC   H8S20450   1.262   1.869   9.309  0.5097  0.9074 -0.6704
  179SLPC   C2920451   1.385   1.735   9.202  0.4811  0.6861 -0.4115
  179SLPC   H9R20452   1.384   1.648   9.270 -1.2833  0.6328 -0.4957
  179SLPC  C21020453   1.393   1.712   9.070  0.1409 -0.4224  1.2069
  179SLPC  H10R20454   1.399   1.608   9.036 -3.0311 -0.7661  1.5225
  179SLPC  C21120455   1.365   1.825   8.976 -0.0981  0.0399  0.0252
  179SLPC  H11R20456   1.457   1.888   8.985 -0.4437  0.4240  0.9307
  179SLPC  H11S20457   1.282   1.892   9.006  1.0496  0.9294  1.2968
  179SLPC  C21220458   1.320   1.789   8.831 -0.1371  0.1266  0.3459
  179SLPC  H12R20459   1.213   1.770   8.815  0.0181 -0.2512 -0.2428
  179SLPC  C21320460   1.404   1.766   8.732 -0.3003  0.2505  0.0977
  179SLPC  H13R20461   1.355   1.722   8.644 -0.4135 -1.0149  0.7834
  179SLPC  C21420462   1.552   1.763   8.737  0.9578 -0.1185 -0.3509
  179SLPC  H14R20463   1.590   1.667   8.696  0.6975 -0.0996 -0.6333
  179SLPC  H14S20464   1.592   1.770   8.840 -0.6828  0.9919  0.2227
  179SLPC  C21520465   1.627   1.879   8.675  0.5005 -0.6899  0.2505
  179SLPC  H15R20466   1.733   1.875   8.706  0.4342 -0.7739  0.4700
  179SLPC  H15S20467   1.577   1.975   8.701  2.0422  0.9122 -2.4607
  179SLPC  C21620468   1.619   1.880   8.520  0.8075 -0.7133  0.1692
  179SLPC  H16R20469   1.515   1.880   8.481  0.0301 -1.8271  2.1524
  179SLPC  H16S20470   1.660   1.781   8.489 -1.0400 -1.3075 -0.4104
  179SLPC  C21720471   1.707   1.990   8.453  0.1999  0.2727 -0.1769
  179SLPC  H17R20472   1.669   2.090   8.484  0.8340  1.3622 -2.8198
  179SLPC  H17S20473   1.686   1.992   8.344 -1.3359 -0.2306  0.0974
  179SLPC  C21820474   1.860   1.977   8.453 -0.6030  0.4314  0.0417
  179SLPC  H18R20475   1.886   1.870   8.438  1.5761  1.0827 -0.9767
  179SLPC  H18S20476   1.903   2.014   8.548 -2.0191  0.8927  0.5228
  179SLPC  H18T20477   1.902   2.043   8.374 -0.8396  0.4389 -0.0802
  179SLPC   C3320478   1.468   2.333   9.866 -0.3217 -0.0115 -0.1695
  179SLPC   H3X20479   1.535   2.251   9.833 -0.6088 -1.0623  1.7882
  179SLPC   H3Y20480   1.507   2.399   9.946  0.2754 -0.2983 -0.2241
  179SLPC   C3420481   1.443   2.416   9.733  0.4245 -0.6395 -0.0294
  179SLPC   H4X20482   1.538   2.468   9.707 -0.5171  1.7354  1.1301
  179SLPC   H4Y20483   1.365   2.490   9.760  0.5734 -0.9222  1.1911
  179SLPC   C3520484   1.420   2.335   9.610 -0.0547 -0.5004  0.2391
  179SLPC   H5X20485   1.354   2.249   9.636 -1.9305  0.3863 -1.4037
  179SLPC   H5Y20486   1.512   2.281   9.577 -0.6251 -1.2821 -0.0961
  179SLPC   C3620487   1.360   2.421   9.486 -0.5385  0.1372 -0.1351
  179SLPC   H6X20488   1.262   2.455   9.525 -1.6222 -1.6362 -1.2494
  179SLPC   H6Y20489   1.344   2.347   9.405  0.3475  0.1437 -0.3220
  179SLPC   C3720490   1.445   2.533   9.438  0.2270 -0.0717  0.1216
  179SLPC   H7X20491   1.548   2.497   9.421 -0.8987 -3.3895 -0.0989
  179SLPC   H7Y20492   1.461   2.624   9.499  1.4076  0.6977 -1.3120
  179SLPC   C3820493   1.399   2.589   9.303  0.3617  0.5734 -0.4386
  179SLPC   H8X20494   1.484   2.659   9.286  0.5902  0.6284  0.8569
  179SLPC   H8Y20495   1.311   2.653   9.324  0.2019  0.3432 -0.4148
  179SLPC   C3920496   1.377   2.487   9.189 -0.3572 -0.2717 -0.2942
  179SLPC   H9X20497   1.284   2.428   9.205 -0.8985  0.5070 -0.5700
  179SLPC   H9Y20498   1.459   2.412   9.190 -0.7500 -0.7022  0.4593
  179SLPC  C31020499   1.378   2.561   9.059 -1.1166  0.1266 -0.1787
  179SLPC  H10X20500   1.470   2.623   9.052 -0.7537 -0.5669 -2.1850
  179SLPC  H10Y20501   1.293   2.631   9.073 -0.9140  0.2313  0.5063
  179SLPC  C31120502   1.368   2.472   8.932  0.7817  0.0944  0.1589
  179SLPC  H11X20503   1.445   2.392   8.923  1.2645  0.7088 -1.4839
  179SLPC  H11Y20504   1.383   2.536   8.842  3.8433 -1.2217 -0.3490
  179SLPC  C31220505   1.232   2.407   8.916  0.1117  0.9342  0.6623
  179SLPC  H12X20506   1.155   2.486   8.930 -0.2995  0.4346  1.3179
  179SLPC  H12Y20507   1.224   2.332   8.998  0.8490  2.4232  2.1239
  179SLPC  C31320508   1.209   2.352   8.766  0.3786 -0.6756 -0.1074
  179SLPC  H13X20509   1.214   2.415   8.675  0.1479 -2.6659 -1.5447
  179SLPC  H13Y20510   1.101   2.323   8.764  0.6259 -1.5451 -1.7948
  179SLPC  C31420511   1.319   2.252   8.740  0.7383 -0.3883 -0.0035
  179SLPC  H14X20512   1.339   2.199   8.836  1.0520 -0.3201 -0.0313
  179SLPC  H14Y20513   1.407   2.310   8.704  0.2433  0.2065 -0.2578
  179SLPC  C31520514   1.274   2.146   8.632 -0.2492  0.1100  0.0765
  179SLPC  H15X20515   1.171   2.118   8.663 -0.3981 -2.0206 -2.1604
  179SLPC  H15Y20516   1.343   2.061   8.649 -1.4249 -1.5187 -2.9629
  179SLPC  C31620517   1.265   2.213   8.496  0.2468  0.2485 -0.2247
  179SLPC  H16X20518   1.368   2.250   8.478  0.5907 -2.1201 -3.6154
  179SLPC  H16Y20519   1.195   2.299   8.504  1.4874  1.2709 -0.4123
  179SLPC  C31720520   1.225   2.098   8.398  0.2188 -0.5365 -0.1234
  179SLPC  H17X20521   1.115   2.078   8.401  0.0987  0.0254 -0.6799
  179SLPC  H17Y20522   1.272   2.001   8.423  0.4276 -0.1858  0.8559
  179SLPC  C31820523   1.261   2.132   8.251  0.7803 -0.1475  0.3780
  179SLPC  H18X20524   1.217   2.229   8.219 -1.1539 -1.3886 -0.8462
  179SLPC  H18Y20525   1.233   2.050   8.181 -0.8927  1.1994 -0.5498
  179SLPC  H18Z20526   1.371   2.140   8.248  0.8177 -0.0906  1.4659
  180SLPC     N20527   2.655   5.980  10.988 -0.2936  0.3988 -0.4993
  180SLPC   C1320528   2.734   5.901  11.094  0.1426  0.2037 -0.1216
  180SLPC  H13A20529   2.674   5.825  11.142  1.6024 -0.7802  0.1822
  180SLPC  H13B20530   2.815   5.847  11.049  0.5153 -0.1864  0.9953
  180SLPC  H13C20531   2.792   5.962  11.161 -0.7267  2.1604 -1.1116
  180SLPC   C1420532   2.756   6.081  10.942 -0.5110  0.9654 -0.1473
  180SLPC  H14A20533   2.841   6.031  10.897 -2.5201 -0.8097 -2.0709
  180SLPC  H14B20534   2.724   6.153  10.868  0.7037  1.1419 -0.5150
  180SLPC  H14C20535   2.793   6.133  11.029 -2.1470 -1.5237  2.1107
  180SLPC   C1520536   2.534   6.035  11.057 -0.1097  0.2779  0.4421
  180SLPC  H15A20537   2.466   5.959  11.090  0.5121 -0.5758 -0.2270
  180SLPC  H15B20538   2.572   6.102  11.133  0.2330 -0.7082  1.1514
  180SLPC  H15C20539   2.485   6.098  10.984  2.6340  0.0527 -1.6967
  180SLPC   C1220540   2.608   5.896  10.878  0.0144 -0.6646 -0.1641
  180SLPC  H12A20541   2.518   5.846  10.912 -0.7734  1.2605  0.6514
  180SLPC  H12B20542   2.675   5.817  10.847  0.8014  0.4535 -1.3383
  180SLPC   C1120543   2.558   5.973  10.749  1.2662  0.3193 -0.4385
  180SLPC  H11A20544   2.522   5.884  10.692  1.1286  0.4462 -0.5484
  180SLPC  H11B20545   2.645   6.030  10.711  0.8863  1.7943  0.8463
  180SLPC     P20546   2.425   6.197  10.743  0.1347  0.2911  0.2222
  180SLPC   O1320547   2.431   6.271  10.873 -0.4594 -0.2483  0.3952
  180SLPC   O1420548   2.529   6.222  10.639  0.1630  0.0024  0.4113
  180SLPC   O1220549   2.439   6.044  10.782 -0.6260 -0.1906  0.0735
  180SLPC   O1120550   2.281   6.200  10.677  0.2961  0.5836  0.3741
  180SLPC    C120551   2.176   6.104  10.712  0.7407  0.6250  0.1091
  180SLPC    HA20552   2.200   6.054  10.808  0.4032 -1.5631 -0.9047
  180SLPC    HB20553   2.087   6.166  10.735  0.3264 -0.0856  0.4281
  180SLPC    C220554   2.152   5.991  10.603  0.1189 -0.4074  0.7711
  180SLPC    HS20555   2.243   5.927  10.596 -0.4329 -1.1343  0.1317
  180SLPC   O2120556   2.122   6.056  10.476  0.3867  0.2807 -0.4235
  180SLPC   C2120557   2.226   6.101  10.406  0.5288  0.1893 -0.1655
  180SLPC   O2220558   2.337   6.058  10.400  0.1418 -0.2115 -0.2586
  180SLPC   C2220559   2.179   6.216  10.320 -0.1215  0.1465  0.3267
  180SLPC   H2R20560   2.069   6.209  10.316 -0.2314  1.6410  0.3783
  180SLPC   H2S20561   2.206   6.313  10.368  0.4839 -0.7869  1.9222
  180SLPC    C320562   2.026   5.909  10.646 -1.1083 -0.3139  0.2465
  180SLPC    HX20563   1.943   5.978  10.621 -1.6436 -1.0733 -0.0518
  180SLPC    HY20564   2.030   5.897  10.756 -0.0496  0.1656  0.2702
  180SLPC   O3120565   2.022   5.788  10.580 -0.4317  0.6634 -1.2768
  180SLPC   C3120566   2.117   5.700  10.617  0.0060  0.1627 -0.0400
  180SLPC   O3220567   2.197   5.724  10.709  0.0042  0.0582  0.3021
  180SLPC   C3220568   2.111   5.575  10.530 -0.1375 -0.5726 -0.5641
  180SLPC   H2X20569   2.078   5.614  10.432 -1.6796 -0.4480 -0.0034
  180SLPC   H2Y20570   2.031   5.509  10.570 -0.2460  0.6944  1.3763
  180SLPC   C2320571   2.254   6.201  10.178  0.2425 -0.2895  0.0938
  180SLPC   H3R20572   2.227   6.102  10.135  0.0921 -0.4420  0.5366
  180SLPC   H3S20573   2.364   6.207  10.193  0.5640  1.4997 -2.5399
  180SLPC   C2420574   2.200   6.315  10.089 -0.4834  0.2727 -0.0671
  180SLPC   H4R20575   2.240   6.409  10.133  1.1270  0.0067 -0.9227
  180SLPC   H4S20576   2.090   6.331  10.086 -0.4064  0.5331 -2.2053
  180SLPC   C2520577   2.261   6.310   9.946 -0.7140 -0.3794 -0.1666
  180SLPC   H5R20578   2.371   6.325   9.934 -1.2920  1.5233 -3.5113
  180SLPC   H5S20579   2.229   6.403   9.894 -0.5406 -0.4366 -0.3738
  180SLPC   C2620580   2.220   6.185   9.867  0.5749 -0.6359  1.1538
  180SLPC   H6R20581   2.112   6.199   9.888  1.0710  2.9266  1.7671
  180SLPC   H6S20582   2.261   6.090   9.909  0.3161 -0.8960  0.8070
  180SLPC   C2720583   2.250   6.188   9.717  0.7020  0.3632 -0.3071
  180SLPC   H7R20584   2.358   6.201   9.696  1.2988  0.9344  2.8131
  180SLPC   H7S20585   2.198   6.270   9.663  0.2410  1.0243  1.1224
  180SLPC   C2820586   2.221   6.054   9.654 -0.6442  0.3181 -0.3991
  180SLPC   H8R20587   2.111   6.041   9.659 -0.6886  1.0865  1.1048
  180SLPC   H8S20588   2.276   5.974   9.710 -1.3455 -0.3463 -0.6595
  180SLPC   C2920589   2.263   6.055   9.511 -0.4886  0.1722  0.3086
  180SLPC   H9R20590   2.360   6.102   9.491  0.0307 -0.7785  0.5687
  180SLPC  C21020591   2.192   6.008   9.406  0.7288 -0.1293  0.4999
  180SLPC  H10R20592   2.222   6.033   9.303  2.0778  1.9439  1.3555
  180SLPC  C21120593   2.068   5.924   9.421 -0.0984  0.7852  0.0055
  180SLPC  H11R20594   2.011   5.932   9.327  0.1962 -4.2374 -0.7265
  180SLPC  H11S20595   2.001   5.975   9.494  0.4048  0.9237  0.3743
  180SLPC  C21220596   2.098   5.777   9.456  0.2102 -0.2529  0.1865
  180SLPC  H12R20597   2.107   5.756   9.563  0.9985 -0.6607  0.0420
  180SLPC  C21320598   2.106   5.676   9.368 -0.2774  0.4443  0.3482
  180SLPC  H13R20599   2.122   5.574   9.405  1.3202  0.2715 -0.7660
  180SLPC  C21420600   2.100   5.677   9.216  0.2776  0.0631  0.0788
  180SLPC  H14R20601   2.062   5.776   9.184  2.0060  0.3101 -1.3171
  180SLPC  H14S20602   2.031   5.595   9.187 -1.1999  1.4609 -0.4275
  180SLPC  C21520603   2.238   5.650   9.157  0.6423 -0.3825  0.2676
  180SLPC  H15R20604   2.273   5.547   9.181 -0.6586 -0.7718  0.5852
  180SLPC  H15S20605   2.309   5.724   9.200  0.9700 -1.3723  1.4492
  180SLPC  C21620606   2.242   5.670   9.006 -0.4853 -0.2747  0.1052
  180SLPC  H16R20607   2.199   5.766   8.970 -0.4009 -0.2469  0.0779
  180SLPC  H16S20608   2.178   5.586   8.971 -0.2585 -0.1520 -0.6131
  180SLPC  C21720609   2.382   5.643   8.946 -0.2485  1.1444  0.4813
  180SLPC  H17R20610   2.401   5.534   8.949  0.5325  1.1340 -2.9191
  180SLPC  H17S20611   2.465   5.691   9.002  1.0532 -0.4576 -0.0361
  180SLPC  C21820612   2.393   5.676   8.796 -0.1113  0.1495 -0.0434
  180SLPC  H18R20613   2.364   5.782   8.778  0.3345 -0.1252 -2.5591
  180SLPC  H18S20614   2.320   5.611   8.744  1.6558 -1.2666 -0.8012
  180SLPC  H18T20615   2.496   5.652   8.761 -0.3649 -0.1492 -0.5887
  180SLPC   C3320616   2.238   5.491  10.538  0.3263  0.0209  0.0487
  180SLPC   H3X20617   2.232   5.399  10.476  0.8938  0.0293 -0.0164
  180SLPC   H3Y20618   2.266   5.457  10.640  0.2221 -1.2429 -0.3323
  180SLPC   C3420619   2.362   5.570  10.488 -0.1954 -1.0706  0.4523
  180SLPC   H4X20620   2.442   5.498  10.459 -0.2956 -0.0207 -2.6551
  180SLPC   H4Y20621   2.399   5.638  10.568  1.8859  0.8098 -2.0185
  180SLPC   C3520622   2.342   5.656  10.360  0.6222  0.1931 -0.4906
  180SLPC   H5X20623   2.274   5.742  10.382  0.6865 -0.2325  1.4960
  180SLPC   H5Y20624   2.310   5.590  10.277  1.8961 -1.2113  0.1261
  180SLPC   C3620625   2.467   5.727  10.304  0.1377  0.3942 -0.7141
  180SLPC   H6X20626   2.543   5.651  10.277  1.4929  1.3462  0.3897
  180SLPC   H6Y20627   2.511   5.789  10.385  1.0435 -2.1254  0.7898
  180SLPC   C3720628   2.440   5.799  10.174  0.1380 -0.2273 -0.0826
  180SLPC   H7X20629   2.362   5.875  10.194  2.1813  1.9520 -0.1611
  180SLPC   H7Y20630   2.393   5.732  10.099 -0.2776  1.4413 -1.3443
  180SLPC   C3820631   2.559   5.867  10.115 -0.0579  0.2085  0.7535
  180SLPC   H8X20632   2.642   5.794  10.102  0.0748  0.3728  0.6710
  180SLPC   H8Y20633   2.598   5.940  10.189  0.3737  0.8512 -0.1099
  180SLPC   C3920634   2.537   5.922   9.972 -0.0502  0.2081 -0.4918
  180SLPC   H9X20635   2.447   5.987   9.976  0.5417  1.3012 -3.3397
  180SLPC   H9Y20636   2.517   5.830   9.912 -1.2879 -1.2924  2.1276
  180SLPC  C31020637   2.657   5.989   9.920 -0.2372  0.0432  0.3640
  180SLPC  H10X20638   2.743   5.922   9.902  0.2324  1.0909 -1.4542
  180SLPC  H10Y20639   2.692   6.061   9.997 -2.4217  0.6061  0.8539
  180SLPC  C31120640   2.636   6.075   9.794 -0.2864  0.0061  0.4633
  180SLPC  H11X20641   2.708   6.159   9.792 -1.2736  0.8296 -2.8181
  180SLPC  H11Y20642   2.536   6.122   9.800 -0.5104 -0.3047 -0.6151
  180SLPC  C31220643   2.667   5.985   9.669  0.6351 -0.4612  1.4014
  180SLPC  H12X20644   2.598   5.899   9.680 -1.3377  0.7942 -0.8210
  180SLPC  H12Y20645   2.768   5.939   9.680  1.3699  0.7660  0.0376
  180SLPC  C31320646   2.658   6.063   9.530 -0.2452 -0.1361 -0.0550
  180SLPC  H13X20647   2.752   6.120   9.525 -1.0780  1.2411 -0.2917
  180SLPC  H13Y20648   2.579   6.141   9.527  0.5259  0.7178  1.2677
  180SLPC  C31420649   2.643   5.968   9.415  0.2971 -0.2771  0.7783
  180SLPC  H14X20650   2.541   5.923   9.424  1.0845 -1.9884  1.3846
  180SLPC  H14Y20651   2.717   5.885   9.415  0.1607 -0.4070 -0.7934
  180SLPC  C31520652   2.670   6.044   9.277 -0.4087  0.5045 -0.4488
  180SLPC  H15X20653   2.773   6.086   9.279  0.1243 -0.7330  3.0176
  180SLPC  H15Y20654   2.604   6.133   9.279 -0.8515  0.2266 -2.3089
  180SLPC  C31620655   2.652   5.956   9.155  0.5991 -0.0851 -0.0299
  180SLPC  H16X20656   2.555   5.903   9.162  0.7082 -0.2582  0.1754
  180SLPC  H16Y20657   2.730   5.878   9.139  1.4842  0.8414 -0.3199
  180SLPC  C31720658   2.655   6.042   9.024  0.1601 -0.3128 -0.5891
  180SLPC  H17X20659   2.756   6.083   9.004  0.6276 -2.0082 -1.7347
  180SLPC  H17Y20660   2.597   6.134   9.048  1.0927  0.4766 -1.3563
  180SLPC  C31820661   2.607   5.975   8.893  0.3921  1.2525 -0.6714
  180SLPC  H18X20662   2.593   6.044   8.806  0.2012 -1.0254 -2.5007
  180SLPC  H18Y20663   2.504   5.937   8.911  0.8985  0.0757 -0.2030
  180SLPC  H18Z20664   2.683   5.898   8.866  0.4377  1.1913 -0.3636
  181SLPC     N20665   6.209   4.419  11.243 -0.1411  1.1875  0.0957
  181SLPC   C1320666   6.232   4.457  11.105  0.2848 -0.1710 -0.4324
  181SLPC  H13A20667   6.254   4.561  11.085  0.8712  0.5571  3.6388
  181SLPC  H13B20668   6.314   4.401  11.061  0.4583 -1.2391  1.2014
  181SLPC  H13C20669   6.143   4.432  11.050  0.5353  0.6267 -1.2213
  181SLPC   C1420670   6.092   4.490  11.312 -0.1112 -0.1632 -0.1833
  181SLPC  H14A20671   6.085   4.455  11.414 -0.8506 -0.1325 -0.2215
  181SLPC  H14B20672   6.102   4.597  11.312  0.2751 -0.1939 -0.9388
  181SLPC  H14C20673   5.999   4.460  11.265 -0.7144 -0.1812  1.0196
  181SLPC   C1520674   6.330   4.453  11.324  0.1594  0.4745 -0.0203
  181SLPC  H15A20675   6.350   4.559  11.330 -1.9562  0.8617  0.7801
  181SLPC  H15B20676   6.319   4.412  11.423 -0.7612 -0.4432 -0.4891
  181SLPC  H15C20677   6.424   4.410  11.291  1.1269  2.8036 -0.4086
  181SLPC   C1220678   6.169   4.277  11.253  0.0893  0.6895  0.0509
  181SLPC  H12A20679   6.140   4.257  11.355  0.4197  2.0563  0.4161
  181SLPC  H12B20680   6.252   4.208  11.241  0.8153  1.2106  1.9286
  181SLPC   C1120681   6.055   4.222  11.172 -0.2837 -0.5241 -0.2535
  181SLPC  H11A20682   6.055   4.111  11.165 -1.0441 -0.5267 -0.2773
  181SLPC  H11B20683   6.065   4.261  11.068 -2.3887  0.4456 -0.1273
  181SLPC     P20684   5.806   4.285  11.147 -0.2129  0.2664 -0.4287
  181SLPC   O1320685   5.687   4.262  11.230 -0.1316 -0.5071 -0.2354
  181SLPC   O1420686   5.818   4.422  11.095  0.1230  0.3257  0.2558
  181SLPC   O1220687   5.934   4.264  11.236 -0.8635 -0.2608 -0.3707
  181SLPC   O1120688   5.815   4.171  11.045  0.1628 -0.4239  0.5155
  181SLPC    C120689   5.842   4.197  10.904 -0.1785  0.3371  0.3482
  181SLPC    HA20690   5.807   4.295  10.867  0.5295  0.8229  0.9573
  181SLPC    HB20691   5.951   4.206  10.885  0.0770 -0.8612  1.1939
  181SLPC    C220692   5.782   4.084  10.819 -0.2072  0.0374 -0.7914
  181SLPC    HS20693   5.836   3.989  10.840  0.0457  0.3495  0.0156
  181SLPC   O2120694   5.794   4.136  10.678 -0.5306  0.8964  0.1181
  181SLPC   C2120695   5.817   4.049  10.581  0.3173  0.0827 -0.9089
  181SLPC   O2220696   5.857   3.939  10.595 -0.3774  0.7582  0.2722
  181SLPC   C2220697   5.812   4.137  10.448 -0.5926  0.8625 -0.2415
  181SLPC   H2R20698   5.709   4.162  10.414 -0.0419  0.4077 -2.2814
  181SLPC   H2S20699   5.869   4.231  10.464 -2.2906  1.9200 -0.2667
  181SLPC    C320700   5.637   4.063  10.852  0.4917  0.0468  1.1550
  181SLPC    HX20701   5.584   4.161  10.858 -0.6279 -0.5197  0.6976
  181SLPC    HY20702   5.609   4.030  10.955 -0.2418  0.0198  0.9513
  181SLPC   O3120703   5.577   3.984  10.745  0.3047  0.4831 -0.3147
  181SLPC   C3120704   5.581   3.847  10.770  0.2808 -0.3143  0.0943
  181SLPC   O3220705   5.628   3.800  10.872 -0.1496 -0.1054  0.2583
  181SLPC   C3220706   5.530   3.761  10.652 -0.1182 -0.4113 -0.0401
  181SLPC   H2X20707   5.420   3.751  10.667 -0.2594  1.6197  0.3622
  181SLPC   H2Y20708   5.580   3.662  10.663  2.3110  0.6616 -1.0910
  181SLPC   C2320709   5.873   4.070  10.323 -0.1429  0.1380 -0.6515
  181SLPC   H3R20710   5.855   3.962  10.346 -2.4659  0.7847  0.6774
  181SLPC   H3S20711   5.983   4.081  10.324 -0.1798  0.4320 -0.0273
  181SLPC   C2420712   5.809   4.109  10.191  0.3666  0.0694 -0.1242
  181SLPC   H4R20713   5.809   4.217  10.166 -2.9015  0.4809  1.3883
  181SLPC   H4S20714   5.702   4.078  10.200  0.5464  0.0131  1.9330
  181SLPC   C2520715   5.867   4.030  10.070  0.5187  0.0522  0.2011
  181SLPC   H5R20716   5.863   3.920  10.083  1.4022  0.0429  0.4793
  181SLPC   H5S20717   5.972   4.057  10.043  0.4262  0.1995 -0.0138
  181SLPC   C2620718   5.785   4.059   9.946 -0.7438 -0.5162 -0.0386
  181SLPC   H6R20719   5.798   4.167   9.923 -1.4098 -0.1299  1.3602
  181SLPC   H6S20720   5.677   4.038   9.963 -0.6720 -0.3453  0.6330
  181SLPC   C2720721   5.821   3.980   9.823  0.1185 -0.0423 -0.3282
  181SLPC   H7R20722   5.792   3.873   9.824 -1.8036  0.4351 -2.0203
  181SLPC   H7S20723   5.932   3.991   9.815  0.3589 -1.2008  1.2602
  181SLPC   C2820724   5.753   4.050   9.708 -0.1567 -0.0100  0.1698
  181SLPC   H8R20725   5.772   4.158   9.725 -1.8644  0.4382 -0.6882
  181SLPC   H8S20726   5.644   4.031   9.715 -0.2040  0.7176  1.5581
  181SLPC   C2920727   5.810   4.016   9.573  0.1158 -0.1392  0.3852
  181SLPC   H9R20728   5.918   3.994   9.565 -0.2879 -2.1939  0.1996
  181SLPC  C21020729   5.730   4.011   9.466  0.3516 -0.5045 -0.1950
  181SLPC  H10R20730   5.777   3.974   9.374 -1.2196 -0.6614 -0.9590
  181SLPC  C21120731   5.582   4.027   9.459 -0.4292 -0.8228  0.4046
  181SLPC  H11R20732   5.543   4.121   9.503 -0.1679  0.4419 -1.9628
  181SLPC  H11S20733   5.541   3.949   9.526  2.9576 -2.5832  0.5760
  181SLPC  C21220734   5.518   4.010   9.324 -0.1798  0.0083 -1.1888
  181SLPC  H12R20735   5.510   3.904   9.297  1.1554  0.0343 -1.6837
  181SLPC  C21320736   5.456   4.108   9.257 -0.0470  0.3255 -0.4806
  181SLPC  H13R20737   5.402   4.086   9.164 -1.9184  1.7584  0.2328
  181SLPC  C21420738   5.456   4.252   9.294 -0.3961 -0.2381 -0.1073
  181SLPC  H14R20739   5.434   4.265   9.402  2.4295 -0.9722  0.5910
  181SLPC  H14S20740   5.381   4.302   9.227 -1.0886  0.1842  0.9723
  181SLPC  C21520741   5.587   4.332   9.270 -0.1667  0.1201  0.0709
  181SLPC  H15R20742   5.665   4.299   9.342  0.2276  0.3561 -0.2462
  181SLPC  H15S20743   5.561   4.438   9.290  0.7164  0.2601  0.4897
  181SLPC  C21620744   5.647   4.318   9.126 -0.1687 -0.8224 -0.6367
  181SLPC  H16R20745   5.564   4.331   9.053 -0.3006 -0.0771 -0.3612
  181SLPC  H16S20746   5.702   4.221   9.127 -0.8250 -1.1918  0.7537
  181SLPC  C21720747   5.764   4.411   9.086  0.7880  0.6319 -0.2628
  181SLPC  H17R20748   5.730   4.517   9.084  2.0542  1.2076  3.5430
  181SLPC  H17S20749   5.818   4.378   8.995  1.8620 -1.2474  1.0291
  181SLPC  C21820750   5.870   4.406   9.203  0.3314  0.4780  1.3315
  181SLPC  H18R20751   5.951   4.479   9.182 -0.7724  0.6999 -2.5755
  181SLPC  H18S20752   5.921   4.307   9.213 -1.6580 -0.6716  0.4662
  181SLPC  H18T20753   5.818   4.437   9.296 -0.2971 -0.1486  1.1915
  181SLPC   C3320754   5.553   3.810  10.505  0.5275  0.3243 -0.5707
  181SLPC   H3X20755   5.662   3.823  10.484  1.3086 -2.9008  1.2485
  181SLPC   H3Y20756   5.496   3.904  10.492 -2.5724 -1.5008 -0.7417
  181SLPC   C3420757   5.496   3.715  10.405  0.0660  0.0457 -0.2696
  181SLPC   H4X20758   5.385   3.712  10.406 -0.0170  2.5894  2.9581
  181SLPC   H4Y20759   5.532   3.614  10.436  0.8061  0.3121 -0.2592
  181SLPC   C3520760   5.553   3.746  10.262 -0.0539 -0.7450 -1.1709
  181SLPC   H5X20761   5.591   3.850  10.255 -0.2094 -0.6552 -0.7076
  181SLPC   H5Y20762   5.460   3.732  10.202 -0.7746  1.6501 -0.6857
  181SLPC   C3620763   5.668   3.655  10.209 -0.0031  0.6996 -0.1276
  181SLPC   H6X20764   5.648   3.546  10.220  1.7165  0.3266 -0.6386
  181SLPC   H6Y20765   5.758   3.671  10.271 -1.2160 -0.0811  1.8870
  181SLPC   C3720766   5.695   3.674  10.064  0.0656 -0.1932  0.3878
  181SLPC   H7X20767   5.786   3.622  10.027 -0.4987  0.2090 -1.6135
  181SLPC   H7Y20768   5.702   3.783  10.047  1.0266 -0.5522 -1.6842
  181SLPC   C3820769   5.577   3.619   9.990  0.1789 -0.3217 -0.0718
  181SLPC   H8X20770   5.510   3.706   9.973 -2.0014 -2.0265 -0.4049
  181SLPC   H8Y20771   5.528   3.541  10.051  2.3235 -1.5710  0.0961
  181SLPC   C3920772   5.613   3.540   9.858 -1.0246 -0.3973 -0.2391
  181SLPC   H9X20773   5.522   3.484   9.829 -0.3784 -1.0128 -1.1431
  181SLPC   H9Y20774   5.684   3.459   9.887 -0.8605 -1.0248 -2.3245
  181SLPC  C31020775   5.673   3.629   9.753  0.1787  0.6733 -0.2330
  181SLPC  H10X20776   5.778   3.641   9.788 -0.4320  0.1720  1.8218
  181SLPC  H10Y20777   5.627   3.730   9.749  0.3338  0.7525  0.0044
  181SLPC  C31120778   5.672   3.567   9.612 -0.1478 -0.0491 -1.0260
  181SLPC  H11X20779   5.574   3.578   9.562 -0.2423  0.2267 -0.7805
  181SLPC  H11Y20780   5.708   3.463   9.625 -1.8443 -0.5076  0.1072
  181SLPC  C31220781   5.784   3.635   9.538 -0.2730 -0.3826 -0.6599
  181SLPC  H12X20782   5.867   3.660   9.606 -0.8762 -0.8145  0.2508
  181SLPC  H12Y20783   5.753   3.733   9.495 -1.3474 -0.1724  0.5567
  181SLPC  C31320784   5.843   3.559   9.422 -0.1514  0.0940 -0.0637
  181SLPC  H13X20785   5.897   3.466   9.451 -1.0113 -0.4254 -0.1006
  181SLPC  H13Y20786   5.926   3.619   9.378  0.0078  1.6421  2.2570
  181SLPC  C31420787   5.743   3.548   9.299 -0.4409 -0.0728 -0.0859
  181SLPC  H14X20788   5.719   3.654   9.275 -0.9527  0.3071  2.0055
  181SLPC  H14Y20789   5.655   3.484   9.318  1.6462 -2.5965  1.5200
  181SLPC  C31520790   5.808   3.499   9.166  0.0990 -0.4163  0.0317
  181SLPC  H15X20791   5.850   3.397   9.185  0.3400 -0.1900  0.7524
  181SLPC  H15Y20792   5.890   3.571   9.145  0.9020 -1.6876 -1.2794
  181SLPC  C31620793   5.713   3.504   9.048 -0.2929  0.0727 -0.2022
  181SLPC  H16X20794   5.677   3.608   9.035  0.3848  0.2246 -0.8586
  181SLPC  H16Y20795   5.633   3.430   9.070  1.4288 -1.8306 -0.1689
  181SLPC  C31720796   5.789   3.463   8.921 -0.8204 -0.5979 -0.0556
  181SLPC  H17X20797   5.778   3.352   8.911 -1.1214 -0.3787 -2.4679
  181SLPC  H17Y20798   5.893   3.503   8.918 -1.2870  0.6285 -0.1332
  181SLPC  C31820799   5.720   3.510   8.788  0.4860 -0.0602 -0.6294
  181SLPC  H18X20800   5.774   3.467   8.700  0.3542 -1.0789 -0.2235
  181SLPC  H18Y20801   5.719   3.618   8.762  0.6522  0.3709  1.0989
  181SLPC  H18Z20802   5.615   3.475   8.785 -0.1237  1.8140 -2.7555
  182SLPC     N20803   4.563   4.617  11.142 -0.2901  0.4223 -0.6639
  182SLPC   C1320804   4.432   4.611  11.223  0.1852 -0.1433 -0.7339
  182SLPC  H13A20805   4.377   4.676  11.155  0.6280  1.0767  0.0499
  182SLPC  H13B20806   4.394   4.512  11.241  0.7082 -0.2156 -0.0490
  182SLPC  H13C20807   4.446   4.656  11.320  0.9880 -0.9393 -0.4783
  182SLPC   C1420808   4.645   4.491  11.188  0.5593 -0.3111  0.4163
  182SLPC  H14A20809   4.587   4.401  11.178 -1.6535  1.1760 -0.5723
  182SLPC  H14B20810   4.740   4.494  11.137  1.3859 -3.2344  1.6610
  182SLPC  H14C20811   4.666   4.482  11.294 -0.2386 -0.7332  0.5394
  182SLPC   C1520812   4.638   4.742  11.174 -0.2548 -0.4908  0.9811
  182SLPC  H15A20813   4.737   4.729  11.135 -0.1228  1.5182  0.6002
  182SLPC  H15B20814   4.599   4.833  11.132  2.0600  0.0724  0.0137
  182SLPC  H15C20815   4.650   4.755  11.281  0.5472  2.0396  0.6090
  182SLPC   C1220816   4.542   4.592  10.995 -1.2752 -0.4492 -0.0758
  182SLPC  H12A20817   4.499   4.495  10.978  0.0294 -1.1279  0.4948
  182SLPC  H12B20818   4.640   4.587  10.949 -1.2234 -0.6551  0.0571
  182SLPC   C1120819   4.467   4.704  10.917 -0.5890  0.4349 -0.2592
  182SLPC  H11A20820   4.475   4.674  10.810 -0.1185 -2.0529  0.4497
  182SLPC  H11B20821   4.519   4.801  10.936  0.9897 -0.8143  2.0102
  182SLPC     P20822   4.232   4.813  10.905 -0.0374  0.2200  0.1442
  182SLPC   O1320823   4.118   4.740  10.841 -0.0175  0.4274 -0.4999
  182SLPC   O1420824   4.205   4.908  11.016 -0.3294  0.7665 -0.1843
  182SLPC   O1220825   4.331   4.701  10.959 -0.7428 -0.1097 -0.0748
  182SLPC   O1120826   4.317   4.891  10.801  0.1325 -0.6489  0.0616
  182SLPC    C120827   4.266   4.985  10.711  0.2709 -0.3035  0.7296
  182SLPC    HA20828   4.169   5.031  10.740 -0.8974 -1.3184 -1.4036
  182SLPC    HB20829   4.348   5.059  10.718 -0.1827  0.3930 -0.9816
  182SLPC    C220830   4.263   4.926  10.565  0.0781  0.0121 -0.3910
  182SLPC    HS20831   4.204   4.832  10.566 -1.7751  1.1643  1.7601
  182SLPC   O2120832   4.398   4.911  10.526 -0.0067 -0.0772 -0.0312
  182SLPC   C2120833   4.451   4.792  10.543 -0.1023  0.6373 -0.3539
  182SLPC   O2220834   4.393   4.690  10.567 -0.5423 -0.0141  0.4221
  182SLPC   C2220835   4.597   4.792  10.519  0.0639 -0.3175  0.0080
  182SLPC   H2R20836   4.649   4.866  10.584  1.0263  0.0523 -1.1647
  182SLPC   H2S20837   4.638   4.692  10.544  1.7623  0.1488 -0.8085
  182SLPC    C320838   4.193   5.023  10.471  0.0119 -0.0293 -0.5448
  182SLPC    HX20839   4.256   5.114  10.462 -1.0811  0.7744 -0.2588
  182SLPC    HY20840   4.092   5.040  10.514  0.7296  1.5018  0.5732
  182SLPC   O3120841   4.182   4.973  10.341 -0.3503 -0.0926 -0.4526
  182SLPC   C3120842   4.079   4.888  10.302  0.1509 -0.4188  0.1861
  182SLPC   O3220843   3.995   4.845  10.385 -0.1009  0.2750  0.4204
  182SLPC   C3220844   4.072   4.861  10.150 -0.0752 -0.2106 -0.2424
  182SLPC   H2X20845   4.177   4.835  10.125  0.4175  0.3671  1.1798
  182SLPC   H2Y20846   4.072   4.954  10.089  0.4463 -0.9480 -1.3970
  182SLPC   C2320847   4.636   4.818  10.370 -0.3921 -0.1446  0.1138
  182SLPC   H3R20848   4.745   4.804  10.357 -0.7878 -1.9293 -1.4505
  182SLPC   H3S20849   4.625   4.923  10.337  1.0512 -0.9279 -3.0772
  182SLPC   C2420850   4.560   4.724  10.273  0.0392  0.6579 -0.9124
  182SLPC   H4R20851   4.450   4.737  10.265 -0.0304  0.8270  0.1905
  182SLPC   H4S20852   4.580   4.622  10.311  2.0135  1.8292  1.4125
  182SLPC   C2520853   4.603   4.727  10.127 -0.2401 -0.3223  0.0238
  182SLPC   H5R20854   4.550   4.658  10.058  1.1735 -0.4195 -0.9586
  182SLPC   H5S20855   4.708   4.695  10.115  0.0590  0.4542  0.5719
  182SLPC   C2620856   4.577   4.869  10.056 -0.0065  0.6687  0.1475
  182SLPC   H6R20857   4.614   4.864   9.952  1.1408 -0.2780  0.5933
  182SLPC   H6S20858   4.635   4.946  10.112  0.2107  0.0276  0.8160
  182SLPC   C2720859   4.430   4.899  10.060  0.6559 -0.2897  0.1028
  182SLPC   H7R20860   4.390   4.936  10.157  2.5491 -0.9154  1.1290
  182SLPC   H7S20861   4.371   4.805  10.059  0.1573  0.0038  1.0103
  182SLPC   C2820862   4.392   4.991   9.944  0.1662  1.1736 -0.5144
  182SLPC   H8R20863   4.286   5.014   9.969  0.0233 -0.9251  0.9370
  182SLPC   H8S20864   4.374   4.942   9.846  0.0693 -0.6327  0.3955
  182SLPC   C2920865   4.487   5.105   9.935  0.3447 -0.1247 -0.4773
  182SLPC   H9R20866   4.525   5.147  10.029  0.2932 -0.1928 -0.4265
  182SLPC  C21020867   4.539   5.165   9.825  0.0554  0.3684 -0.0322
  182SLPC  H10R20868   4.603   5.253   9.840 -2.8879  2.2965  1.8469
  182SLPC  C21120869   4.515   5.140   9.677  0.7386  0.0368  0.5993
  182SLPC  H11R20870   4.502   5.033   9.651  1.5517 -0.1023  0.7447
  182SLPC  H11S20871   4.610   5.167   9.625 -0.1744  1.2624 -0.4562
  182SLPC  C21220872   4.401   5.218   9.613  0.0723  0.7054  0.3132
  182SLPC  H12R20873   4.328   5.266   9.680 -0.6941  0.7782 -0.5577
  182SLPC  C21320874   4.374   5.217   9.482  0.4633 -0.0820 -0.0080
  182SLPC  H13R20875   4.277   5.250   9.443  0.1631 -0.5666  0.3124
  182SLPC  C21420876   4.456   5.137   9.380  0.1426  0.3667 -0.5291
  182SLPC  H14R20877   4.401   5.100   9.291 -1.0696 -1.4332  0.9385
  182SLPC  H14S20878   4.484   5.042   9.431 -0.1455  0.3594 -0.3879
  182SLPC  C21520879   4.577   5.215   9.334  0.3477  0.6971  0.3435
  182SLPC  H15R20880   4.648   5.234   9.417  1.5890  3.8619 -1.3101
  182SLPC  H15S20881   4.536   5.313   9.302  2.4174  1.0192 -1.4733
  182SLPC  C21620882   4.649   5.156   9.212 -1.0443  0.0061 -0.0349
  182SLPC  H16R20883   4.584   5.187   9.127  0.8938 -0.5599 -1.7471
  182SLPC  H16S20884   4.629   5.047   9.219  0.7402 -0.3963 -1.0104
  182SLPC  C21720885   4.796   5.190   9.210  0.3279 -0.1910 -0.3239
  182SLPC  H17R20886   4.864   5.140   9.283  0.3915 -0.2975 -0.4562
  182SLPC  H17S20887   4.801   5.298   9.237  1.2736  0.3288 -2.4779
  182SLPC  C21820888   4.853   5.183   9.069  0.2600  0.0744  0.2984
  182SLPC  H18R20889   4.865   5.080   9.028  1.7727  0.0859  0.6814
  182SLPC  H18S20890   4.950   5.237   9.059  0.6401 -0.3358  1.7083
  182SLPC  H18T20891   4.781   5.239   9.006 -1.8909 -1.2196  1.5365
  182SLPC   C3320892   3.973   4.752  10.123  0.5710  0.3959 -0.4492
  182SLPC   H3X20893   3.872   4.768  10.166  1.7412  2.7191  1.5422
  182SLPC   H3Y20894   4.008   4.656  10.166 -0.7287 -0.6451 -1.6708
  182SLPC   C3420895   3.945   4.725   9.974  0.0199  0.0237 -0.1576
  182SLPC   H4X20896   3.892   4.811   9.929 -0.5986  0.4192  1.2937
  182SLPC   H4Y20897   3.868   4.649   9.949  0.1154 -0.3366  0.6147
  182SLPC   C3520898   4.077   4.697   9.889 -0.0794  0.0137  0.1937
  182SLPC   H5X20899   4.118   4.600   9.925  1.0767  0.0908 -0.8895
  182SLPC   H5Y20900   4.136   4.791   9.901  1.6381 -0.8898 -0.9016
  182SLPC   C3620901   4.052   4.667   9.742  0.9083 -0.0963  0.3139
  182SLPC   H6X20902   3.967   4.596   9.736 -0.2662  1.2938  0.4268
  182SLPC   H6Y20903   4.150   4.633   9.702  1.0415 -1.2312  1.5628
  182SLPC   C3720904   4.017   4.791   9.669  0.6660 -0.3171 -0.1058
  182SLPC   H7X20905   4.080   4.877   9.701 -0.8223  0.2451  1.4278
  182SLPC   H7Y20906   3.909   4.813   9.684  0.8155  0.0551  0.4356
  182SLPC   C3820907   4.041   4.794   9.516 -0.0323  0.3121 -1.1727
  182SLPC   H8X20908   3.969   4.719   9.477  0.9182 -0.7152 -0.9733
  182SLPC   H8Y20909   4.143   4.754   9.497  0.4459  1.2378 -0.5711
  182SLPC   C3920910   4.017   4.926   9.444  0.0414  0.5338  0.5236
  182SLPC   H9X20911   4.109   4.989   9.451  1.3020 -1.1962 -0.2537
  182SLPC   H9Y20912   3.937   4.981   9.499 -1.5179 -1.1274 -0.0601
  182SLPC  C31020913   3.950   4.918   9.304 -0.2169 -0.2759 -0.3239
  182SLPC  H10X20914   3.918   5.019   9.271  0.2580  0.4492  1.3614
  182SLPC  H10Y20915   3.856   4.860   9.313  0.1279 -1.4469 -3.7150
  182SLPC  C31120916   4.039   4.850   9.196 -0.0984  0.1480 -0.3117
  182SLPC  H11X20917   3.986   4.829   9.100  0.5712 -0.7946 -0.4783
  182SLPC  H11Y20918   4.071   4.753   9.237  1.4207 -0.2726 -2.4242
  182SLPC  C31220919   4.158   4.936   9.164  0.6119  0.8827 -0.7919
  182SLPC  H12X20920   4.212   4.962   9.257  1.1778  0.4032 -0.9839
  182SLPC  H12Y20921   4.110   5.028   9.124  0.2207  0.4574 -1.3152
  182SLPC  C31320922   4.265   4.875   9.067 -0.0381 -0.2695 -0.1492
  182SLPC  H13X20923   4.299   4.780   9.114 -0.8273 -0.6454 -0.3427
  182SLPC  H13Y20924   4.346   4.951   9.070 -2.9243  2.8518  2.7195
  182SLPC  C31420925   4.221   4.841   8.922  0.1682 -0.6939  0.2475
  182SLPC  H14X20926   4.229   4.939   8.871  0.5837 -0.7880  0.1313
  182SLPC  H14Y20927   4.118   4.800   8.910  0.2363 -0.7561 -0.1279
  182SLPC  C31520928   4.322   4.741   8.859 -0.4392 -0.1294  0.3588
  182SLPC  H15X20929   4.310   4.646   8.916  1.3261 -0.0690  0.8705
  182SLPC  H15Y20930   4.424   4.780   8.879  0.5815 -1.2584 -2.4363
  182SLPC  C31620931   4.307   4.733   8.707  0.4156  0.1045  0.5369
  182SLPC  H16X20932   4.325   4.834   8.663  0.9690 -0.4030 -0.4275
  182SLPC  H16Y20933   4.204   4.702   8.681  0.4516  0.4338 -0.0089
  182SLPC  C31720934   4.403   4.637   8.642  0.6494  0.1817 -0.3035
  182SLPC  H17X20935   4.413   4.546   8.704 -1.7461  1.2461  1.7379
  182SLPC  H17Y20936   4.507   4.676   8.637  0.9176 -0.5230 -0.2111
  182SLPC  C31820937   4.356   4.608   8.501  0.4705 -0.0130 -0.0374
  182SLPC  H18X20938   4.245   4.616   8.496  0.5340  0.1716 -1.4978
  182SLPC  H18Y20939   4.393   4.506   8.475 -0.0933  0.0625 -1.1978
  182SLPC  H18Z20940   4.394   4.677   8.423 -0.4299  0.5329 -0.0009
  183SLPC     N20941   5.817   5.970  10.962  0.2431  0.4249  0.1577
  183SLPC   C1320942   5.934   5.996  11.051 -0.3361  0.6793 -0.0887
  183SLPC  H13A20943   5.964   5.915  11.115 -0.7740  1.4796  1.1616
  183SLPC  H13B20944   6.026   6.033  11.009  0.6043 -1.3736  0.1079
  183SLPC  H13C20945   5.901   6.072  11.121  1.0963  0.2015  1.1253
  183SLPC   C1420946   5.814   6.097  10.877  1.4514 -0.3769  0.2961
  183SLPC  H14A20947   5.907   6.118  10.826  0.7800  1.0577 -0.3601
  183SLPC  H14B20948   5.728   6.079  10.815  0.6991 -1.2710  1.5800
  183SLPC  H14C20949   5.791   6.182  10.940  1.9505 -1.0763  1.4538
  183SLPC   C1520950   5.698   5.951  11.049 -0.0714 -0.2162  0.9388
  183SLPC  H15A20951   5.683   6.035  11.116  0.9561  1.4336 -0.8518
  183SLPC  H15B20952   5.608   5.943  10.991  0.5484  0.5015 -0.1348
  183SLPC  H15C20953   5.711   5.856  11.098  0.6243 -0.1855  0.8230
  183SLPC   C1220954   5.837   5.857  10.870  0.2267  0.2112  0.2359
  183SLPC  H12A20955   5.843   5.762  10.923 -2.8285 -0.6576 -0.8580
  183SLPC  H12B20956   5.931   5.858  10.818 -0.0426  0.0007 -0.2591
  183SLPC   C1120957   5.725   5.840  10.773 -0.5803 -0.2516  0.1423
  183SLPC  H11A20958   5.762   5.768  10.697  2.8208  0.6501  0.8722
  183SLPC  H11B20959   5.704   5.934  10.718 -0.0183 -0.4946 -0.4909
  183SLPC     P20960   5.580   5.629  10.819  0.2418 -0.6272 -0.3979
  183SLPC   O1320961   5.682   5.559  10.896  0.4133 -0.2068 -0.1188
  183SLPC   O1420962   5.442   5.589  10.857 -0.1759 -0.2075  0.2269
  183SLPC   O1220963   5.612   5.784  10.837  0.5250 -0.6971 -0.0622
  183SLPC   O1120964   5.596   5.609  10.665  0.2686  0.6062  0.1113
  183SLPC    C120965   5.486   5.635  10.572 -0.1741 -0.1077  0.3087
  183SLPC    HA20966   5.391   5.583  10.595 -0.7811  0.2961 -1.1912
  183SLPC    HB20967   5.459   5.741  10.585  0.8703 -0.0034  1.7415
  183SLPC    C220968   5.514   5.590  10.426  0.2659 -0.0251 -0.5232
  183SLPC    HS20969   5.418   5.594  10.370 -0.8258  0.0684  1.3256
  183SLPC   O2120970   5.568   5.452  10.423  0.4659  0.1682  0.2528
  183SLPC   C2120971   5.476   5.363  10.439  0.7744 -0.0576  0.3824
  183SLPC   O2220972   5.355   5.377  10.451 -0.1610 -0.1640 -0.1892
  183SLPC   C2220973   5.536   5.220  10.439  0.0414  0.6411  0.6126
  183SLPC   H2R20974   5.622   5.223  10.510  1.0520 -2.0296 -0.4117
  183SLPC   H2S20975   5.459   5.150  10.478 -0.9209  0.5063 -1.4597
  183SLPC    C320976   5.616   5.671  10.349  0.1157  0.5113 -0.7566
  183SLPC    HX20977   5.645   5.614  10.258  0.2516 -0.3748 -0.1618
  183SLPC    HY20978   5.712   5.664  10.403  0.7302 -1.1362 -2.0372
  183SLPC   O3120979   5.560   5.804  10.321  0.3308 -0.3331  0.2045
  183SLPC   C3120980   5.631   5.903  10.363 -0.5475 -0.4073 -1.6545
  183SLPC   O3220981   5.741   5.903  10.419  0.1599  0.6086 -0.0846
  183SLPC   C3220982   5.562   6.032  10.323  0.0954  0.6766 -0.4145
  183SLPC   H2X20983   5.582   6.097  10.411  0.9240  0.5350 -0.4875
  183SLPC   H2Y20984   5.457   5.998  10.321 -0.2066  1.6227 -0.9420
  183SLPC   C2320985   5.580   5.159  10.299  0.5682  0.2093 -0.5532
  183SLPC   H3R20986   5.677   5.190  10.253 -0.3870  2.6360 -0.9920
  183SLPC   H3S20987   5.497   5.191  10.232  0.1081 -0.0620 -0.1123
  183SLPC   C2420988   5.577   5.006  10.307  0.3340  0.3924  0.5504
  183SLPC   H4R20989   5.487   4.968  10.361  0.5744  0.2223  0.8333
  183SLPC   H4S20990   5.658   4.974  10.376 -0.3818  2.4287  2.3948
  183SLPC   C2520991   5.590   4.935  10.173  1.0474  0.6125 -0.6761
  183SLPC   H5R20992   5.637   4.836  10.190  2.5129  1.3773 -0.1618
  183SLPC   H5S20993   5.658   4.998  10.111  1.8098 -0.8331 -1.3332
  183SLPC   C2620994   5.450   4.920  10.113  0.2707 -0.0721  0.6752
  183SLPC   H6R20995   5.387   5.009  10.133 -0.1885 -0.6344  1.8115
  183SLPC   H6S20996   5.395   4.841  10.170  0.7273  1.5406  3.4525
  183SLPC   C2720997   5.447   4.871   9.966 -0.7910  0.3008 -0.7665
  183SLPC   H7R20998   5.357   4.809   9.945 -0.7134  0.5359 -1.8333
  183SLPC   H7S20999   5.527   4.797   9.944  0.8402  1.3820  1.2908
  183SLPC   C2821000   5.462   4.993   9.873  0.0704 -0.5534  0.7802
  183SLPC   H8R21001   5.560   5.037   9.904 -0.9464 -0.0813  3.4345
  183SLPC   H8S21002   5.388   5.074   9.891  1.8092  1.9875 -2.8435
  183SLPC   C2921003   5.455   4.955   9.726  0.0408  0.0126  0.4543
  183SLPC   H9R21004   5.485   4.851   9.706 -1.7117 -0.7233  1.4640
  183SLPC  C21021005   5.402   5.034   9.625 -0.0945  0.0158  0.1033
  183SLPC  H10R21006   5.404   4.997   9.521 -0.1061  0.8381 -0.1862
  183SLPC  C21121007   5.330   5.166   9.634 -0.1581 -1.0151 -0.2216
  183SLPC  H11R21008   5.364   5.231   9.717  0.2657 -1.3740 -0.1079
  183SLPC  H11S21009   5.225   5.147   9.665 -0.1791 -1.2386 -0.4258
  183SLPC  C21221010   5.337   5.237   9.505  0.0278 -0.0167 -0.2391
  183SLPC  H12R21011   5.435   5.241   9.454  0.4990 -1.7152  0.4861
  183SLPC  C21321012   5.230   5.290   9.443  0.2843  0.1693  0.5733
  183SLPC  H13R21013   5.241   5.331   9.341  0.2393  3.0854  1.6756
  183SLPC  C21421014   5.087   5.303   9.492  0.2381 -0.0321  0.1375
  183SLPC  H14R21015   5.070   5.319   9.601  1.2971 -0.8298  0.4226
  183SLPC  H14S21016   5.023   5.219   9.455  2.2279 -0.0094 -3.6073
  183SLPC  C21521017   5.014   5.431   9.441 -0.1734  0.7702 -0.3044
  183SLPC  H15R21018   5.006   5.424   9.330  1.7653 -0.0787 -0.4183
  183SLPC  H15S21019   5.073   5.520   9.470 -0.1300  0.2722  1.1556
  183SLPC  C21621020   4.867   5.456   9.478  0.6394  0.7877  0.2332
  183SLPC  H16R21021   4.810   5.363   9.456  1.0157  0.7272 -0.5134
  183SLPC  H16S21022   4.820   5.539   9.420  0.5451  0.1132 -0.6681
  183SLPC  C21721023   4.837   5.478   9.625  0.8485  0.1453 -0.3866
  183SLPC  H17R21024   4.873   5.576   9.663 -0.5936  0.3444  0.5132
  183SLPC  H17S21025   4.888   5.408   9.694 -1.5901 -0.7418  0.5471
  183SLPC  C21821026   4.685   5.473   9.649 -0.2505 -0.4656  0.2616
  183SLPC  H18R21027   4.659   5.367   9.625  1.2220 -0.7983  0.1070
  183SLPC  H18S21028   4.626   5.531   9.575 -0.9190 -1.5295 -0.0540
  183SLPC  H18T21029   4.673   5.509   9.754  2.3093 -0.1552  0.4683
  183SLPC   C3321030   5.616   6.087  10.187  0.1875 -0.5638 -0.1429
  183SLPC   H3X21031   5.704   6.153  10.198 -3.1217  3.9257  0.9070
  183SLPC   H3Y21032   5.531   6.149  10.153  0.1560  1.3592  3.2343
  183SLPC   C3421033   5.633   5.993  10.068  0.0868  0.2084  1.0633
  183SLPC   H4X21034   5.640   6.057   9.977  2.9127 -1.6917 -0.1369
  183SLPC   H4Y21035   5.548   5.923  10.051  1.0303 -0.5841 -0.6015
  183SLPC   C3521036   5.767   5.919  10.075  0.0049  0.2071  0.5636
  183SLPC   H5X21037   5.789   5.879  10.176 -1.8964 -2.5419 -0.0563
  183SLPC   H5Y21038   5.849   5.990  10.052  0.5602 -0.9565 -1.1423
  183SLPC   C3621039   5.765   5.790   9.993 -0.5834 -0.3040  0.0932
  183SLPC   H6X21040   5.665   5.742  10.000  0.3950 -2.5256 -0.6882
  183SLPC   H6Y21041   5.842   5.717  10.026  0.2152  0.2048 -0.6201
  183SLPC   C3721042   5.792   5.811   9.837 -0.0199 -1.3617 -0.1143
  183SLPC   H7X21043   5.876   5.884   9.834  0.9340 -2.4196  0.4032
  183SLPC   H7Y21044   5.700   5.850   9.787  1.2175 -0.2459 -1.5715
  183SLPC   C3821045   5.827   5.685   9.760  0.1094 -0.6043 -0.1214
  183SLPC   H8X21046   5.744   5.613   9.774  0.1632 -0.6446 -0.0070
  183SLPC   H8Y21047   5.924   5.643   9.794  0.7272 -0.6633 -1.9032
  183SLPC   C3921048   5.840   5.713   9.607 -0.9965 -0.5798  0.1496
  183SLPC   H9X21049   5.896   5.809   9.604 -1.9448  0.0270  1.4261
  183SLPC   H9Y21050   5.738   5.729   9.568 -0.5914 -0.7057 -0.9781
  183SLPC  C31021051   5.895   5.610   9.515 -0.3139  0.0724 -0.1373
  183SLPC  H10X21052   5.832   5.520   9.531 -0.1694 -0.6463 -3.2275
  183SLPC  H10Y21053   6.001   5.584   9.540 -0.3220 -1.8679 -1.9673
  183SLPC  C31121054   5.890   5.653   9.369  0.0547  0.3668  0.2949
  183SLPC  H11X21055   5.958   5.739   9.350  1.3044 -0.7094 -0.1990
  183SLPC  H11Y21056   5.791   5.692   9.336  1.0129  0.9480 -2.0496
  183SLPC  C31221057   5.931   5.538   9.277 -0.3344  0.1491 -0.9736
  183SLPC  H12X21058   5.873   5.445   9.298  0.0726 -0.1889 -1.3170
  183SLPC  H12Y21059   6.036   5.511   9.303 -0.3932 -0.8976 -1.7596
  183SLPC  C31321060   5.918   5.568   9.129  0.5049 -0.4487 -0.1944
  183SLPC  H13X21061   5.968   5.664   9.103 -2.1537  1.1700  0.4207
  183SLPC  H13Y21062   5.811   5.568   9.099  0.1622 -0.8689  0.9889
  183SLPC  C31421063   5.980   5.461   9.046 -0.6840 -0.0185  0.2637
  183SLPC  H14X21064   5.912   5.373   9.050 -2.0068  0.8338 -2.4867
  183SLPC  H14Y21065   6.086   5.437   9.071  0.1757  1.7975 -1.4563
  183SLPC  C31521066   5.979   5.496   8.896  0.3296 -0.2977 -0.5113
  183SLPC  H15X21067   6.065   5.442   8.853  0.4308 -0.6699  0.1587
  183SLPC  H15Y21068   6.010   5.601   8.874 -0.1141  0.3433  1.8160
  183SLPC  C31621069   5.852   5.457   8.823 -0.7095 -0.0043  0.3827
  183SLPC  H16X21070   5.766   5.510   8.870 -0.4083  2.0113 -1.2532
  183SLPC  H16Y21071   5.832   5.348   8.837  0.4482 -0.4872 -1.6054
  183SLPC  C31721072   5.851   5.491   8.670 -0.1456  0.2551  0.5229
  183SLPC  H17X21073   5.916   5.426   8.608  0.3880  2.2006 -0.9779
  183SLPC  H17Y21074   5.901   5.590   8.666  2.0578 -0.9155 -2.8317
  183SLPC  C31821075   5.722   5.487   8.593 -0.1347  0.2628 -0.4169
  183SLPC  H18X21076   5.654   5.568   8.629 -0.1260 -0.0620  0.3434
  183SLPC  H18Y21077   5.670   5.390   8.606  0.8598 -0.0782  1.1725
  183SLPC  H18Z21078   5.740   5.500   8.484 -2.1002  1.5029 -0.6313
  184SLPC     N21079   0.397   2.013  10.816  0.1750  0.6254  0.2390
  184SLPC   C1321080   0.402   1.859  10.797  0.0608  0.3148 -0.4435
  184SLPC  H13A21081   0.342   1.808  10.871  0.9598  1.2242  0.9479
  184SLPC  H13B21082   0.384   1.828  10.695  0.9024  0.6733 -0.7043
  184SLPC  H13C21083   0.502   1.824  10.816  0.2933  0.6138 -1.0997
  184SLPC   C1421084   0.538   2.051  10.838 -0.2353  1.1272  0.4465
  184SLPC  H14A21085   0.595   1.985  10.902  0.8274 -0.0900 -1.7102
  184SLPC  H14B21086   0.584   2.059  10.741 -0.1609 -5.1652 -0.2500
  184SLPC  H14C21087   0.540   2.144  10.893  2.6188  0.5728  1.3313
  184SLPC   C1521088   0.312   2.033  10.941 -0.3662 -0.0691  0.1000
  184SLPC  H15A21089   0.222   1.974  10.950  1.5655 -3.3163 -0.9382
  184SLPC  H15B21090   0.371   2.015  11.030  1.4531 -0.4000 -1.1632
  184SLPC  H15C21091   0.291   2.138  10.951 -0.2722  0.1781 -2.1151
  184SLPC   C1221092   0.342   2.089  10.692 -0.3859 -0.1815  0.3967
  184SLPC  H12A21093   0.250   2.040  10.663 -0.5006  0.0110  0.4400
  184SLPC  H12B21094   0.408   2.074  10.607 -0.4009  0.0340  0.3475
  184SLPC   C1121095   0.301   2.236  10.704  0.1070  0.4581 -0.3639
  184SLPC  H11A21096   0.218   2.238  10.778  0.4856 -0.3207  0.0956
  184SLPC  H11B21097   0.268   2.275  10.605  0.4735  0.5187 -0.4615
  184SLPC     P21098   0.530   2.379  10.667  0.0065  0.1905  0.0207
  184SLPC   O1321099   0.598   2.487  10.744 -0.0803  0.1680  0.5412
  184SLPC   O1421100   0.610   2.272  10.607 -0.2730  0.2511 -0.0058
  184SLPC   O1221101   0.412   2.316  10.753 -0.2390 -0.2271  0.3106
  184SLPC   O1121102   0.461   2.454  10.546  0.3619  0.2388 -0.3644
  184SLPC    C121103   0.357   2.546  10.561  0.4436 -0.4260 -0.6942
  184SLPC    HA21104   0.284   2.506  10.635 -2.7344  1.9028 -2.4534
  184SLPC    HB21105   0.396   2.644  10.598 -1.3884  0.0860 -0.0789
  184SLPC    C221106   0.277   2.579  10.433 -0.5884 -0.5258  0.4994
  184SLPC    HS21107   0.261   2.481  10.383 -1.5815 -0.1762  0.1015
  184SLPC   O2121108   0.352   2.678  10.353 -0.5637  0.1641 -0.4292
  184SLPC   C2121109   0.392   2.632  10.236 -0.0850  0.0944  0.2625
  184SLPC   O2221110   0.381   2.518  10.190  0.2716  0.2906 -0.4750
  184SLPC   C2221111   0.467   2.743  10.157 -0.0790 -0.6008 -0.2507
  184SLPC   H2R21112   0.466   2.841  10.210  2.0349 -1.1491  0.8493
  184SLPC   H2S21113   0.572   2.707  10.167 -0.3446 -1.3335 -0.0728
  184SLPC    C321114   0.138   2.636  10.460  0.0157 -0.0309 -0.7743
  184SLPC    HX21115   0.129   2.711  10.540 -0.8429 -0.3217 -0.5864
  184SLPC    HY21116   0.077   2.547  10.486 -0.4790  0.7435  0.7611
  184SLPC   O3121117   0.086   2.682  10.332  0.7295 -0.1455 -0.4213
  184SLPC   C3121118   0.086   2.816  10.316  0.7145 -0.1820  0.2345
  184SLPC   O3221119   0.112   2.896  10.401 -0.1193  0.1543  0.2691
  184SLPC   C3221120   0.044   2.838  10.180 -0.0415  0.3767  0.4261
  184SLPC   H2X21121  -0.067   2.852  10.181  0.1240  1.7774  0.4118
  184SLPC   H2Y21122   0.077   2.750  10.121  2.0027 -0.0402  2.1533
  184SLPC   C2321123   0.436   2.764  10.012  0.2648  0.0786  0.5286
  184SLPC   H3R21124   0.339   2.817  10.020  0.1218 -0.0801 -0.1079
  184SLPC   H3S21125   0.409   2.667   9.964 -5.0513  1.5250  0.2468
  184SLPC   C2421126   0.540   2.861   9.949 -0.2250  0.2222 -0.6018
  184SLPC   H4R21127   0.649   2.838   9.950 -0.1023  0.7610 -1.2340
  184SLPC   H4S21128   0.534   2.953  10.010 -0.6009 -0.1892 -0.0129
  184SLPC   C2521129   0.506   2.889   9.809 -0.2104  0.0061 -0.4518
  184SLPC   H5R21130   0.577   2.964   9.768  2.9350 -0.7504  3.3149
  184SLPC   H5S21131   0.401   2.924   9.804 -0.8535 -1.8671 -0.7345
  184SLPC   C2621132   0.527   2.776   9.710  0.6284 -0.1994  0.1034
  184SLPC   H6R21133   0.444   2.707   9.735 -0.7124  1.3599  0.0670
  184SLPC   H6S21134   0.623   2.724   9.727  1.0244  0.7477  0.8688
  184SLPC   C2721135   0.495   2.808   9.562 -0.0174  0.6338 -0.1996
  184SLPC   H7R21136   0.431   2.898   9.551 -0.8408  0.0660 -0.1007
  184SLPC   H7S21137   0.438   2.719   9.529 -0.6409 -0.2983  3.2330
  184SLPC   C2821138   0.617   2.820   9.470  0.5572  0.2739 -0.2418
  184SLPC   H8R21139   0.687   2.735   9.478 -1.7802 -1.4484  2.6835
  184SLPC   H8S21140   0.675   2.909   9.503  1.3197 -0.1661 -0.3896
  184SLPC   C2921141   0.568   2.860   9.331 -0.4179 -0.0891  0.0137
  184SLPC   H9R21142   0.533   2.964   9.326 -0.1604 -0.0700 -1.6421
  184SLPC  C21021143   0.561   2.781   9.222 -0.1744 -0.4864  0.4364
  184SLPC  H10R21144   0.526   2.836   9.134  0.1728  0.2654  0.7682
  184SLPC  C21121145   0.593   2.633   9.199 -0.3103  0.1492 -0.1278
  184SLPC  H11R21146   0.493   2.587   9.210  0.4449 -1.4088  0.3580
  184SLPC  H11S21147   0.659   2.595   9.280 -1.1163 -1.9791 -0.4650
  184SLPC  C21221148   0.649   2.614   9.062  0.0787 -0.1148 -0.5643
  184SLPC  H12R21149   0.578   2.608   8.978  0.6707  2.2126 -1.2508
  184SLPC  C21321150   0.783   2.612   9.032  0.6280  0.5478 -0.3996
  184SLPC  H13R21151   0.796   2.600   8.924 -1.5814  2.7931 -0.9611
  184SLPC  C21421152   0.907   2.634   9.117  0.9653  0.1803  0.5541
  184SLPC  H14R21153   0.959   2.536   9.129  2.8306  0.7858 -2.1069
  184SLPC  H14S21154   0.883   2.677   9.217 -0.3395 -1.6361  1.0353
  184SLPC  C21521155   1.013   2.740   9.071  0.7955 -0.2430 -0.1771
  184SLPC  H15R21156   0.964   2.824   9.016 -1.7540 -1.4413  0.1832
  184SLPC  H15S21157   1.078   2.688   8.998  1.6209 -0.7680  0.9292
  184SLPC  C21621158   1.084   2.812   9.185  0.3616  0.0894  0.5973
  184SLPC  H16R21159   1.136   2.727   9.233  1.0741  0.1620 -0.0338
  184SLPC  H16S21160   1.012   2.860   9.254  0.2006 -2.1694  2.0493
  184SLPC  C21721161   1.191   2.910   9.134  0.3171  0.9464 -0.5249
  184SLPC  H17R21162   1.134   2.962   9.054 -0.9467  0.6875  0.1938
  184SLPC  H17S21163   1.276   2.849   9.098  0.0826 -0.0828  0.6330
  184SLPC  C21821164   1.239   3.004   9.247 -0.0175 -0.2086 -0.1337
  184SLPC  H18R21165   1.341   3.041   9.226  0.3067  0.8795  3.0904
  184SLPC  H18S21166   1.260   2.939   9.335  1.2411 -1.6310 -1.4427
  184SLPC  H18T21167   1.174   3.092   9.265 -1.1852 -0.9003 -0.9400
  184SLPC   C3321168   0.101   2.982  10.137 -0.2016 -0.3695  0.4309
  184SLPC   H3X21169   0.212   2.968  10.134 -0.1156  0.4925 -2.0547
  184SLPC   H3Y21170   0.090   3.055  10.220  3.6986  0.8029  0.0199
  184SLPC   C3421171   0.046   3.036   9.999  0.0788 -0.5542  0.0650
  184SLPC   H4X21172   0.098   3.134   9.988  1.4771 -1.2709  0.0975
  184SLPC   H4Y21173  -0.064   3.047   9.994  0.0792 -1.0200 -1.1491
  184SLPC   C3521174   0.077   2.937   9.878 -0.0457  0.1287 -0.6624
  184SLPC   H5X21175   0.021   2.842   9.891 -0.4021  0.0162 -2.9789
  184SLPC   H5Y21176   0.183   2.903   9.885  0.3592  1.0069 -2.4538
  184SLPC   C3621177   0.040   3.002   9.744 -0.1739 -0.1985  0.2910
  184SLPC   H6X21178   0.082   3.104   9.730 -0.7228  0.2511  1.7896
  184SLPC   H6Y21179  -0.071   3.010   9.754 -0.3751 -1.0843 -1.0520
  184SLPC   C3721180   0.079   2.908   9.619  0.3006 -0.1687 -0.1594
  184SLPC   H7X21181   0.022   2.814   9.635  0.6302  0.0120  2.2182
  184SLPC   H7Y21182   0.185   2.875   9.629  0.3821 -0.2916 -1.3130
  184SLPC   C3821183   0.058   2.975   9.478  1.2875 -0.0592  0.1540
  184SLPC   H8X21184   0.129   2.923   9.411  3.6536  2.9574  0.1999
  184SLPC   H8Y21185   0.091   3.080   9.495 -1.9719  1.1572 -0.5536
  184SLPC   C3921186  -0.076   2.971   9.410  0.9232  0.4248 -0.1899
  184SLPC   H9X21187  -0.136   3.050   9.461 -1.7724 -0.3058 -2.0860
  184SLPC   H9Y21188  -0.132   2.878   9.431  0.8891  0.3602 -0.5631
  184SLPC  C31021189  -0.080   2.993   9.258  0.0993 -0.2019 -0.4626
  184SLPC  H10X21190  -0.051   2.898   9.210  0.7267  1.2189 -2.9614
  184SLPC  H10Y21191  -0.006   3.071   9.229  0.6044 -0.5654 -0.1706
  184SLPC  C31121192  -0.222   3.039   9.223  0.6543  0.4749  0.3387
  184SLPC  H11X21193  -0.260   3.115   9.295 -2.1274 -0.3255 -0.2266
  184SLPC  H11Y21194  -0.281   2.945   9.219  0.4008  0.6847 -1.4231
  184SLPC  C31221195  -0.223   3.117   9.090 -0.1725 -0.4301  0.3318
  184SLPC  H12X21196  -0.156   3.206   9.093  4.5703 -3.7507 -0.6288
  184SLPC  H12Y21197  -0.324   3.162   9.079  0.5419  1.2419  0.3931
  184SLPC  C31321198  -0.190   3.043   8.957  0.0375 -0.2899 -0.8222
  184SLPC  H13X21199  -0.272   2.968   8.951 -1.0810  0.7085  1.1026
  184SLPC  H13Y21200  -0.094   2.987   8.959  0.1380 -0.2170 -3.0952
  184SLPC  C31421201  -0.198   3.129   8.830 -0.3490 -0.0810 -0.2382
  184SLPC  H14X21202  -0.175   3.067   8.741  1.7210 -0.2845  0.4105
  184SLPC  H14Y21203  -0.117   3.204   8.822 -0.4330 -0.1849 -2.1957
  184SLPC  C31521204  -0.333   3.203   8.816 -0.4975  0.4235  0.6207
  184SLPC  H15X21205  -0.339   3.268   8.905  0.1849  1.1136  0.1760
  184SLPC  H15Y21206  -0.403   3.117   8.817  0.7016 -0.5881 -0.0823
  184SLPC  C31621207  -0.349   3.281   8.685 -0.2600  0.3101  0.2001
  184SLPC  H16X21208  -0.271   3.355   8.657  0.1014  0.0919  0.6372
  184SLPC  H16Y21209  -0.445   3.338   8.687 -1.1663 -1.1315 -1.1311
  184SLPC  C31721210  -0.370   3.176   8.577 -0.5499  0.2521 -0.3803
  184SLPC  H17X21211  -0.448   3.106   8.613 -0.2928  0.8946  1.4557
  184SLPC  H17Y21212  -0.272   3.124   8.564 -0.0535  1.4977 -1.7598
  184SLPC  C31821213  -0.424   3.231   8.444  0.1668  0.2541 -0.2865
  184SLPC  H18X21214  -0.378   3.325   8.406 -1.2603  0.4550 -1.5209
  184SLPC  H18Y21215  -0.531   3.260   8.454  0.0223 -0.5869  0.6737
  184SLPC  H18Z21216  -0.407   3.152   8.368  2.0151  1.3388 -1.0552
  185SLPC     N21217   5.255   6.535   6.139 -0.2150 -0.1912  0.0644
  185SLPC   C1321218   5.314   6.565   6.008 -0.1144  0.4028  0.4588
  185SLPC  H13A21219   5.393   6.638   6.021  0.9148 -0.4901 -0.5902
  185SLPC  H13B21220   5.359   6.474   5.970 -0.0012  0.6922 -0.1015
  185SLPC  H13C21221   5.238   6.603   5.942  1.1067 -0.2052 -1.3501
  185SLPC   C1421222   5.358   6.461   6.220  0.2554 -0.1499 -0.2067
  185SLPC  H14A21223   5.454   6.510   6.213 -0.8309  2.5391  2.3749
  185SLPC  H14B21224   5.334   6.452   6.325  0.1255  0.4075 -0.1871
  185SLPC  H14C21225   5.379   6.362   6.184 -0.5827  0.1127 -1.4457
  185SLPC   C1521226   5.138   6.440   6.115 -0.3423  0.7815  0.3535
  185SLPC  H15A21227   5.054   6.491   6.069  0.1495  1.0532 -0.2380
  185SLPC  H15B21228   5.174   6.352   6.064 -0.1807 -0.4780  2.5516
  185SLPC  H15C21229   5.090   6.411   6.208 -0.6385 -2.1346 -0.6555
  185SLPC   C1221230   5.192   6.661   6.209 -0.1775 -0.6307 -0.0460
  185SLPC  H12A21231   5.094   6.671   6.165  0.1873  3.1448 -0.1792
  185SLPC  H12B21232   5.247   6.751   6.184  1.3743 -1.4607  0.2900
  185SLPC   C1121233   5.183   6.648   6.360  0.0799 -0.0794 -0.0110
  185SLPC  H11A21234   5.117   6.566   6.393 -0.6036  1.1367  1.7057
  185SLPC  H11B21235   5.124   6.732   6.402 -0.1429 -1.5729  2.7032
  185SLPC     P21236   5.421   6.748   6.415 -0.4426 -0.0203 -0.2348
  185SLPC   O1321237   5.557   6.687   6.401  0.4974  0.5955 -0.8070
  185SLPC   O1421238   5.386   6.852   6.311  0.1143 -0.7171  0.4287
  185SLPC   O1221239   5.308   6.640   6.420 -0.2059  0.1217  0.1480
  185SLPC   O1121240   5.398   6.813   6.553  0.3785  0.2037  0.4486
  185SLPC    C121241   5.316   6.770   6.659  0.3812 -0.0064  0.4844
  185SLPC    HA21242   5.212   6.805   6.639  0.3646  0.2521  1.0009
  185SLPC    HB21243   5.306   6.659   6.662 -1.4777  0.1278 -0.1899
  185SLPC    C221244   5.339   6.828   6.800 -0.4505 -0.2843  0.4086
  185SLPC    HS21245   5.436   6.790   6.837 -0.5927 -0.5487  0.5088
  185SLPC   O2121246   5.227   6.799   6.883 -0.6223 -0.0070 -0.1950
  185SLPC   C2121247   5.235   6.675   6.936  0.4032 -0.8608  0.9554
  185SLPC   O2221248   5.317   6.588   6.902  0.5679 -0.2850  0.2417
  185SLPC   C2221249   5.152   6.662   7.057  0.1961  0.4791  0.0640
  185SLPC   H2R21250   5.063   6.728   7.056 -0.4473 -0.3669  0.0655
  185SLPC   H2S21251   5.134   6.553   7.069  1.7448  0.3620  1.4790
  185SLPC    C321252   5.361   6.985   6.797  0.6225 -0.3286 -0.1943
  185SLPC    HX21253   5.257   7.021   6.805  0.9426  0.3923  0.8118
  185SLPC    HY21254   5.402   7.027   6.702 -1.6921 -0.2863 -1.2013
  185SLPC   O3121255   5.430   7.022   6.916 -0.4018  0.2102 -0.4164
  185SLPC   C3121256   5.561   7.018   6.912  0.7227 -0.2596  0.7211
  185SLPC   O3221257   5.630   6.987   6.816  0.1945 -0.0909 -0.1424
  185SLPC   C3221258   5.611   7.073   7.050  0.6746  0.2223 -0.4492
  185SLPC   H2X21259   5.627   7.183   7.046  0.4765  0.2485 -0.5335
  185SLPC   H2Y21260   5.711   7.033   7.077 -0.5469 -1.5484  1.6374
  185SLPC   C2321261   5.235   6.689   7.184 -0.0489 -0.2211  0.4216
  185SLPC   H3R21262   5.254   6.799   7.183 -0.4181 -0.1394 -2.6727
  185SLPC   H3S21263   5.338   6.649   7.188  0.2443  0.1134 -2.8178
  185SLPC   C2421264   5.162   6.651   7.314  0.0924  0.5375  0.7928
  185SLPC   H4R21265   5.137   6.543   7.314  0.3625  0.4467 -1.8167
  185SLPC   H4S21266   5.064   6.703   7.309  1.0313  2.2580 -0.9190
  185SLPC   C2521267   5.247   6.688   7.442 -0.1150 -0.4669  0.4897
  185SLPC   H5R21268   5.251   6.799   7.446  1.1639 -0.4282 -1.1261
  185SLPC   H5S21269   5.355   6.661   7.438  0.1791  0.5283  1.5694
  185SLPC   C2621270   5.183   6.641   7.571  0.1837 -0.2348 -0.2411
  185SLPC   H6R21271   5.182   6.530   7.572  0.4566 -0.2340  0.1407
  185SLPC   H6S21272   5.078   6.676   7.564 -0.5467 -2.6732 -2.1218
  185SLPC   C2721273   5.264   6.697   7.687 -0.2407 -0.3882 -0.5665
  185SLPC   H7R21274   5.239   6.804   7.700  0.9373 -0.4944  3.2430
  185SLPC   H7S21275   5.367   6.694   7.646 -0.2551 -0.1703 -0.6186
  185SLPC   C2821276   5.242   6.618   7.815  0.0069  0.0095  0.4268
  185SLPC   H8R21277   5.293   6.521   7.800  0.9847  0.5485  0.2636
  185SLPC   H8S21278   5.133   6.599   7.821  0.4053 -1.8298  2.0489
  185SLPC   C2921279   5.310   6.690   7.933 -0.1391  0.4603 -0.5423
  185SLPC   H9R21280   5.412   6.729   7.917  0.0646  0.3682  0.4824
  185SLPC  C21021281   5.256   6.710   8.061 -0.3309 -0.5759  0.3889
  185SLPC  H10R21282   5.316   6.761   8.138  0.8847 -1.4844  0.0488
  185SLPC  C21121283   5.108   6.674   8.097 -0.1148  0.2454  0.0307
  185SLPC  H11R21284   5.080   6.585   8.037  2.9817 -0.2782 -0.7085
  185SLPC  H11S21285   5.041   6.752   8.055 -1.9704 -1.8173 -0.9554
  185SLPC  C21221286   5.080   6.651   8.243  0.2210  0.6243 -0.1195
  185SLPC  H12R21287   5.153   6.586   8.295  1.5290  0.1541 -2.4692
  185SLPC  C21321288   4.974   6.705   8.314 -0.1244  0.2564  0.2360
  185SLPC  H13R21289   4.973   6.707   8.424 -4.4183  2.5975  0.2315
  185SLPC  C21421290   4.866   6.794   8.265 -0.0209 -0.9830  0.0057
  185SLPC  H14R21291   4.765   6.749   8.273  0.4878 -1.9608  1.0392
  185SLPC  H14S21292   4.871   6.829   8.159  1.1475 -1.3243 -0.0648
  185SLPC  C21521293   4.859   6.928   8.352 -0.0877 -0.6488 -0.2746
  185SLPC  H15R21294   4.825   6.908   8.456 -1.6365 -0.4097 -0.7144
  185SLPC  H15S21295   4.778   6.983   8.300  0.0408  1.2562  1.4468
  185SLPC  C21621296   4.969   7.033   8.351  0.4413  0.2835 -0.2715
  185SLPC  H16R21297   5.054   7.002   8.415 -0.1156  1.0089  0.8356
  185SLPC  H16S21298   4.924   7.121   8.402 -2.1059 -0.8943 -0.3578
  185SLPC  C21721299   5.014   7.068   8.207 -0.3628 -0.6359 -0.4419
  185SLPC  H17R21300   4.923   7.091   8.148  0.0438 -0.2323 -0.9141
  185SLPC  H17S21301   5.070   6.982   8.165  1.2648 -0.0428  0.4314
  185SLPC  C21821302   5.111   7.186   8.194  0.4682  1.1059  0.0464
  185SLPC  H18R21303   5.063   7.284   8.209  1.0515  1.3564  0.3027
  185SLPC  H18S21304   5.153   7.182   8.091 -1.7811 -0.9453 -0.8327
  185SLPC  H18T21305   5.204   7.184   8.255  0.3541  0.5733  0.2121
  185SLPC   C3321306   5.512   7.060   7.166  0.4780  0.9443 -0.6931
  185SLPC   H3X21307   5.476   6.955   7.167 -0.7851  1.3836 -0.2074
  185SLPC   H3Y21308   5.418   7.117   7.153 -0.4741 -0.4966 -0.1768
  185SLPC   C3421309   5.573   7.083   7.301 -0.4456 -0.2579  0.0619
  185SLPC   H4X21310   5.627   7.179   7.302  1.0468 -1.0927  1.0602
  185SLPC   H4Y21311   5.650   7.005   7.322 -0.2191 -0.0908 -0.1486
  185SLPC   C3521312   5.475   7.072   7.419  0.0942  0.0606 -0.0100
  185SLPC   H5X21313   5.414   6.979   7.414 -0.1265 -0.0280  3.0730
  185SLPC   H5Y21314   5.404   7.154   7.395  0.9274  0.8669  0.2563
  185SLPC   C3621315   5.552   7.095   7.546 -0.0303 -0.0864  0.7838
  185SLPC   H6X21316   5.587   7.201   7.540  0.3151 -0.2441 -0.1684
  185SLPC   H6Y21317   5.638   7.027   7.562  0.3289  0.0161 -0.6256
  185SLPC   C3721318   5.461   7.088   7.668  0.1648  0.2873 -0.6876
  185SLPC   H7X21319   5.440   6.984   7.698 -0.6320  1.0018  1.3143
  185SLPC   H7Y21320   5.362   7.133   7.644  0.1578  1.1944  0.9550
  185SLPC   C3821321   5.524   7.153   7.790 -0.1989  0.1186  1.1219
  185SLPC   H8X21322   5.555   7.253   7.753 -4.0900  0.1498 -2.2960
  185SLPC   H8Y21323   5.614   7.099   7.830 -0.4928 -0.0839  1.5167
  185SLPC   C3921324   5.414   7.162   7.898  0.6199 -1.2281  0.6533
  185SLPC   H9X21325   5.370   7.062   7.916  0.0286 -1.3749 -1.4767
  185SLPC   H9Y21326   5.347   7.236   7.847  0.4267 -2.6355 -1.2050
  185SLPC  C31021327   5.461   7.215   8.034 -1.0084  0.0632  0.2609
  185SLPC  H10X21328   5.372   7.255   8.089  1.4094  0.4453  4.0610
  185SLPC  H10Y21329   5.543   7.288   8.021  0.1903 -1.0765  1.3629
  185SLPC  C31121330   5.511   7.097   8.119 -0.1789  0.1653 -0.2520
  185SLPC  H11X21331   5.611   7.070   8.079 -0.4171 -1.1790  0.0424
  185SLPC  H11Y21332   5.450   7.006   8.098 -0.3660  0.4205 -0.8416
  185SLPC  C31221333   5.516   7.120   8.262  0.3693  0.3247 -0.2838
  185SLPC  H12X21334   5.570   7.040   8.317 -0.8518 -1.4662 -1.6395
  185SLPC  H12Y21335   5.412   7.107   8.300  0.4268 -1.8323 -0.8257
  185SLPC  C31321336   5.575   7.258   8.305  0.1427 -0.3626 -0.0681
  185SLPC  H13X21337   5.519   7.349   8.275 -0.1955 -0.3834  0.4891
  185SLPC  H13Y21338   5.679   7.278   8.270  0.0905  1.1923  0.5963
  185SLPC  C31421339   5.583   7.263   8.460 -0.1336  0.4425 -0.3226
  185SLPC  H14X21340   5.685   7.235   8.495 -0.9021  0.3027  1.9194
  185SLPC  H14Y21341   5.510   7.188   8.498 -0.5109 -0.0243 -1.9311
  185SLPC  C31521342   5.570   7.412   8.502 -0.2496  0.4994  0.0181
  185SLPC  H15X21343   5.461   7.428   8.518 -0.1592 -0.0890  1.2823
  185SLPC  H15Y21344   5.614   7.481   8.427 -0.9912 -0.0774 -0.9520
  185SLPC  C31621345   5.626   7.448   8.640  1.0695 -0.0458  0.2489
  185SLPC  H16X21346   5.735   7.426   8.648  0.9167 -0.5583  0.9735
  185SLPC  H16Y21347   5.574   7.379   8.710 -0.0155 -0.0070 -0.5047
  185SLPC  C31721348   5.605   7.593   8.683  0.1681 -0.5415  0.6669
  185SLPC  H17X21349   5.498   7.615   8.664  0.8766  1.5434 -1.2121
  185SLPC  H17Y21350   5.667   7.668   8.628 -3.1036 -1.4958 -4.7319
  185SLPC  C31821351   5.623   7.611   8.834 -0.4947  0.2830 -0.3511
  185SLPC  H18X21352   5.559   7.539   8.890  0.5124 -0.8846 -0.6723
  185SLPC  H18Y21353   5.597   7.714   8.864  1.2963  0.4604  0.6016
  185SLPC  H18Z21354   5.729   7.590   8.857 -1.5177 -1.5957  3.0712
  186SLPC     N21355   6.744   2.338   6.417  0.6249 -0.6419 -0.2183
  186SLPC   C1321356   6.626   2.275   6.492  0.4020  0.1807  0.0021
  186SLPC  H13A21357   6.565   2.353   6.536 -1.2108 -0.0952 -1.7102
  186SLPC  H13B21358   6.558   2.222   6.427  1.8808 -0.7127 -0.8640
  186SLPC  H13C21359   6.646   2.204   6.571 -1.6494 -1.7148 -1.1503
  186SLPC   C1421360   6.821   2.231   6.355  0.0803 -0.4938 -0.5234
  186SLPC  H14A21361   6.763   2.184   6.277 -0.9398 -2.2343  1.2170
  186SLPC  H14B21362   6.908   2.262   6.299 -0.1971 -1.0350 -1.2547
  186SLPC  H14C21363   6.856   2.153   6.421  1.6126  0.1161 -0.5925
  186SLPC   C1521364   6.827   2.392   6.533  0.2397  0.4232 -0.6559
  186SLPC  H15A21365   6.764   2.445   6.603 -0.3875  0.2064 -1.0525
  186SLPC  H15B21366   6.869   2.306   6.584  0.8245  1.5767  0.8614
  186SLPC  H15C21367   6.912   2.456   6.512  1.2528 -0.4235  0.7181
  186SLPC   C1221368   6.695   2.444   6.325  0.3554 -0.3915  0.5772
  186SLPC  H12A21369   6.781   2.505   6.299  0.9333 -1.8408 -1.0041
  186SLPC  H12B21370   6.610   2.490   6.374 -0.0172  0.8446 -1.1559
  186SLPC   C1121371   6.642   2.399   6.187  0.2102 -0.8474  0.3277
  186SLPC  H11A21372   6.721   2.341   6.135 -0.0632 -2.1938  1.3859
  186SLPC  H11B21373   6.625   2.492   6.127 -0.3770 -0.7531  0.6425
  186SLPC     P21374   6.387   2.402   6.241 -0.0592 -0.1299  0.0642
  186SLPC   O1321375   6.352   2.491   6.121 -0.6609 -0.4377  0.2127
  186SLPC   O1421376   6.281   2.315   6.286 -0.0542 -0.3489 -0.1672
  186SLPC   O1221377   6.523   2.324   6.208 -0.1647 -0.3682  0.5142
  186SLPC   O1121378   6.425   2.483   6.368  0.3017  0.0700 -0.6132
  186SLPC    C121379   6.352   2.609   6.394 -0.3449 -0.3899  0.7132
  186SLPC    HA21380   6.360   2.673   6.303 -0.9753 -1.9992 -0.5018
  186SLPC    HB21381   6.245   2.583   6.411  0.4247 -2.8543  2.0483
  186SLPC    C221382   6.419   2.688   6.507  0.5555 -0.4422 -0.2140
  186SLPC    HS21383   6.529   2.687   6.498  0.5377  2.6891 -1.3711
  186SLPC   O2121384   6.366   2.641   6.630 -0.0979  0.2497  0.5812
  186SLPC   C2121385   6.449   2.558   6.705 -0.5666  0.2308 -0.6820
  186SLPC   O2221386   6.561   2.527   6.663  0.1475 -0.9692 -0.0795
  186SLPC   C2221387   6.386   2.514   6.834  1.0132 -0.1557  0.5131
  186SLPC   H2R21388   6.366   2.612   6.882  1.8703  0.4402 -0.3181
  186SLPC   H2S21389   6.288   2.472   6.803  1.9216 -2.1751  0.2963
  186SLPC    C321390   6.390   2.848   6.503 -0.4169 -0.4793 -0.2218
  186SLPC    HX21391   6.279   2.851   6.495 -0.3750 -0.8872 -0.9781
  186SLPC    HY21392   6.437   2.876   6.407 -1.1106  4.9911  0.8614
  186SLPC   O3121393   6.443   2.925   6.607 -0.3839 -0.1252  0.0829
  186SLPC   C3121394   6.577   2.945   6.608 -0.4272 -0.4069  0.0406
  186SLPC   O3221395   6.654   2.899   6.530 -0.1557  0.2560  0.6567
  186SLPC   C3221396   6.611   3.048   6.721 -0.2149  0.2450 -0.3233
  186SLPC   H2X21397   6.518   3.079   6.774  0.4323  0.2727  0.7811
  186SLPC   H2Y21398   6.665   3.129   6.668  3.4466 -0.9594  1.4488
  186SLPC   C2321399   6.472   2.416   6.916 -0.5685  0.0784 -0.6383
  186SLPC   H3R21400   6.570   2.462   6.939  0.1211 -2.7354  2.4672
  186SLPC   H3S21401   6.511   2.326   6.863  2.1415  1.6948 -1.4535
  186SLPC   C2421402   6.409   2.371   7.052  0.3154  0.0305  0.6515
  186SLPC   H4R21403   6.313   2.320   7.030 -0.8595  1.8635  1.3896
  186SLPC   H4S21404   6.384   2.466   7.106  1.7079  0.5803  0.3628
  186SLPC   C2521405   6.505   2.286   7.132 -0.1813  0.9333 -0.1662
  186SLPC   H5R21406   6.589   2.354   7.157 -0.7185  2.3945 -2.1664
  186SLPC   H5S21407   6.535   2.196   7.074 -0.9163  2.9784 -3.8622
  186SLPC   C2621408   6.432   2.241   7.257  0.3898  0.1244  0.0883
  186SLPC   H6R21409   6.384   2.143   7.234 -0.0887  0.3295  0.1981
  186SLPC   H6S21410   6.347   2.309   7.280 -0.2025  0.2548 -2.3454
  186SLPC   C2721411   6.526   2.241   7.382  0.1449 -0.0205  0.0338
  186SLPC   H7R21412   6.559   2.347   7.389  0.0840 -0.0438  0.7733
  186SLPC   H7S21413   6.614   2.175   7.364  0.2337 -0.1189  0.7766
  186SLPC   C2821414   6.446   2.209   7.503 -0.3380 -0.0782  0.2883
  186SLPC   H8R21415   6.396   2.110   7.490 -2.2689  0.8801  0.2156
  186SLPC   H8S21416   6.369   2.288   7.516 -0.0754  0.0356  1.2251
  186SLPC   C2921417   6.531   2.213   7.626  0.0431  0.4437 -0.3988
  186SLPC   H9R21418   6.634   2.246   7.608  0.0309  0.9840  0.4836
  186SLPC  C21021419   6.500   2.169   7.748  0.2839 -0.2115 -0.2221
  186SLPC  H10R21420   6.578   2.175   7.825 -0.4791  1.1187  0.4710
  186SLPC  C21121421   6.375   2.092   7.789  1.0100 -0.6909 -0.5004
  186SLPC  H11R21422   6.395   1.986   7.816  0.0570 -1.1550 -1.5840
  186SLPC  H11S21423   6.313   2.088   7.697  0.6092  0.0280 -0.2670
  186SLPC  C21221424   6.291   2.164   7.897  1.0185 -0.2816  0.7407
  186SLPC  H12R21425   6.289   2.274   7.890  0.4249 -0.2984  0.5747
  186SLPC  C21321426   6.218   2.116   8.000 -0.0295 -0.2344  0.4686
  186SLPC  H13R21427   6.153   2.182   8.059  2.6354  2.6028  0.3599
  186SLPC  C21421428   6.195   1.960   8.014  0.0407 -0.1267 -0.6361
  186SLPC  H14R21429   6.216   1.921   7.912 -2.9774 -0.9681 -1.0129
  186SLPC  H14S21430   6.091   1.942   8.050  1.0356  1.2740  3.1649
  186SLPC  C21521431   6.283   1.897   8.131  0.3788 -0.3598 -0.0485
  186SLPC  H15R21432   6.387   1.916   8.097  0.6163  0.1553  0.9556
  186SLPC  H15S21433   6.253   1.790   8.128 -0.4439 -0.1402 -0.0067
  186SLPC  C21621434   6.249   1.952   8.276 -0.4032 -0.5390  0.1897
  186SLPC  H16R21435   6.140   1.974   8.281 -0.5982 -0.0810 -4.0544
  186SLPC  H16S21436   6.308   2.041   8.306  2.7294 -1.9204 -1.6515
  186SLPC  C21721437   6.261   1.854   8.396  0.0013  0.0163 -0.1768
  186SLPC  H17R21438   6.254   1.917   8.488 -3.3216  1.7686 -1.5584
  186SLPC  H17S21439   6.364   1.811   8.399 -0.4359 -1.3219 -3.3730
  186SLPC  C21821440   6.152   1.744   8.402 -0.2424 -0.2573 -0.2751
  186SLPC  H18R21441   6.171   1.663   8.328 -0.9101  0.4760 -1.2771
  186SLPC  H18S21442   6.048   1.780   8.383 -0.2954  0.3013  1.0412
  186SLPC  H18T21443   6.150   1.710   8.508 -0.9443 -1.7602 -0.7495
  186SLPC   C3321444   6.714   3.004   6.832  0.6565  0.1689  0.2078
  186SLPC   H3X21445   6.786   3.086   6.855 -0.2437  0.9364  0.3299
  186SLPC   H3Y21446   6.784   2.929   6.790  0.9419 -0.4113  1.6921
  186SLPC   C3421447   6.645   2.966   6.965 -0.3584 -0.4265  0.5707
  186SLPC   H4X21448   6.551   3.022   6.985 -0.2824 -0.7623  1.9276
  186SLPC   H4Y21449   6.720   2.962   7.047  0.8632 -0.7164 -0.5467
  186SLPC   C3521450   6.608   2.815   6.965  0.3256  0.0634 -0.0644
  186SLPC   H5X21451   6.702   2.756   6.975  0.1100  0.1066  2.4994
  186SLPC   H5Y21452   6.549   2.764   6.887 -1.4242 -0.0485  1.3045
  186SLPC   C3621453   6.531   2.785   7.095  0.0762  0.5930  0.0406
  186SLPC   H6X21454   6.486   2.684   7.079 -1.0262  0.9185  1.0300
  186SLPC   H6Y21455   6.439   2.846   7.100 -0.0677  0.4798 -0.9453
  186SLPC   C3721456   6.617   2.805   7.216  0.1865  0.4840  0.3256
  186SLPC   H7X21457   6.643   2.912   7.229 -0.3442  0.4365  1.8918
  186SLPC   H7Y21458   6.714   2.752   7.201  0.4334  1.2337 -0.7151
  186SLPC   C3821459   6.545   2.762   7.344  0.2616  0.3167 -0.0782
  186SLPC   H8X21460   6.530   2.653   7.330 -2.6247  0.9782 -2.6176
  186SLPC   H8Y21461   6.441   2.801   7.348 -0.2176 -0.9273 -0.3879
  186SLPC   C3921462   6.626   2.778   7.478 -0.3050  0.0263  0.4487
  186SLPC   H9X21463   6.609   2.886   7.502  1.2485  1.0338 -2.7080
  186SLPC   H9Y21464   6.733   2.759   7.454 -1.1542 -0.7483 -2.8467
  186SLPC  C31021465   6.589   2.692   7.604 -1.0242 -0.7472  0.3529
  186SLPC  H10X21466   6.631   2.592   7.578  1.6039  0.5713 -0.6705
  186SLPC  H10Y21467   6.479   2.693   7.615 -0.8359  0.6611  2.3987
  186SLPC  C31121468   6.653   2.749   7.729  0.7592 -0.5680  0.1299
  186SLPC  H11X21469   6.634   2.858   7.722  3.8695 -0.0299 -1.0364
  186SLPC  H11Y21470   6.764   2.739   7.725  0.8919  1.1776 -0.9559
  186SLPC  C31221471   6.611   2.684   7.853  0.0852  0.2985 -0.3750
  186SLPC  H12X21472   6.629   2.574   7.853  0.2644  0.3289 -0.5362
  186SLPC  H12Y21473   6.501   2.702   7.859  0.0868  0.6944 -1.4582
  186SLPC  C31321474   6.667   2.749   7.977 -0.1579  0.2006 -0.3529
  186SLPC  H13X21475   6.633   2.855   7.974 -3.3361 -0.7388  0.0493
  186SLPC  H13Y21476   6.777   2.733   7.977 -0.3264 -0.9859 -0.6047
  186SLPC  C31421477   6.618   2.685   8.103  0.6883 -0.7817  0.2376
  186SLPC  H14X21478   6.656   2.581   8.106  1.4020 -0.6665 -2.9981
  186SLPC  H14Y21479   6.507   2.683   8.113  0.6662  1.1888  0.7162
  186SLPC  C31521480   6.679   2.751   8.227 -0.1348 -0.1487  0.0246
  186SLPC  H15X21481   6.649   2.858   8.229 -0.9814 -0.2733 -3.5952
  186SLPC  H15Y21482   6.790   2.753   8.224  0.0036 -3.0750  1.5793
  186SLPC  C31621483   6.643   2.683   8.357 -0.3657  0.3325  0.9824
  186SLPC  H16X21484   6.710   2.597   8.381  0.4528  0.8772  0.6850
  186SLPC  H16Y21485   6.542   2.638   8.347 -0.5609  0.8331  0.6953
  186SLPC  C31721486   6.652   2.787   8.474 -0.1581  0.2465  0.3755
  186SLPC  H17X21487   6.550   2.828   8.488  0.5487  1.7603  1.2711
  186SLPC  H17Y21488   6.726   2.866   8.448 -1.1626  0.1145 -3.0672
  186SLPC  C31821489   6.693   2.716   8.595  0.3552 -0.2355  0.0131
  186SLPC  H18X21490   6.719   2.792   8.672 -1.8087  1.5869 -1.0026
  186SLPC  H18Y21491   6.781   2.652   8.575  0.9854  0.2016  1.3332
  186SLPC  H18Z21492   6.604   2.652   8.615  0.7146 -0.3048  1.4567
  187SLPC     N21493   6.474   6.205   6.247 -1.3005  0.0345 -0.1290
  187SLPC   C1321494   6.571   6.248   6.135  0.5103 -0.2404 -0.7498
  187SLPC  H13A21495   6.672   6.227   6.165  0.4532 -0.3075 -0.6044
  187SLPC  H13B21496   6.559   6.186   6.047 -0.2044  1.6583 -2.0271
  187SLPC  H13C21497   6.564   6.353   6.112 -0.9226  0.9379  4.4545
  187SLPC   C1421498   6.330   6.214   6.200 -0.7837  0.6088 -0.4479
  187SLPC  H14A21499   6.273   6.180   6.285  0.6542 -1.6066 -0.3178
  187SLPC  H14B21500   6.289   6.310   6.177  0.6030  1.0660 -1.1041
  187SLPC  H14C21501   6.313   6.144   6.119 -2.4654  0.2317  0.2230
  187SLPC   C1521502   6.485   6.300   6.364  0.8341 -0.1464 -0.0411
  187SLPC  H15A21503   6.407   6.277   6.435  0.5561 -2.1194 -0.9404
  187SLPC  H15B21504   6.574   6.275   6.420 -0.2340 -2.8426  0.5401
  187SLPC  H15C21505   6.464   6.402   6.336  0.8834  0.5540  2.4205
  187SLPC   C1221506   6.502   6.064   6.293  0.7219 -0.0101 -0.3511
  187SLPC  H12A21507   6.469   5.986   6.226 -1.3945  1.5885 -1.2281
  187SLPC  H12B21508   6.435   6.055   6.377 -2.0487 -0.6847 -2.5616
  187SLPC   C1121509   6.644   6.042   6.352  0.3054  0.6699  0.0695
  187SLPC  H11A21510   6.723   6.073   6.281  0.6358  1.3945  0.7412
  187SLPC  H11B21511   6.669   5.934   6.352 -0.8978  0.3767  1.2692
  187SLPC     P21512   6.647   6.053   6.610  0.2718 -0.0501  0.0610
  187SLPC   O1321513   6.771   6.000   6.661  0.6626  0.4699 -0.7893
  187SLPC   O1421514   6.577   6.149   6.697 -0.2892 -0.3398 -0.1858
  187SLPC   O1221515   6.671   6.112   6.472  0.2124 -0.1034  0.0598
  187SLPC   O1121516   6.557   5.936   6.576  0.0341  0.3703 -0.4572
  187SLPC    C121517   6.438   5.895   6.639  0.0640 -0.6135 -0.0954
  187SLPC    HA21518   6.383   5.986   6.670  2.0971  0.3034  0.9336
  187SLPC    HB21519   6.378   5.841   6.563 -1.3619  1.1155 -0.2296
  187SLPC    C221520   6.461   5.805   6.765  0.2085 -0.5197 -0.2572
  187SLPC    HS21521   6.362   5.768   6.800 -0.0185  0.8292  0.5607
  187SLPC   O2121522   6.539   5.886   6.859  0.1141  0.2740  0.1362
  187SLPC   C2121523   6.459   5.963   6.929 -0.1303 -0.5336  0.0141
  187SLPC   O2221524   6.337   5.965   6.934  1.2116  0.2456 -0.5189
  187SLPC   C2221525   6.555   6.056   7.011 -0.4053  0.3607  0.3696
  187SLPC   H2R21526   6.660   6.040   6.976 -0.5595  0.5165 -0.1658
  187SLPC   H2S21527   6.521   6.158   6.982  2.5697  1.6596  1.2166
  187SLPC    C321528   6.538   5.672   6.723 -0.2139 -0.4868 -0.3126
  187SLPC    HX21529   6.640   5.695   6.686 -0.1420  1.0348  0.7814
  187SLPC    HY21530   6.485   5.622   6.639 -0.4899 -0.4298 -0.1723
  187SLPC   O3121531   6.541   5.586   6.843 -0.5675  0.5521  0.4546
  187SLPC   C3121532   6.663   5.565   6.901 -0.5318  0.4382 -0.0925
  187SLPC   O3221533   6.770   5.605   6.851  0.2546 -0.0469  0.4685
  187SLPC   C3221534   6.651   5.493   7.037  0.0829 -0.0160 -0.5571
  187SLPC   H2X21535   6.587   5.402   7.033  0.6598 -0.4426 -0.0590
  187SLPC   H2Y21536   6.585   5.558   7.098  1.3736  1.7039 -0.9271
  187SLPC   C2321537   6.547   6.021   7.161  0.3188  0.2115  0.7601
  187SLPC   H3R21538   6.443   6.027   7.200  0.8428 -0.0221  2.2150
  187SLPC   H3S21539   6.601   6.107   7.206  0.8009  0.9713 -1.1920
  187SLPC   C2421540   6.609   5.884   7.191 -0.1338 -0.2482 -0.1378
  187SLPC   H4R21541   6.708   5.887   7.140  0.0110  0.7957  0.2031
  187SLPC   H4S21542   6.547   5.806   7.141  0.1935 -0.4711 -0.1976
  187SLPC   C2521543   6.621   5.864   7.345  0.2985 -0.4890  0.7788
  187SLPC   H5R21544   6.519   5.865   7.389  0.4638  0.3524  1.1509
  187SLPC   H5S21545   6.677   5.950   7.388 -0.9692  0.6071  0.2810
  187SLPC   C2621546   6.691   5.728   7.371 -0.3232  0.1610 -0.8611
  187SLPC   H6R21547   6.800   5.732   7.348 -0.2544 -0.3426 -0.6335
  187SLPC   H6S21548   6.648   5.663   7.292 -1.7523 -1.0243  0.8583
  187SLPC   C2721549   6.660   5.668   7.511  0.3631  0.5273  0.0727
  187SLPC   H7R21550   6.671   5.557   7.516 -0.3785  0.4364 -0.1846
  187SLPC   H7S21551   6.561   5.700   7.550 -0.4672 -0.9227 -0.7883
  187SLPC   C2821552   6.760   5.729   7.616  1.3634  0.4272  0.1736
  187SLPC   H8R21553   6.860   5.727   7.568  0.2528 -1.3062 -2.1715
  187SLPC   H8S21554   6.754   5.659   7.702  0.0006 -0.4820 -0.6408
  187SLPC   C2921555   6.712   5.866   7.669 -0.2277 -0.6093 -0.2956
  187SLPC   H9R21556   6.671   5.929   7.589  1.6887 -1.1712 -1.7553
  187SLPC  C21021557   6.700   5.905   7.799 -0.8564  0.2009 -0.4639
  187SLPC  H10R21558   6.657   6.004   7.817 -0.7061  0.2942 -0.6228
  187SLPC  C21121559   6.742   5.819   7.923  0.7070 -0.4483  0.7095
  187SLPC  H11R21560   6.805   5.733   7.892 -0.3784  0.0890 -3.2878
  187SLPC  H11S21561   6.648   5.775   7.964  0.1407  0.6269  0.6020
  187SLPC  C21221562   6.804   5.901   8.029 -0.4084 -0.2908  0.5161
  187SLPC  H12R21563   6.909   5.929   8.009 -0.9940  1.2038 -0.6184
  187SLPC  C21321564   6.746   5.951   8.143 -1.1018 -0.0840  0.5752
  187SLPC  H13R21565   6.801   6.011   8.217 -0.7719  0.3556 -0.0245
  187SLPC  C21421566   6.607   5.917   8.186  0.7045 -0.4677 -0.1695
  187SLPC  H14R21567   6.550   5.840   8.129  1.4201 -1.8105  0.9145
  187SLPC  H14S21568   6.545   6.009   8.175 -1.1479 -1.7011 -0.4093
  187SLPC  C21521569   6.599   5.880   8.340  0.5305 -0.1343 -0.0141
  187SLPC  H15R21570   6.663   5.790   8.352  0.7297  0.0375  0.2226
  187SLPC  H15S21571   6.497   5.852   8.371  0.6650 -0.9801 -0.3310
  187SLPC  C21621572   6.643   5.997   8.431  0.0252 -0.1232  0.3650
  187SLPC  H16R21573   6.594   6.091   8.398 -2.6715 -1.8818 -0.7848
  187SLPC  H16S21574   6.753   6.014   8.431 -0.0617  0.5257  2.7448
  187SLPC  C21721575   6.600   5.972   8.575 -0.3810 -0.1761 -1.2287
  187SLPC  H17R21576   6.654   5.882   8.612 -0.5663  0.2673  0.1262
  187SLPC  H17S21577   6.494   5.938   8.579  0.0457 -1.3700  0.0925
  187SLPC  C21821578   6.619   6.089   8.672  0.0450 -0.2867  0.2862
  187SLPC  H18R21579   6.569   6.185   8.643  1.1246 -0.1674 -1.2776
  187SLPC  H18S21580   6.724   6.123   8.680  0.3276 -0.1240 -3.2029
  187SLPC  H18T21581   6.582   6.054   8.771 -1.9133  0.1939 -0.2396
  187SLPC   C3321582   6.794   5.482   7.105  0.1589 -0.0683 -0.4684
  187SLPC   H3X21583   6.824   5.585   7.135 -0.7418  0.3954 -1.1063
  187SLPC   H3Y21584   6.860   5.430   7.032  0.8108  0.2793 -0.1296
  187SLPC   C3421585   6.792   5.392   7.227  0.0073 -0.6673 -0.0132
  187SLPC   H4X21586   6.749   5.292   7.206 -0.2791 -0.4094 -0.6443
  187SLPC   H4Y21587   6.727   5.429   7.309 -0.4381 -0.9238 -0.2512
  187SLPC   C3521588   6.930   5.336   7.266  0.6758  0.7965 -0.2938
  187SLPC   H5X21589   6.997   5.422   7.288  0.3352  0.7536  0.9640
  187SLPC   H5Y21590   6.979   5.291   7.177  3.5410  3.1789 -0.0164
  187SLPC   C3621591   6.929   5.233   7.386 -0.6407 -0.0345 -0.3757
  187SLPC   H6X21592   7.029   5.186   7.376 -1.3557 -1.5726 -0.3736
  187SLPC   H6Y21593   6.848   5.159   7.369 -0.2742 -0.1994 -1.4718
  187SLPC   C3721594   6.920   5.303   7.514 -0.0218  0.1648 -0.1257
  187SLPC   H7X21595   7.012   5.363   7.534  0.0289  0.7379 -2.0084
  187SLPC   H7Y21596   6.828   5.365   7.515  0.6727  1.2484  2.9017
  187SLPC   C3821597   6.900   5.207   7.640 -0.0485 -0.0564  0.5148
  187SLPC   H8X21598   6.996   5.172   7.681 -0.3015 -0.7313  0.5298
  187SLPC   H8Y21599   6.844   5.117   7.607  0.7049 -0.1491 -0.5177
  187SLPC   C3921600   6.814   5.274   7.759 -0.7938  0.2178 -0.7375
  187SLPC   H9X21601   6.713   5.302   7.723 -1.9015 -1.7584  0.7957
  187SLPC   H9Y21602   6.867   5.368   7.787  1.1958 -1.1529  0.2136
  187SLPC  C31021603   6.795   5.186   7.884  1.0551 -0.3474 -0.4157
  187SLPC  H10X21604   6.894   5.182   7.933  0.6259 -3.1573  0.3206
  187SLPC  H10Y21605   6.750   5.087   7.862 -2.5475  0.9258  0.7076
  187SLPC  C31121606   6.701   5.245   7.991 -0.2913  0.0183  0.2172
  187SLPC  H11X21607   6.743   5.194   8.080 -2.0054  0.0988  1.0947
  187SLPC  H11Y21608   6.597   5.217   7.965  0.1207  1.4979 -3.3390
  187SLPC  C31221609   6.689   5.397   8.024  0.1533 -0.1357  0.3994
  187SLPC  H12X21610   6.621   5.433   7.943 -2.5897 -1.3502  2.0831
  187SLPC  H12Y21611   6.789   5.440   7.999  0.9622 -2.8480 -1.3183
  187SLPC  C31321612   6.628   5.437   8.160  0.3413 -0.0978  1.0121
  187SLPC  H13X21613   6.557   5.352   8.172 -1.2109  1.0184 -0.1514
  187SLPC  H13Y21614   6.579   5.535   8.142 -0.6246  0.0371  4.0417
  187SLPC  C31421615   6.724   5.452   8.278 -0.4076 -0.0585 -0.3455
  187SLPC  H14X21616   6.803   5.529   8.269 -0.6279  0.4942  2.1336
  187SLPC  H14Y21617   6.768   5.352   8.299 -0.1605 -0.5995 -3.1152
  187SLPC  C31521618   6.647   5.484   8.413 -0.2647 -0.3195  0.3270
  187SLPC  H15X21619   6.571   5.405   8.435 -0.3662 -0.1040  0.7481
  187SLPC  H15Y21620   6.585   5.574   8.399 -0.1265 -0.5710 -2.1462
  187SLPC  C31621621   6.743   5.503   8.530  0.0723 -0.6534 -0.4341
  187SLPC  H16X21622   6.830   5.565   8.500 -0.5549  2.4160  3.7337
  187SLPC  H16Y21623   6.794   5.407   8.553  0.1889 -0.4837  0.0234
  187SLPC  C31721624   6.678   5.573   8.644  0.0115  0.1457  0.2136
  187SLPC  H17X21625   6.576   5.532   8.664 -0.0555  0.4620  0.5242
  187SLPC  H17Y21626   6.667   5.679   8.612 -0.2257 -0.7121 -2.7120
  187SLPC  C31821627   6.743   5.557   8.776  0.4957  0.2753  0.6650
  187SLPC  H18X21628   6.709   5.629   8.854  0.9837  0.4687  0.7025
  187SLPC  H18Y21629   6.852   5.578   8.767  0.4204  0.5642  0.4102
  187SLPC  H18Z21630   6.737   5.454   8.815  0.0897  1.1801  3.0817
  188SLPC     N21631   1.597   0.203   6.168 -0.0436 -0.3253 -0.3251
  188SLPC   C1321632   1.588   0.136   6.030 -0.7616 -0.4126 -0.0611
  188SLPC  H13A21633   1.547   0.202   5.956 -0.1109  0.7791  0.6317
  188SLPC  H13B21634   1.690   0.113   6.001  0.2874  1.6340  1.8481
  188SLPC  H13C21635   1.530   0.045   6.041 -0.1742 -0.8052 -0.1571
  188SLPC   C1421636   1.698   0.311   6.166  0.0459  0.3237  0.4401
  188SLPC  H14A21637   1.678   0.395   6.102 -0.7378  0.9355  1.4664
  188SLPC  H14B21638   1.698   0.361   6.262 -2.2590  2.4624 -0.6215
  188SLPC  H14C21639   1.799   0.274   6.157  0.2712  1.1142 -0.2890
  188SLPC   C1521640   1.649   0.104   6.267  0.5334 -0.2654  0.1753
  188SLPC  H15A21641   1.746   0.071   6.233  1.7811  1.1674  2.2272
  188SLPC  H15B21642   1.645   0.146   6.367 -0.0080  0.2893 -0.0782
  188SLPC  H15C21643   1.598   0.010   6.281  0.5551 -0.6835 -2.3866
  188SLPC   C1221644   1.462   0.258   6.218 -0.0981  0.6455  0.0890
  188SLPC  H12A21645   1.399   0.170   6.220  0.6023  0.1449  0.8181
  188SLPC  H12B21646   1.418   0.313   6.136 -1.7899 -2.0758 -0.9251
  188SLPC   C1121647   1.461   0.326   6.358  0.1646 -0.0700 -0.4591
  188SLPC  H11A21648   1.362   0.375   6.371  0.5707  0.5451  0.3371
  188SLPC  H11B21649   1.536   0.407   6.366 -2.0801  2.3215 -2.6736
  188SLPC     P21650   1.372   0.147   6.534  0.0571 -0.1139  0.2503
  188SLPC   O1321651   1.243   0.133   6.455 -0.0600 -0.4536 -0.0290
  188SLPC   O1421652   1.438   0.026   6.593  0.2588  0.2162  0.4940
  188SLPC   O1221653   1.480   0.230   6.457  0.6170  0.3079 -0.1458
  188SLPC   O1121654   1.341   0.248   6.651  0.1961 -0.0177 -0.0886
  188SLPC    C121655   1.240   0.347   6.646  0.6557 -0.5240 -0.5767
  188SLPC    HA21656   1.289   0.443   6.669  2.0446 -1.3154 -0.1699
  188SLPC    HB21657   1.191   0.354   6.546  0.3418  2.7272 -0.2363
  188SLPC    C221658   1.135   0.320   6.758  0.6540  0.2785  0.4584
  188SLPC    HS21659   1.053   0.394   6.752 -0.8426 -1.3097  1.0282
  188SLPC   O2121660   1.196   0.320   6.887 -0.5615 -0.0780  0.3608
  188SLPC   C2121661   1.237   0.443   6.933  0.1122  0.3502  0.7874
  188SLPC   O2221662   1.200   0.551   6.891  0.1274 -0.0466 -0.2650
  188SLPC   C2221663   1.332   0.423   7.057 -0.2756 -0.3571  0.3120
  188SLPC   H2R21664   1.364   0.318   7.073 -1.7646 -1.1372 -1.6024
  188SLPC   H2S21665   1.417   0.490   7.033  0.0885 -1.4205 -1.4530
  188SLPC    C321666   1.077   0.176   6.738 -0.3631 -0.1787  0.4915
  188SLPC    HX21667   1.154   0.097   6.746  0.3871  0.4602 -0.1835
  188SLPC    HY21668   1.045   0.177   6.631  2.3589  0.5248 -0.3640
  188SLPC   O3121669   0.964   0.157   6.826 -0.1664  0.1498  0.1902
  188SLPC   C3121670   0.857   0.217   6.785 -0.2844 -0.2367 -0.5555
  188SLPC   O3221671   0.852   0.311   6.708  0.1231  0.4782  1.0622
  188SLPC   C3221672   0.730   0.165   6.852  0.3439  1.2263  0.4312
  188SLPC   H2X21673   0.721   0.056   6.838  2.2570  1.1089 -0.0520
  188SLPC   H2Y21674   0.646   0.215   6.799 -0.7568  0.3134  1.3081
  188SLPC   C2321675   1.273   0.486   7.184  0.0518  0.0184  0.2067
  188SLPC   H3R21676   1.255   0.593   7.158  2.8049  0.4688 -0.0184
  188SLPC   H3S21677   1.336   0.490   7.275 -1.1031  2.1748  0.9470
  188SLPC   C2421678   1.147   0.418   7.224 -0.4242 -0.3609 -0.2583
  188SLPC   H4R21679   1.086   0.396   7.134  1.1174 -1.0386 -1.1508
  188SLPC   H4S21680   1.095   0.486   7.295 -1.5143 -0.9177 -0.5098
  188SLPC   C2521681   1.159   0.277   7.298 -0.1142 -0.1450 -0.4210
  188SLPC   H5R21682   1.235   0.290   7.377 -1.3119  0.1456  0.7053
  188SLPC   H5S21683   1.207   0.208   7.226  1.2121  1.1382 -0.7798
  188SLPC   C2621684   1.026   0.216   7.345 -0.2843 -0.2397  0.6991
  188SLPC   H6R21685   1.065   0.121   7.390  0.4433  0.2148  1.0393
  188SLPC   H6S21686   0.963   0.197   7.256 -0.1532 -0.8321  0.7272
  188SLPC   C2721687   0.946   0.295   7.447  0.2627  0.0521  0.1500
  188SLPC   H7R21688   0.884   0.365   7.387  0.0806 -0.8975 -0.7673
  188SLPC   H7S21689   1.014   0.363   7.504 -0.5318  0.2845  0.8305
  188SLPC   C2821690   0.861   0.211   7.545  0.9664 -0.2158 -0.5334
  188SLPC   H8R21691   0.844   0.272   7.636  0.7609  0.8751 -1.2929
  188SLPC   H8S21692   0.913   0.119   7.578 -0.6132 -0.5484  1.0201
  188SLPC   C2921693   0.735   0.187   7.475  0.3368  0.0170  0.1352
  188SLPC   H9R21694   0.719   0.090   7.424 -1.1740 -0.1385  0.8697
  188SLPC  C21021695   0.631   0.274   7.470 -0.3633  0.5401  0.2737
  188SLPC  H10R21696   0.536   0.244   7.423 -1.4580  0.1568  2.6633
  188SLPC  C21121697   0.625   0.413   7.534 -0.0378 -0.1036 -0.6243
  188SLPC  H11R21698   0.578   0.491   7.470  2.1675  1.4085 -0.4650
  188SLPC  H11S21699   0.728   0.450   7.554 -1.2380  3.0639 -0.0228
  188SLPC  C21221700   0.537   0.425   7.660 -0.0807  0.1648  0.0054
  188SLPC  H12R21701   0.429   0.413   7.644  0.1005 -1.8468  0.1112
  188SLPC  C21321702   0.580   0.431   7.786  0.0315  0.4344 -0.2106
  188SLPC  H13R21703   0.516   0.451   7.873 -1.1459 -0.2760 -0.8933
  188SLPC  C21421704   0.731   0.438   7.827  0.3003 -0.7769  0.1104
  188SLPC  H14R21705   0.803   0.454   7.744  1.4632 -1.0082  1.0610
  188SLPC  H14S21706   0.756   0.357   7.899 -1.4691  0.8248  2.6003
  188SLPC  C21521707   0.737   0.569   7.915  0.2364 -0.1190 -0.6639
  188SLPC  H15R21708   0.661   0.639   7.875 -0.5200  0.7907  2.3029
  188SLPC  H15S21709   0.837   0.616   7.900  0.5941 -0.5819  0.2284
  188SLPC  C21621710   0.709   0.536   8.063  0.0594  0.2816 -0.0450
  188SLPC  H16R21711   0.776   0.455   8.099 -1.1979 -0.5188  0.4817
  188SLPC  H16S21712   0.603   0.507   8.071 -0.1846  1.5179  1.6593
  188SLPC  C21721713   0.715   0.669   8.143 -0.1477 -0.4256 -0.7198
  188SLPC  H17R21714   0.824   0.693   8.139 -0.0022 -0.8945  0.2877
  188SLPC  H17S21715   0.682   0.654   8.248  0.0864 -1.4624 -0.7863
  188SLPC  C21821716   0.633   0.784   8.097 -0.2952  0.9057  0.5790
  188SLPC  H18R21717   0.622   0.861   8.176 -0.6768  2.8124 -1.2806
  188SLPC  H18S21718   0.536   0.751   8.054  0.0054  0.7731 -0.0142
  188SLPC  H18T21719   0.690   0.830   8.014  1.5058  1.5137  2.1030
  188SLPC   C3321720   0.727   0.206   7.007  0.4923 -0.1850  0.0723
  188SLPC   H3X21721   0.798   0.142   7.063  0.1716 -0.5712  0.0455
  188SLPC   H3Y21722   0.624   0.184   7.042  0.2271  1.7924  0.6021
  188SLPC   C3421723   0.764   0.347   7.048 -0.6999  0.6880 -0.0256
  188SLPC   H4X21724   0.867   0.368   7.013 -0.0546 -0.7487  0.9718
  188SLPC   H4Y21725   0.766   0.349   7.159  1.0452  0.6523 -0.0465
  188SLPC   C3521726   0.668   0.452   6.991  0.2675 -0.2069  0.1118
  188SLPC   H5X21727   0.576   0.444   7.052  0.1403 -1.7768 -0.2643
  188SLPC   H5Y21728   0.632   0.419   6.891  1.3152 -2.7534  0.5362
  188SLPC   C3621729   0.725   0.597   6.993 -0.8295 -0.2513 -0.1854
  188SLPC   H6X21730   0.636   0.655   6.960 -0.6420  0.4325  0.5054
  188SLPC   H6Y21731   0.800   0.602   6.912 -3.1096  0.3259 -2.3165
  188SLPC   C3721732   0.787   0.642   7.127 -0.0777 -0.2109  0.4087
  188SLPC   H7X21733   0.844   0.734   7.101 -0.0102 -0.2685  0.3507
  188SLPC   H7Y21734   0.869   0.581   7.173 -0.4287  0.9378  2.6276
  188SLPC   C3821735   0.675   0.660   7.227 -0.4915 -0.2703 -0.1480
  188SLPC   H8X21736   0.645   0.568   7.281 -1.4796  0.6462  0.8901
  188SLPC   H8Y21737   0.580   0.698   7.182 -1.8297 -3.0198  0.2841
  188SLPC   C3921738   0.695   0.770   7.338 -0.0565  0.2391 -0.5828
  188SLPC   H9X21739   0.600   0.793   7.391 -0.2255 -0.2629 -0.6687
  188SLPC   H9Y21740   0.719   0.868   7.291 -0.6453  0.2070 -0.9549
  188SLPC  C31021741   0.797   0.732   7.454 -0.3415 -0.2323  0.0529
  188SLPC  H10X21742   0.894   0.700   7.410 -0.5520 -3.2544  1.6491
  188SLPC  H10Y21743   0.750   0.647   7.508 -1.2795  1.3225  1.7554
  188SLPC  C31121744   0.813   0.841   7.561  0.1011  0.2220 -0.0716
  188SLPC  H11X21745   0.716   0.856   7.613  0.0368 -3.3984  0.9721
  188SLPC  H11Y21746   0.842   0.945   7.535  3.1677 -1.2875 -2.9298
  188SLPC  C31221747   0.924   0.805   7.664  0.2629 -0.1672  0.6200
  188SLPC  H12X21748   1.019   0.789   7.607  2.0287 -0.6370  3.6062
  188SLPC  H12Y21749   0.893   0.709   7.711  1.8509 -0.8514  0.3016
  188SLPC  C31321750   0.938   0.910   7.782  0.2756  0.1807 -0.1522
  188SLPC  H13X21751   0.835   0.940   7.814  0.3721  1.9150 -1.4189
  188SLPC  H13Y21752   0.985   1.004   7.745  0.4126 -0.3900 -1.4290
  188SLPC  C31421753   1.016   0.871   7.906  0.4799  0.5784 -0.0800
  188SLPC  H14X21754   0.958   0.802   7.972 -0.1356  1.1468 -0.0256
  188SLPC  H14Y21755   1.019   0.964   7.966 -0.6320 -1.2099  2.9099
  188SLPC  C31521756   1.150   0.825   7.862  0.0500  0.5845  0.5370
  188SLPC  H15X21757   1.199   0.896   7.792 -0.2149  0.0243 -0.2197
  188SLPC  H15Y21758   1.143   0.726   7.812  0.9687  1.1406 -0.7240
  188SLPC  C31621759   1.247   0.810   7.977 -0.3150  0.2923  0.4953
  188SLPC  H16X21760   1.202   0.728   8.036  2.3403 -1.3566  0.2925
  188SLPC  H16Y21761   1.253   0.898   8.045  0.1426 -0.0729  0.9296
  188SLPC  C31721762   1.392   0.764   7.940  0.1879  0.2187  0.7444
  188SLPC  H17X21763   1.453   0.846   7.896  0.8719 -1.8792 -2.4429
  188SLPC  H17Y21764   1.378   0.690   7.858 -0.9046  1.5420 -0.2905
  188SLPC  C31821765   1.484   0.698   8.043 -0.6344  0.0756  0.1310
  188SLPC  H18X21766   1.585   0.689   7.997 -1.6653  0.7908 -2.3356
  188SLPC  H18Y21767   1.449   0.594   8.065 -1.6022  0.1199 -1.1101
  188SLPC  H18Z21768   1.501   0.759   8.134 -0.0902  0.7328 -0.4117
  189SLPC     N21769   3.249   2.987   6.081 -0.4743  0.6919 -0.9930
  189SLPC   C1321770   3.343   3.094   6.050 -0.3344  0.5306 -0.5438
  189SLPC  H13A21771   3.442   3.050   6.042 -0.8620 -0.5245 -1.3847
  189SLPC  H13B21772   3.319   3.132   5.951  3.4810  1.3252 -1.2532
  189SLPC  H13C21773   3.348   3.183   6.111  1.7806 -1.0386  1.6386
  189SLPC   C1421774   3.222   2.922   5.941  0.0465  0.9608 -0.3742
  189SLPC  H14A21775   3.317   2.898   5.894 -0.9923  0.3858 -2.2361
  189SLPC  H14B21776   3.166   2.831   5.959 -0.7340  1.6479  0.6396
  189SLPC  H14C21777   3.160   2.979   5.873 -1.7198 -0.3304  0.1217
  189SLPC   C1521778   3.126   3.051   6.133 -0.6537 -0.1087  0.2945
  189SLPC  H15A21779   3.082   3.098   6.047  1.6082  1.4003 -0.0699
  189SLPC  H15B21780   3.056   2.978   6.172 -1.7960  0.3942 -0.7794
  189SLPC  H15C21781   3.150   3.131   6.200  0.2281  0.4426 -0.6737
  189SLPC   C1221782   3.309   2.888   6.180 -0.1762 -0.8282 -0.5846
  189SLPC  H12A21783   3.240   2.813   6.214  0.1144  0.4121  2.9371
  189SLPC  H12B21784   3.341   2.948   6.264 -0.9322 -0.5612 -0.4874
  189SLPC   C1121785   3.444   2.826   6.140 -1.0196 -0.1896  0.2050
  189SLPC  H11A21786   3.448   2.790   6.035  2.6497 -2.3637  1.0068
  189SLPC  H11B21787   3.456   2.737   6.206  0.3146  0.0925  0.3479
  189SLPC     P21788   3.604   2.980   6.284  0.0413 -0.6286  0.0246
  189SLPC   O1321789   3.715   2.893   6.328  0.9382 -0.1075 -0.1664
  189SLPC   O1421790   3.641   3.117   6.246 -0.8130 -0.3650  0.1988
  189SLPC   O1221791   3.546   2.925   6.155 -0.3121 -0.5027  0.2991
  189SLPC   O1121792   3.484   2.995   6.386 -0.1489  0.2650 -0.1750
  189SLPC    C121793   3.479   3.091   6.490  0.9373  0.4348  0.6497
  189SLPC    HA21794   3.573   3.148   6.502  0.0201  1.6365  2.2781
  189SLPC    HB21795   3.396   3.163   6.473  1.9490  1.6209  0.7229
  189SLPC    C221796   3.451   3.025   6.624 -0.4671 -0.6635 -0.6030
  189SLPC    HS21797   3.436   3.106   6.698 -0.4932  0.5066 -1.8804
  189SLPC   O2121798   3.560   2.946   6.652 -0.2009  0.4194 -0.1296
  189SLPC   C2121799   3.666   3.005   6.699  0.6121  0.0720 -0.1578
  189SLPC   O2221800   3.675   3.124   6.725 -0.0993 -0.2288  0.1381
  189SLPC   C2221801   3.761   2.896   6.750  0.2080  0.0535  0.4363
  189SLPC   H2R21802   3.698   2.823   6.803 -0.4018  2.2664  2.8377
  189SLPC   H2S21803   3.801   2.854   6.655  0.0923  0.1225  0.3579
  189SLPC    C321804   3.327   2.934   6.629 -0.3026  0.0790 -0.7492
  189SLPC    HX21805   3.347   2.840   6.572  0.3995 -0.2617  0.0449
  189SLPC    HY21806   3.249   2.987   6.572 -1.0210  2.1343  2.0257
  189SLPC   O3121807   3.278   2.893   6.760  0.0865  0.1485 -0.1893
  189SLPC   C3121808   3.175   2.971   6.803 -0.4703 -0.8458 -0.1975
  189SLPC   O3221809   3.151   3.077   6.756  0.3783 -0.2429  0.3255
  189SLPC   C3221810   3.106   2.901   6.924  0.3386 -0.7120 -0.6163
  189SLPC   H2X21811   3.154   2.802   6.936  2.9824  0.8395  2.3836
  189SLPC   H2Y21812   2.996   2.890   6.918  0.0310  1.4013  0.8346
  189SLPC   C2321813   3.891   2.945   6.820  0.9369 -0.0489 -0.3509
  189SLPC   H3R21814   3.924   3.041   6.775  0.7212  0.6558  0.9598
  189SLPC   H3S21815   3.971   2.870   6.805 -0.9239 -1.9459 -1.0841
  189SLPC   C2421816   3.868   2.967   6.969 -0.5392  0.1376 -0.1271
  189SLPC   H4R21817   3.834   2.878   7.027  0.9859 -1.6268 -1.8842
  189SLPC   H4S21818   3.774   3.026   6.973  0.5743  1.9953 -0.7148
  189SLPC   C2521819   3.975   3.048   7.045  0.1836 -0.0150  1.0602
  189SLPC   H5R21820   3.977   3.146   6.993  1.9099  0.0157  1.1562
  189SLPC   H5S21821   4.074   3.000   7.026  0.2098  1.0952 -1.9982
  189SLPC   C2621822   3.954   3.068   7.192 -0.0490  0.4785  0.0339
  189SLPC   H6R21823   3.860   3.126   7.211 -0.9278 -0.8658 -0.1393
  189SLPC   H6S21824   4.030   3.137   7.234  0.0493  1.4915 -1.7530
  189SLPC   C2721825   3.970   2.939   7.271 -0.2249 -0.4696  0.4751
  189SLPC   H7R21826   4.071   2.892   7.276  0.1532  0.3753  1.0265
  189SLPC   H7S21827   3.892   2.872   7.230 -1.9030  3.7994 -3.7065
  189SLPC   C2821828   3.907   2.949   7.412 -0.3844  1.0675 -0.0594
  189SLPC   H8R21829   3.798   2.965   7.433 -0.0596  2.0541  0.9837
  189SLPC   H8S21830   3.958   3.034   7.464  1.3766 -0.3552  0.5735
  189SLPC   C2921831   3.934   2.821   7.486  0.8825  0.6484  0.4484
  189SLPC   H9R21832   3.907   2.729   7.433  0.7174  0.4977  0.7962
  189SLPC  C21021833   3.994   2.813   7.599  0.2734  0.2672 -0.0006
  189SLPC  H10R21834   3.996   2.711   7.639 -0.8174  0.2918  0.1396
  189SLPC  C21121835   4.048   2.928   7.681 -0.2327 -0.3176 -0.5824
  189SLPC  H11R21836   4.075   3.015   7.617 -1.9623 -0.1273 -1.0666
  189SLPC  H11S21837   4.138   2.898   7.740 -0.9611  3.0964  2.4491
  189SLPC  C21221838   3.936   2.976   7.773  0.1710 -0.9824  0.9014
  189SLPC  H12R21839   3.869   3.054   7.735 -0.3771 -1.6723  0.4350
  189SLPC  C21321840   3.908   2.918   7.888  0.6633  0.6480 -0.4864
  189SLPC  H13R21841   3.825   2.959   7.947 -1.6267 -2.3810 -1.5122
  189SLPC  C21421842   3.972   2.803   7.956  0.1545  0.8116  0.5294
  189SLPC  H14R21843   4.035   2.838   8.041 -0.0672  1.4273  0.4381
  189SLPC  H14S21844   4.054   2.761   7.894  1.5723 -0.0023  2.8856
  189SLPC  C21521845   3.886   2.682   8.017 -0.2575  0.5288 -0.2154
  189SLPC  H15R21846   3.951   2.622   8.083 -0.2520  1.4991  0.6640
  189SLPC  H15S21847   3.845   2.618   7.936 -2.9747  0.4667  1.1422
  189SLPC  C21621848   3.755   2.737   8.085 -0.2453 -0.0276 -0.1968
  189SLPC  H16R21849   3.669   2.746   8.016 -1.0206 -1.3089  0.5853
  189SLPC  H16S21850   3.773   2.842   8.116  1.9216 -0.7242  1.0473
  189SLPC  C21721851   3.729   2.643   8.208 -0.0435 -1.0079  0.2478
  189SLPC  H17R21852   3.812   2.653   8.281  0.3977  0.4581 -0.4410
  189SLPC  H17S21853   3.717   2.536   8.180  0.4307 -1.2180  0.8344
  189SLPC  C21821854   3.599   2.663   8.283 -0.2686 -0.0690 -0.1664
  189SLPC  H18R21855   3.581   2.772   8.298  0.8317 -0.0749  1.3027
  189SLPC  H18S21856   3.610   2.609   8.379  3.1952 -0.3889 -0.6634
  189SLPC  H18T21857   3.508   2.626   8.232  0.1051  1.6668 -2.2069
  189SLPC   C3321858   3.135   2.995   7.043 -0.1197 -0.6953  0.6873
  189SLPC   H3X21859   3.040   2.997   7.100 -1.1824  1.2531 -1.0892
  189SLPC   H3Y21860   3.134   3.103   7.017  1.6037 -0.4455  1.5659
  189SLPC   C3421861   3.265   2.962   7.112 -0.0292  0.5168 -0.3930
  189SLPC   H4X21862   3.316   3.050   7.158 -1.4016 -0.0664  2.2855
  189SLPC   H4Y21863   3.337   2.944   7.029  3.0033  2.1119  1.8165
  189SLPC   C3521864   3.250   2.844   7.213  0.0805  0.5469 -0.2742
  189SLPC   H5X21865   3.352   2.813   7.246  0.5668  1.3453 -0.9841
  189SLPC   H5Y21866   3.182   2.761   7.186 -0.7489  0.7986  0.9764
  189SLPC   C3621867   3.180   2.882   7.340  0.5974 -0.3458  0.0699
  189SLPC   H6X21868   3.076   2.916   7.320  1.6583  2.7234 -0.5337
  189SLPC   H6Y21869   3.240   2.961   7.391 -0.0173  0.1172  0.0837
  189SLPC   C3721870   3.149   2.760   7.436  0.0926  0.0201  0.2968
  189SLPC   H7X21871   3.233   2.688   7.436  1.0497  1.1136  1.3531
  189SLPC   H7Y21872   3.052   2.715   7.406  0.8265 -0.4518 -1.4537
  189SLPC   C3821873   3.127   2.821   7.576  0.2426  0.4994  0.0826
  189SLPC   H8X21874   3.081   2.922   7.570  0.2179  0.8119  4.1907
  189SLPC   H8Y21875   3.235   2.838   7.599  0.1916  1.3942 -0.3128
  189SLPC   C3921876   3.067   2.733   7.679 -0.8415 -0.2005 -0.2429
  189SLPC   H9X21877   3.130   2.645   7.703  0.3520  0.8658  0.6580
  189SLPC   H9Y21878   2.969   2.699   7.639 -1.6330  1.9364 -0.1845
  189SLPC  C31021879   3.024   2.812   7.798 -0.7515 -0.2028  0.5901
  189SLPC  H10X21880   2.948   2.888   7.770 -0.2875  0.1850  0.3642
  189SLPC  H10Y21881   3.111   2.866   7.841 -0.7835  0.7035 -0.4528
  189SLPC  C31121882   2.961   2.737   7.915 -0.7492  0.1402 -0.6102
  189SLPC  H11X21883   2.887   2.659   7.886 -1.5491  0.5354  0.3181
  189SLPC  H11Y21884   2.907   2.814   7.975  0.1317 -0.9136  1.5903
  189SLPC  C31221885   3.071   2.666   7.996 -0.0048 -0.3466  0.0915
  189SLPC  H12X21886   3.163   2.724   8.021 -0.1535 -0.0507 -0.0491
  189SLPC  H12Y21887   3.097   2.578   7.934 -1.6361  0.0670 -1.2114
  189SLPC  C31321888   3.004   2.606   8.120  0.0862 -0.0227  0.3608
  189SLPC  H13X21889   3.079   2.531   8.152  0.7347  0.1728 -0.6967
  189SLPC  H13Y21890   2.912   2.548   8.099  1.5342 -3.1678  2.2910
  189SLPC  C31421891   2.966   2.719   8.224 -0.0752  0.0509 -0.3620
  189SLPC  H14X21892   2.908   2.665   8.302  1.6199  0.7669  1.4187
  189SLPC  H14Y21893   2.901   2.795   8.175 -1.3961 -1.7177 -1.4396
  189SLPC  C31521894   3.077   2.806   8.287  0.2092  0.3242  0.0129
  189SLPC  H15X21895   3.036   2.887   8.350 -1.8725 -0.2082 -0.6400
  189SLPC  H15Y21896   3.133   2.853   8.204 -0.9149 -0.5895 -1.2842
  189SLPC  C31621897   3.171   2.719   8.377 -0.3888 -0.2454  0.7096
  189SLPC  H16X21898   3.195   2.627   8.321  0.8154 -0.7098  1.9844
  189SLPC  H16Y21899   3.125   2.675   8.468  0.5736 -1.6438  0.5223
  189SLPC  C31721900   3.301   2.786   8.419 -0.4737 -0.1425  0.3112
  189SLPC  H17X21901   3.352   2.816   8.325 -0.6275 -2.6874 -0.6283
  189SLPC  H17Y21902   3.372   2.721   8.474 -1.1779 -2.3808 -1.3407
  189SLPC  C31821903   3.270   2.915   8.494  0.3140 -0.5319  0.2643
  189SLPC  H18X21904   3.199   2.894   8.577 -0.5473  0.0910 -0.3005
  189SLPC  H18Y21905   3.228   2.990   8.423  0.4312 -0.1448  0.6016
  189SLPC  H18Z21906   3.362   2.956   8.540 -0.2893 -1.4101  2.3138
  190SLPC     N21907   3.810   1.874   6.143  1.0812 -0.2344  0.3150
  190SLPC   C1321908   3.838   1.729   6.132 -0.1641  0.8605  0.2162
  190SLPC  H13A21909   3.943   1.705   6.140 -0.0145  1.2011 -0.6518
  190SLPC  H13B21910   3.795   1.665   6.208  0.7571  0.1283  0.1183
  190SLPC  H13C21911   3.808   1.693   6.034 -1.9582  0.9117  0.7294
  190SLPC   C1421912   3.859   1.945   6.014  0.3945  0.1161  0.4147
  190SLPC  H14A21913   3.797   1.925   5.928  1.2571 -0.0920 -0.1558
  190SLPC  H14B21914   3.866   2.053   6.022  0.1081 -0.0015  2.5397
  190SLPC  H14C21915   3.958   1.908   5.992  0.3679  2.3497 -3.7816
  190SLPC   C1521916   3.900   1.925   6.252 -0.3802 -0.4934 -0.1264
  190SLPC  H15A21917   3.884   2.031   6.269 -2.2103 -0.7219 -0.3840
  190SLPC  H15B21918   3.866   1.880   6.344 -1.4425  0.9795  0.2293
  190SLPC  H15C21919   4.004   1.910   6.228  0.0895 -0.2542  1.6709
  190SLPC   C1221920   3.672   1.906   6.170 -0.2505 -0.6489 -0.3028
  190SLPC  H12A21921   3.633   1.848   6.253 -0.8903  0.8852  0.4842
  190SLPC  H12B21922   3.621   1.860   6.086 -2.2065  1.1205 -0.1402
  190SLPC   C1121923   3.636   2.053   6.189  0.1130  0.4690 -0.3794
  190SLPC  H11A21924   3.655   2.122   6.104 -1.6562 -0.5796 -1.6359
  190SLPC  H11B21925   3.696   2.093   6.273  0.4343  1.1720 -0.9401
  190SLPC     P21926   3.419   1.998   6.339 -0.2990  0.3894 -0.3285
  190SLPC   O1321927   3.276   2.041   6.324 -0.4602 -0.5280 -0.3265
  190SLPC   O1421928   3.442   1.858   6.352  0.1210 -0.0983  0.1671
  190SLPC   O1221929   3.496   2.058   6.221 -0.3467  0.1207  0.1619
  190SLPC   O1121930   3.495   2.069   6.461 -0.3111 -0.0010 -0.2848
  190SLPC    C121931   3.447   2.198   6.507 -0.5823  0.4932  0.4876
  190SLPC    HA21932   3.540   2.248   6.542  1.8882 -2.9953 -0.7194
  190SLPC    HB21933   3.411   2.260   6.422 -0.0941  0.0691 -0.0373
  190SLPC    C221934   3.352   2.213   6.630 -0.1260 -0.1670  0.0104
  190SLPC    HS21935   3.395   2.301   6.682  0.6270  0.1991 -1.2018
  190SLPC   O2121936   3.359   2.093   6.712 -0.0304 -0.9680 -0.3247
  190SLPC   C2121937   3.457   2.083   6.803  0.7653 -0.6951  0.0416
  190SLPC   O2221938   3.535   2.177   6.825  0.3973 -0.0084  0.3105
  190SLPC   C2221939   3.459   1.955   6.872 -0.0487  0.5062  0.1129
  190SLPC   H2R21940   3.377   1.885   6.848 -0.0545  0.6004 -0.1498
  190SLPC   H2S21941   3.548   1.902   6.831 -1.9583 -1.2933 -1.8414
  190SLPC    C321942   3.211   2.244   6.597  0.6322 -0.7377  0.0099
  190SLPC    HX21943   3.178   2.200   6.501 -1.7021  1.1505 -0.1122
  190SLPC    HY21944   3.207   2.355   6.583  3.7468 -0.1991  2.8229
  190SLPC   O3121945   3.124   2.224   6.715 -0.2183  0.3181 -0.4403
  190SLPC   C3121946   3.075   2.103   6.713  0.1742 -0.4001  0.1905
  190SLPC   O3221947   3.110   2.005   6.643 -0.0361 -0.0289  0.4320
  190SLPC   C3221948   2.980   2.099   6.834 -0.0689 -0.4220 -0.3879
  190SLPC   H2X21949   2.893   2.165   6.815 -0.7828 -1.4074 -0.5636
  190SLPC   H2Y21950   3.034   2.130   6.926 -0.4321  2.4265 -1.0916
  190SLPC   C2321951   3.463   1.976   7.023  0.1344  0.0115  0.3065
  190SLPC   H3R21952   3.553   2.036   7.051  0.7482 -0.7032 -0.1082
  190SLPC   H3S21953   3.460   1.878   7.075 -1.1135 -1.2863 -2.1506
  190SLPC   C2421954   3.331   2.030   7.075  0.3904 -0.2342 -0.4512
  190SLPC   H4R21955   3.246   1.981   7.024  0.9606 -1.1494 -0.5366
  190SLPC   H4S21956   3.326   2.141   7.064 -0.9587 -0.1812  0.7130
  190SLPC   C2521957   3.298   1.972   7.219 -0.4696 -0.0870  0.3344
  190SLPC   H5R21958   3.381   1.999   7.286 -0.6888  0.5830  0.3393
  190SLPC   H5S21959   3.297   1.861   7.213  0.5173 -0.0691 -0.3802
  190SLPC   C2621960   3.169   2.011   7.291 -0.7827  0.6560  0.6649
  190SLPC   H6R21961   3.077   2.002   7.230 -0.1254  2.6213 -0.6881
  190SLPC   H6S21962   3.186   2.118   7.315  1.6927  0.8106 -1.5137
  190SLPC   C2721963   3.142   1.943   7.432  0.1192 -0.3497  1.0346
  190SLPC   H7R21964   3.039   1.978   7.457 -0.4265 -0.6930 -0.6851
  190SLPC   H7S21965   3.210   1.969   7.515  0.1397 -1.5608  1.4036
  190SLPC   C2821966   3.138   1.790   7.441 -0.7341 -0.2709 -0.5110
  190SLPC   H8R21967   3.078   1.748   7.357  1.1703 -2.6652 -0.7347
  190SLPC   H8S21968   3.084   1.766   7.535 -0.0273  0.2559  0.0294
  190SLPC   C2921969   3.268   1.719   7.446  0.5052  0.6882  0.4346
  190SLPC   H9R21970   3.299   1.689   7.345 -0.1399 -0.4559  0.5652
  190SLPC  C21021971   3.345   1.708   7.555 -0.2825 -0.5889 -0.1077
  190SLPC  H10R21972   3.447   1.667   7.546  0.3192  0.8161  0.1679
  190SLPC  C21121973   3.312   1.759   7.689 -0.5358  1.0190 -0.3687
  190SLPC  H11R21974   3.248   1.849   7.678 -0.6993  0.8647 -0.6907
  190SLPC  H11S21975   3.409   1.800   7.725  0.4142 -0.9633 -0.5708
  190SLPC  C21221976   3.227   1.666   7.770 -0.3356 -0.0884 -0.8235
  190SLPC  H12R21977   3.125   1.640   7.739 -0.6452 -2.7043  2.1557
  190SLPC  C21321978   3.275   1.612   7.882  0.8742 -0.2772  0.3277
  190SLPC  H13R21979   3.207   1.539   7.929 -0.6867  0.0127 -1.3988
  190SLPC  C21421980   3.407   1.633   7.942 -0.2307  0.7030 -0.4565
  190SLPC  H14R21981   3.407   1.744   7.936 -1.1582  0.6737 -1.0928
  190SLPC  H14S21982   3.492   1.602   7.876  0.5965  0.0311  0.8945
  190SLPC  C21521983   3.439   1.581   8.079 -0.6851  0.3490 -0.2990
  190SLPC  H15R21984   3.458   1.471   8.083  0.7563  0.5568 -1.4403
  190SLPC  H15S21985   3.348   1.604   8.140  0.7821  1.7017  1.4438
  190SLPC  C21621986   3.555   1.662   8.131 -0.0212  0.2402  0.3595
  190SLPC  H16R21987   3.533   1.765   8.095  4.0026  1.1747  0.4189
  190SLPC  H16S21988   3.651   1.632   8.084  0.1020 -1.0762  1.4273
  190SLPC  C21721989   3.586   1.640   8.284  0.2571  0.6445 -0.4169
  190SLPC  H17R21990   3.496   1.685   8.332  0.1409  1.6142 -1.5220
  190SLPC  H17S21991   3.676   1.695   8.318  0.0480  0.1722  0.9515
  190SLPC  C21821992   3.595   1.497   8.331  0.8426 -0.0445  0.4038
  190SLPC  H18R21993   3.513   1.436   8.286  0.5160 -0.7308  1.9292
  190SLPC  H18S21994   3.591   1.496   8.442 -0.1002  1.3925  0.4029
  190SLPC  H18T21995   3.690   1.454   8.293 -1.2905 -2.5717 -2.3667
  190SLPC   C3321996   2.918   1.960   6.864  0.5127  0.5418 -0.4203
  190SLPC   H3X21997   2.997   1.882   6.861 -1.4134 -1.4363 -1.0895
  190SLPC   H3Y21998   2.836   1.935   6.794  0.2469  0.7503 -0.1866
  190SLPC   C3421999   2.844   1.960   7.003 -0.3281 -0.2205 -0.2176
  190SLPC   H4X22000   2.925   1.973   7.079 -2.7337 -2.5299  2.8883
  190SLPC   H4Y22001   2.800   1.860   7.022 -0.4658  0.1457  1.5144
  190SLPC   C3522002   2.734   2.066   7.022 -0.3562  0.1756  0.4098
  190SLPC   H5X22003   2.646   2.033   6.964 -1.2474  0.0778  1.7946
  190SLPC   H5Y22004   2.769   2.168   6.998 -0.1563  0.3447  1.3700
  190SLPC   C3622005   2.698   2.085   7.167  0.1326 -0.1973  0.0203
  190SLPC   H6X22006   2.796   2.106   7.215  0.3580 -0.1974 -0.4401
  190SLPC   H6Y22007   2.665   1.987   7.208 -0.3617  0.0372  0.1909
  190SLPC   C3722008   2.588   2.192   7.181 -0.0196  0.2336 -0.3871
  190SLPC   H7X22009   2.494   2.153   7.136 -0.1667 -0.3492  0.4008
  190SLPC   H7Y22010   2.610   2.280   7.117  1.8829  0.5203  0.6419
  190SLPC   C3822011   2.560   2.244   7.328  0.3722  0.2224 -0.5803
  190SLPC   H8X22012   2.469   2.307   7.332  1.5863  2.0146 -0.7408
  190SLPC   H8Y22013   2.642   2.313   7.358 -0.2936  0.9716 -0.4616
  190SLPC   C3922014   2.541   2.126   7.423  0.6347  0.4544 -0.6853
  190SLPC   H9X22015   2.630   2.060   7.414  1.2501  1.0629  0.8330
  190SLPC   H9Y22016   2.455   2.066   7.387  0.5759  0.0535  0.1174
  190SLPC  C31022017   2.528   2.165   7.569 -0.1421 -0.1448 -0.0340
  190SLPC  H10X22018   2.437   2.228   7.585  0.0133  0.4150 -1.3419
  190SLPC  H10Y22019   2.613   2.221   7.613  1.5725 -2.1718 -0.6564
  190SLPC  C31122020   2.509   2.044   7.662 -0.4257 -0.0910 -0.8904
  190SLPC  H11X22021   2.595   1.974   7.668 -0.7104 -0.2590  1.6919
  190SLPC  H11Y22022   2.420   1.983   7.635 -0.3371 -0.0748 -1.2288
  190SLPC  C31222023   2.493   2.082   7.813  0.5442 -0.2491  0.8782
  190SLPC  H12X22024   2.404   2.147   7.826  0.0318 -0.5354 -1.1421
  190SLPC  H12Y22025   2.582   2.140   7.845 -1.7269  3.2925  1.0992
  190SLPC  C31322026   2.477   1.965   7.901  0.2926  0.6182 -0.3364
  190SLPC  H13X22027   2.562   1.897   7.878  0.3600  0.8680 -0.8458
  190SLPC  H13Y22028   2.390   1.902   7.876 -2.5640  3.1216  2.8994
  190SLPC  C31422029   2.474   2.008   8.041 -0.3857 -0.8819 -0.1969
  190SLPC  H14X22030   2.389   2.080   8.048  0.5382  0.4335 -2.2275
  190SLPC  H14Y22031   2.568   2.056   8.074 -0.6818 -0.2798 -0.2332
  190SLPC  C31522032   2.419   1.895   8.140  0.0793  0.4401  0.3708
  190SLPC  H15X22033   2.474   1.800   8.124 -1.3368 -0.5114  0.9811
  190SLPC  H15Y22034   2.315   1.870   8.107 -0.3680 -1.6171  3.1785
  190SLPC  C31622035   2.429   1.934   8.289  0.1018  0.2766  0.7378
  190SLPC  H16X22036   2.340   1.894   8.342 -1.0675  1.8453 -0.0259
  190SLPC  H16Y22037   2.432   2.045   8.296  0.6536  0.1667  2.5335
  190SLPC  C31722038   2.558   1.884   8.357  0.1393 -0.7220  0.2694
  190SLPC  H17X22039   2.640   1.902   8.284 -0.2015 -0.5196 -0.0722
  190SLPC  H17Y22040   2.535   1.775   8.364 -0.0987 -0.8356 -1.8213
  190SLPC  C31822041   2.584   1.939   8.490 -0.1856 -0.0916  0.7713
  190SLPC  H18X22042   2.693   1.929   8.513  0.2189  0.9157 -0.6285
  190SLPC  H18Y22043   2.539   1.884   8.576  0.2894 -1.0739  0.4010
  190SLPC  H18Z22044   2.558   2.047   8.495 -0.1149  0.1327 -2.8692
  191SLPC     N22045   3.002   4.248   5.738  0.0973  0.2404  0.0408
  191SLPC   C1322046   2.919   4.356   5.674 -0.2446 -0.2867 -0.1217
  191SLPC  H13A22047   2.845   4.384   5.747  0.1833  0.2256  0.1187
  191SLPC  H13B22048   2.992   4.434   5.662  1.3844 -1.6886  0.4600
  191SLPC  H13C22049   2.868   4.332   5.582  0.0486 -0.2791 -0.2887
  191SLPC   C1422050   3.086   4.294   5.850  0.2449 -0.1455 -0.1082
  191SLPC  H14A22051   3.144   4.378   5.814 -0.4555  0.3873  0.0036
  191SLPC  H14B22052   3.029   4.325   5.936 -0.5720 -0.9145 -0.3596
  191SLPC  H14C22053   3.144   4.209   5.884 -0.5276 -0.1046  1.3370
  191SLPC   C1522054   3.093   4.195   5.620 -0.2367 -0.4582 -0.5386
  191SLPC  H15A22055   3.119   4.281   5.560  0.2811 -1.7182 -2.1511
  191SLPC  H15B22056   3.189   4.161   5.655 -0.5189 -0.9253 -0.2101
  191SLPC  H15C22057   3.045   4.128   5.550  1.1592 -0.9987 -0.9987
  191SLPC   C1222058   2.910   4.141   5.796 -0.3156  0.7983  0.2885
  191SLPC  H12A22059   2.982   4.071   5.838 -0.5197 -0.6452 -1.6759
  191SLPC  H12B22060   2.862   4.083   5.718  2.1674 -2.1126  0.7823
  191SLPC   C1122061   2.806   4.173   5.899  0.2504 -0.2455 -0.7390
  191SLPC  H11A22062   2.856   4.205   5.993  0.3532  0.7951 -1.1371
  191SLPC  H11B22063   2.770   4.071   5.925 -0.6101  0.2535  0.0233
  191SLPC     P22064   2.639   4.358   5.959 -0.1377  0.2971  0.1277
  191SLPC   O1322065   2.724   4.477   5.945 -0.2576  0.2092 -0.8282
  191SLPC   O1422066   2.497   4.379   5.938 -0.0379  0.3997 -0.1310
  191SLPC   O1222067   2.696   4.252   5.854  0.0283  0.0056  0.2540
  191SLPC   O1122068   2.657   4.294   6.104  0.4588  0.0937  0.5779
  191SLPC    C122069   2.600   4.167   6.135  0.1602  0.0423 -0.2142
  191SLPC    HA22070   2.489   4.171   6.129  0.1947 -0.5264 -1.3418
  191SLPC    HB22071   2.623   4.091   6.057  1.8596  1.3977 -1.0611
  191SLPC    C222072   2.634   4.106   6.280 -0.0362  0.2108 -0.4767
  191SLPC    HS22073   2.586   4.010   6.308 -0.9919  0.7356 -0.2767
  191SLPC   O2122074   2.620   4.203   6.380 -0.4204 -0.0653  0.1207
  191SLPC   C2122075   2.495   4.210   6.418 -0.1583 -0.1370 -0.7403
  191SLPC   O2222076   2.403   4.134   6.391  0.2002  0.7610 -0.3574
  191SLPC   C2222077   2.495   4.331   6.510  0.8268 -0.0130 -0.1720
  191SLPC   H2R22078   2.596   4.343   6.553  0.0283  0.7930  1.5162
  191SLPC   H2S22079   2.473   4.420   6.447  1.7581  0.5182  0.2615
  191SLPC    C322080   2.787   4.070   6.281  0.5352 -0.1425  0.0987
  191SLPC    HX22081   2.833   4.165   6.245 -0.1931  0.2857  0.2851
  191SLPC    HY22082   2.811   3.986   6.213 -1.0549 -0.6022  0.0922
  191SLPC   O3122083   2.835   4.036   6.414  0.3927  0.0271 -0.2194
  191SLPC   C3122084   2.963   4.062   6.428  0.4631 -0.1594 -0.7174
  191SLPC   O3222085   3.035   4.106   6.337  0.7086  0.3261  0.1771
  191SLPC   C3222086   2.997   4.009   6.568  0.2291 -0.3656 -0.5702
  191SLPC   H2X22087   2.959   3.905   6.573  0.7544 -0.4781  1.4277
  191SLPC   H2Y22088   2.946   4.069   6.647 -0.0480  0.3104 -1.2556
  191SLPC   C2322089   2.386   4.330   6.623  0.4218  0.2638  0.4511
  191SLPC   H3R22090   2.315   4.245   6.614  1.1145 -0.4603  1.7617
  191SLPC   H3S22091   2.327   4.424   6.616  2.1829  1.4861  1.7706
  191SLPC   C2422092   2.439   4.320   6.761 -0.5583 -0.0318 -0.2827
  191SLPC   H4R22093   2.501   4.407   6.789  0.0331 -0.4714 -0.2304
  191SLPC   H4S22094   2.508   4.233   6.765  1.0894  1.0619 -3.1058
  191SLPC   C2522095   2.334   4.296   6.874 -0.0795 -0.6993 -0.0566
  191SLPC   H5R22096   2.308   4.188   6.872 -1.8244 -0.2650 -1.9040
  191SLPC   H5S22097   2.238   4.339   6.839 -0.1736  2.4181  3.6899
  191SLPC   C2622098   2.377   4.332   7.018  0.0720  0.4189  1.0034
  191SLPC   H6R22099   2.484   4.305   7.029 -0.0200  0.5246  2.3255
  191SLPC   H6S22100   2.318   4.292   7.103 -1.0016 -2.7282 -1.1709
  191SLPC   C2722101   2.377   4.488   7.028 -0.9520  0.4267 -0.5037
  191SLPC   H7R22102   2.274   4.521   7.002 -0.3099  1.1112 -2.2448
  191SLPC   H7S22103   2.444   4.524   6.947  1.0410 -1.0495  0.4547
  191SLPC   C2822104   2.420   4.535   7.170  0.3043 -0.4685 -0.1694
  191SLPC   H8R22105   2.488   4.621   7.148  1.8965 -1.3477  1.2444
  191SLPC   H8S22106   2.472   4.458   7.229  1.3978  1.0709  0.8995
  191SLPC   C2922107   2.300   4.598   7.250 -0.1966 -0.2459  0.3276
  191SLPC   H9R22108   2.207   4.570   7.199 -0.3414  0.2715  0.3014
  191SLPC  C21022109   2.292   4.674   7.360  0.1627  0.0078 -0.6969
  191SLPC  H10R22110   2.193   4.683   7.407 -0.4754 -1.6281 -1.6805
  191SLPC  C21122111   2.416   4.713   7.443 -0.4245 -0.1190  0.3408
  191SLPC  H11R22112   2.513   4.730   7.390  0.3773  3.8287  2.8358
  191SLPC  H11S22113   2.444   4.629   7.510  0.7338  0.0847  0.1256
  191SLPC  C21222114   2.383   4.832   7.529 -0.3183 -0.5924 -0.7705
  191SLPC  H12R22115   2.404   4.927   7.477  0.1732 -0.3039 -0.0537
  191SLPC  C21322116   2.346   4.837   7.656  0.2508  0.0519 -0.2598
  191SLPC  H13R22117   2.319   4.929   7.710  0.4262  0.3080 -0.6038
  191SLPC  C21422118   2.305   4.714   7.742  0.1660 -0.3640  0.2030
  191SLPC  H14R22119   2.291   4.624   7.678 -0.3261  0.3372 -0.6873
  191SLPC  H14S22120   2.206   4.734   7.788 -1.4311 -2.3651 -2.1528
  191SLPC  C21522121   2.393   4.663   7.856 -0.1087  0.5166  0.5239
  191SLPC  H15R22122   2.475   4.606   7.805 -1.7571 -0.4390 -1.1124
  191SLPC  H15S22123   2.338   4.579   7.904  0.0613  0.5219  0.7309
  191SLPC  C21622124   2.435   4.765   7.961  0.0379  0.6954  0.0649
  191SLPC  H16R22125   2.356   4.813   8.023 -0.6455 -1.2800  0.7482
  191SLPC  H16S22126   2.491   4.841   7.901 -0.9685 -0.2552 -2.1352
  191SLPC  C21722127   2.530   4.692   8.057 -0.6149  0.0341  0.2476
  191SLPC  H17R22128   2.615   4.656   7.995  1.3487  2.5743  1.3630
  191SLPC  H17S22129   2.484   4.600   8.099 -0.6901 -0.8919 -1.8000
  191SLPC  C21822130   2.584   4.774   8.175  0.0403 -0.7931 -0.3903
  191SLPC  H18R22131   2.513   4.777   8.261 -1.1928 -3.1185 -1.2867
  191SLPC  H18S22132   2.606   4.875   8.135 -0.7419 -1.0413 -1.4577
  191SLPC  H18T22133   2.676   4.725   8.214  0.7784  0.6129 -0.3480
  191SLPC   C3322134   3.149   4.003   6.597 -0.0775 -0.0000 -0.1803
  191SLPC   H3X22135   3.197   4.103   6.606 -1.3810  0.4541  2.4373
  191SLPC   H3Y22136   3.206   3.933   6.534  1.0778  0.2407  0.5774
  191SLPC   C3422137   3.170   3.934   6.728  0.7946  0.6424 -0.8130
  191SLPC   H4X22138   3.160   3.826   6.705  0.7875  0.2814  0.8397
  191SLPC   H4Y22139   3.092   3.947   6.806  0.2373  0.2921 -1.3151
  191SLPC   C3522140   3.301   3.970   6.786 -0.2264 -0.5283 -0.1179
  191SLPC   H5X22141   3.291   4.070   6.834 -1.6344 -1.1687  0.9768
  191SLPC   H5Y22142   3.383   3.980   6.712  0.2111  1.8203  0.6365
  191SLPC   C3622143   3.337   3.868   6.901 -0.4979  0.0231  0.1876
  191SLPC   H6X22144   3.445   3.843   6.902 -0.6441 -0.6177  0.1128
  191SLPC   H6Y22145   3.279   3.776   6.876  1.7132 -1.9457  2.1016
  191SLPC   C3722146   3.307   3.924   7.039 -0.0770 -0.0373 -0.0913
  191SLPC   H7X22147   3.323   3.836   7.105 -0.6038 -0.9894 -1.2122
  191SLPC   H7Y22148   3.198   3.945   7.038 -0.4939 -2.0085 -2.7203
  191SLPC   C3822149   3.384   4.048   7.087  0.2469  0.2399 -0.6654
  191SLPC   H8X22150   3.341   4.131   7.028  0.4416 -0.1660 -1.3772
  191SLPC   H8Y22151   3.491   4.038   7.058  0.7493 -0.7395  1.3671
  191SLPC   C3922152   3.370   4.072   7.241  0.3368  0.6045  0.3874
  191SLPC   H9X22153   3.266   4.044   7.269  0.4003  0.5421  0.5575
  191SLPC   H9Y22154   3.405   4.174   7.267 -0.3172  1.3113 -1.4382
  191SLPC  C31022155   3.459   3.981   7.315  1.3818 -0.2485  0.1170
  191SLPC  H10X22156   3.564   4.009   7.294  1.6897 -0.5040  1.2437
  191SLPC  H10Y22157   3.431   3.882   7.273 -0.4244 -0.4819  1.7700
  191SLPC  C31122158   3.445   3.983   7.474 -0.6062 -0.9121 -0.3586
  191SLPC  H11X22159   3.533   3.924   7.510  0.7726  0.0146 -2.1441
  191SLPC  H11Y22160   3.350   3.930   7.496  0.0362 -1.1010  2.1811
  191SLPC  C31222161   3.448   4.121   7.544  0.0068  0.3370  0.9475
  191SLPC  H12X22162   3.343   4.155   7.536 -0.3818 -0.5376  2.0467
  191SLPC  H12Y22163   3.497   4.193   7.477 -1.4735 -0.2114 -0.7646
  191SLPC  C31322164   3.486   4.110   7.691 -0.1948  0.9260 -0.2211
  191SLPC  H13X22165   3.493   4.208   7.742 -0.6136  0.3763  0.9286
  191SLPC  H13Y22166   3.584   4.058   7.703 -1.0217 -0.4208  0.8359
  191SLPC  C31422167   3.376   4.048   7.775  0.3974 -0.2665 -0.3128
  191SLPC  H14X22168   3.362   3.941   7.750  2.1479 -0.5189 -0.2808
  191SLPC  H14Y22169   3.273   4.082   7.749  0.4077 -0.5101 -0.6758
  191SLPC  C31522170   3.393   4.048   7.923 -0.5117  0.0887  0.2300
  191SLPC  H15X22171   3.488   3.993   7.935  0.4447  1.1538 -2.0682
  191SLPC  H15Y22172   3.304   3.995   7.962 -1.0956  0.7555 -0.1810
  191SLPC  C31622173   3.391   4.188   7.986  0.0275  0.1526 -0.0905
  191SLPC  H16X22174   3.464   4.254   7.935 -0.6918  1.8152  1.0009
  191SLPC  H16Y22175   3.430   4.180   8.090 -1.8695 -3.5560  0.4516
  191SLPC  C31722176   3.256   4.255   7.975 -0.5419 -0.4226  0.1559
  191SLPC  H17X22177   3.180   4.212   8.044 -0.8155 -1.0887 -0.5551
  191SLPC  H17Y22178   3.211   4.246   7.874 -1.3006  2.1102  0.2228
  191SLPC  C31822179   3.264   4.409   8.004 -0.5190  0.3225 -1.0008
  191SLPC  H18X22180   3.322   4.456   7.921 -0.1740  0.1776 -0.8413
  191SLPC  H18Y22181   3.317   4.437   8.097 -2.3810 -1.1327  0.5347
  191SLPC  H18Z22182   3.164   4.458   8.006 -1.3734 -1.3748  3.7946
  192SLPC     N22183   3.107   5.275   6.190  0.1968 -0.1050 -0.1821
  192SLPC   C1322184   3.150   5.379   6.086 -0.4507  0.8000 -0.0877
  192SLPC  H13A22185   3.101   5.474   6.102  0.8864  1.2306  1.6168
  192SLPC  H13B22186   3.255   5.395   6.100  0.0003 -0.7430 -1.5265
  192SLPC  H13C22187   3.136   5.346   5.984  0.9692 -0.7214  0.1947
  192SLPC   C1422188   3.137   5.139   6.140  0.1900  0.6046 -0.3008
  192SLPC  H14A22189   3.111   5.068   6.217 -0.3543 -0.1307 -1.1583
  192SLPC  H14B22190   3.079   5.116   6.052  0.8851 -1.2241 -0.3063
  192SLPC  H14C22191   3.243   5.125   6.123 -0.0274  0.3247 -1.4737
  192SLPC   C1522192   2.959   5.284   6.206 -0.2225  0.1940  0.3271
  192SLPC  H15A22193   2.928   5.211   6.279  3.2610 -1.6737  0.0422
  192SLPC  H15B22194   2.922   5.377   6.246 -2.7761 -0.2629 -0.8340
  192SLPC  H15C22195   2.904   5.260   6.116  0.9271 -0.7595 -0.1363
  192SLPC   C1222196   3.166   5.284   6.334 -0.4115  0.6116 -0.4263
  192SLPC  H12A22197   3.190   5.386   6.360  0.6722 -0.0746  1.3368
  192SLPC  H12B22198   3.263   5.239   6.318 -0.4451  0.5675 -0.5072
  192SLPC   C1122199   3.093   5.211   6.450 -0.3316 -0.2260  0.3349
  192SLPC  H11A22200   2.993   5.250   6.478  0.5910  2.1660  0.4323
  192SLPC  H11B22201   3.159   5.247   6.532  0.9873  0.0987 -0.8537
  192SLPC     P22202   3.223   4.993   6.500 -0.0006 -0.2832  0.3145
  192SLPC   O1322203   3.193   4.849   6.500  0.0665 -0.1683 -0.4109
  192SLPC   O1422204   3.346   5.029   6.429 -0.4033 -0.8041  0.0140
  192SLPC   O1222205   3.109   5.071   6.432  0.9484 -0.1719  0.2674
  192SLPC   O1122206   3.239   5.042   6.649  0.5695 -0.1527  0.0898
  192SLPC    C122207   3.142   5.026   6.759  0.1671  0.2696 -0.1618
  192SLPC    HA22208   3.088   5.121   6.780 -0.3964 -0.2341  0.6938
  192SLPC    HB22209   3.062   4.953   6.735 -0.0365 -0.3525  2.2896
  192SLPC    C222210   3.206   4.971   6.890  0.3384  0.3312  0.0125
  192SLPC    HS22211   3.118   4.944   6.952  1.0783 -0.0450  0.9089
  192SLPC   O2122212   3.289   5.071   6.955  0.7628 -0.1051 -0.9082
  192SLPC   C2122213   3.280   5.074   7.087 -1.1875  0.3757 -0.8434
  192SLPC   O2222214   3.213   4.994   7.156  0.3482  0.0783  0.1926
  192SLPC   C2222215   3.365   5.186   7.143 -0.3105  0.2505 -0.6557
  192SLPC   H2R22216   3.340   5.272   7.076  0.4510 -0.0913 -1.3815
  192SLPC   H2S22217   3.319   5.213   7.241 -0.2892 -1.2616 -0.2150
  192SLPC    C322218   3.286   4.837   6.864  0.9011 -0.1214 -0.3971
  192SLPC    HX22219   3.363   4.866   6.790  0.8265  0.0403 -0.4119
  192SLPC    HY22220   3.206   4.781   6.809 -0.1813  0.2791  0.7384
  192SLPC   O3122221   3.336   4.776   6.978 -0.3737  0.4003 -0.0878
  192SLPC   C3122222   3.280   4.667   7.024 -0.0901 -0.0472  0.2892
  192SLPC   O3222223   3.216   4.582   6.957 -0.2576  0.1602 -0.4667
  192SLPC   C3222224   3.313   4.661   7.177  0.0942  0.6057 -0.6818
  192SLPC   H2X22225   3.284   4.752   7.233  0.0117  0.8572 -1.1303
  192SLPC   H2Y22226   3.424   4.673   7.175  0.2746 -0.3358  1.8786
  192SLPC   C2322227   3.518   5.178   7.140  0.8614  0.0415 -0.1110
  192SLPC   H3R22228   3.552   5.283   7.145 -1.4983  0.8479 -0.4657
  192SLPC   H3S22229   3.553   5.139   7.042  1.1824  0.9895 -0.3805
  192SLPC   C2422230   3.577   5.093   7.262 -0.6917  0.2112  0.5182
  192SLPC   H4R22231   3.532   5.131   7.357 -0.3164  2.2713 -0.0928
  192SLPC   H4S22232   3.682   5.124   7.280 -0.9165 -0.8846  4.2257
  192SLPC   C2522233   3.550   4.943   7.257 -0.3868  0.4642 -0.6951
  192SLPC   H5R22234   3.564   4.902   7.155 -0.8602  1.4337 -1.1560
  192SLPC   H5S22235   3.444   4.936   7.290  0.3868  0.7196  1.9556
  192SLPC   C2622236   3.628   4.853   7.353  0.2015 -0.1918 -0.4388
  192SLPC   H6R22237   3.593   4.753   7.386  0.6217  0.2096  1.2960
  192SLPC   H6S22238   3.634   4.904   7.452  0.1177 -1.9614  0.5056
  192SLPC   C2722239   3.769   4.827   7.294 -0.1887  0.2467 -0.1723
  192SLPC   H7R22240   3.832   4.916   7.312  0.3163 -0.5150  1.9725
  192SLPC   H7S22241   3.749   4.831   7.185  1.0057  0.6821 -0.3860
  192SLPC   C2822242   3.833   4.701   7.347 -0.0523  0.4295 -0.0105
  192SLPC   H8R22243   3.925   4.693   7.286  0.1337  2.0759  0.0303
  192SLPC   H8S22244   3.782   4.603   7.338 -0.6236  0.5949  1.3679
  192SLPC   C2922245   3.853   4.715   7.496 -0.1762 -0.5854  0.2125
  192SLPC   H9R22246   3.772   4.729   7.568 -1.6867 -0.3794 -1.4938
  192SLPC  C21022247   3.972   4.712   7.551 -0.4151  0.0199  0.5148
  192SLPC  H10R22248   3.970   4.723   7.661 -1.5332 -1.9868  0.7235
  192SLPC  C21122249   4.109   4.695   7.497 -0.7876 -0.6251 -0.8814
  192SLPC  H11R22250   4.184   4.737   7.567 -0.8061  0.5275 -1.5427
  192SLPC  H11S22251   4.117   4.747   7.399 -2.2771 -0.4442 -0.9167
  192SLPC  C21222252   4.138   4.551   7.473 -0.0843 -0.4465  0.1732
  192SLPC  H12R22253   4.081   4.507   7.389  0.8369 -3.4211  1.0615
  192SLPC  C21322254   4.233   4.477   7.534  0.6812 -1.1216 -0.1563
  192SLPC  H13R22255   4.241   4.371   7.502  0.4387 -1.1088 -0.2629
  192SLPC  C21422256   4.330   4.517   7.640 -0.6402 -0.4916 -0.2504
  192SLPC  H14R22257   4.352   4.625   7.625  2.1136 -0.7573  1.4693
  192SLPC  H14S22258   4.422   4.456   7.654 -0.4658  0.4666  3.2563
  192SLPC  C21522259   4.257   4.531   7.777  0.0415 -0.2831 -0.3130
  192SLPC  H15R22260   4.201   4.439   7.806 -1.8160  1.2210  0.9495
  192SLPC  H15S22261   4.176   4.605   7.762  1.6461  1.5470 -0.0501
  192SLPC  C21622262   4.343   4.560   7.897  0.2292 -0.1882 -0.1900
  192SLPC  H16R22263   4.383   4.663   7.880  0.2516 -0.3068 -0.8808
  192SLPC  H16S22264   4.427   4.488   7.900  1.9119  1.7372  0.3507
  192SLPC  C21722265   4.267   4.550   8.029  0.1717 -0.2738  0.2785
  192SLPC  H17R22266   4.183   4.620   8.014 -0.2956 -1.2244 -1.7470
  192SLPC  H17S22267   4.201   4.462   8.043 -1.6865  0.7142 -2.0188
  192SLPC  C21822268   4.351   4.574   8.158 -0.7902  0.0007  0.0502
  192SLPC  H18R22269   4.286   4.626   8.232  2.4972  0.5431  2.6458
  192SLPC  H18S22270   4.439   4.636   8.132  3.7785 -4.6786  3.5119
  192SLPC  H18T22271   4.388   4.483   8.209  0.7743  0.3263 -0.4917
  192SLPC   C3322272   3.293   4.523   7.240 -0.5603  0.2637 -0.0467
  192SLPC   H3X22273   3.392   4.476   7.258  0.2276  2.1071  0.5714
  192SLPC   H3Y22274   3.225   4.458   7.181 -0.7017  1.3079 -1.0552
  192SLPC   C3422275   3.237   4.526   7.379  0.1232  0.3720  0.0316
  192SLPC   H4X22276   3.219   4.420   7.410 -0.3579  0.2131 -0.7792
  192SLPC   H4Y22277   3.135   4.569   7.367 -0.9881 -1.9157  0.8265
  192SLPC   C3522278   3.329   4.609   7.465  0.1675 -0.0732  0.1872
  192SLPC   H5X22279   3.267   4.642   7.551 -1.7942 -5.1302  0.9295
  192SLPC   H5Y22280   3.358   4.707   7.422 -0.9840 -0.1471 -0.7855
  192SLPC   C3622281   3.458   4.534   7.507  0.4732 -0.2593 -0.0133
  192SLPC   H6X22282   3.536   4.517   7.429 -1.3420  0.0688 -1.9485
  192SLPC   H6Y22283   3.419   4.442   7.554  0.1694  1.2123  2.7228
  192SLPC   C3722284   3.512   4.605   7.628 -0.1450 -0.0255 -0.4920
  192SLPC   H7X22285   3.437   4.606   7.709  1.7177 -0.0467  1.2846
  192SLPC   H7Y22286   3.535   4.710   7.600  1.2564  0.2353  1.5188
  192SLPC   C3822287   3.633   4.526   7.684  0.5172  0.2089 -0.0257
  192SLPC   H8X22288   3.712   4.509   7.608 -0.5122 -0.2734 -0.9922
  192SLPC   H8Y22289   3.585   4.429   7.711  0.1993  0.4489  0.2834
  192SLPC   C3922290   3.683   4.594   7.813 -0.5642 -0.3701  0.0871
  192SLPC   H9X22291   3.614   4.585   7.899 -1.5245  0.5158 -0.5800
  192SLPC   H9Y22292   3.694   4.703   7.795 -2.1721  0.5589  4.2879
  192SLPC  C31022293   3.809   4.533   7.870  0.9942  0.1591 -0.1747
  192SLPC  H10X22294   3.876   4.484   7.796  0.0420 -1.9045  0.2880
  192SLPC  H10Y22295   3.776   4.437   7.916  0.7960 -0.2681 -1.2108
  192SLPC  C31122296   3.890   4.612   7.977 -0.4694 -0.3500 -0.1395
  192SLPC  H11X22297   3.952   4.694   7.934  0.6773 -0.9051  0.4148
  192SLPC  H11Y22298   3.956   4.541   8.031 -3.0114 -1.1888  1.9770
  192SLPC  C31222299   3.804   4.672   8.093 -0.3365  0.3808  0.3749
  192SLPC  H12X22300   3.726   4.597   8.118  0.0688 -0.6980 -1.5231
  192SLPC  H12Y22301   3.751   4.766   8.066  0.0031  0.0268 -1.5697
  192SLPC  C31322302   3.892   4.696   8.213 -0.4441 -0.6419 -0.8003
  192SLPC  H13X22303   3.970   4.769   8.183 -1.0106  0.9393  1.4566
  192SLPC  H13Y22304   3.944   4.605   8.249 -0.8470 -0.6653 -0.2650
  192SLPC  C31422305   3.809   4.746   8.334 -0.2461 -0.5239  0.0795
  192SLPC  H14X22306   3.716   4.687   8.352 -1.0818  1.3821  2.2377
  192SLPC  H14Y22307   3.769   4.841   8.294 -0.9617  0.8393  3.8253
  192SLPC  C31522308   3.890   4.777   8.458 -0.2813 -0.0015 -0.1192
  192SLPC  H15X22309   3.951   4.694   8.499 -1.7397  0.2512  2.6600
  192SLPC  H15Y22310   3.818   4.814   8.534  1.2034  0.4425  1.0766
  192SLPC  C31622311   3.984   4.901   8.450 -0.2999 -0.0097  0.3833
  192SLPC  H16X22312   3.981   4.952   8.352  1.9874 -1.5279 -0.5295
  192SLPC  H16Y22313   4.085   4.862   8.473  0.8977  2.1500 -1.0721
  192SLPC  C31722314   3.964   5.006   8.562 -0.3189  0.3120  0.3400
  192SLPC  H17X22315   3.970   4.973   8.669  1.5450 -0.0237  0.1351
  192SLPC  H17Y22316   3.860   5.040   8.545  0.1597  1.2672 -0.6544
  192SLPC  C31822317   4.066   5.120   8.541 -0.6117 -0.0622 -0.1033
  192SLPC  H18X22318   4.039   5.213   8.595  1.7680  0.5119  0.1557
  192SLPC  H18Y22319   4.072   5.130   8.430 -1.4174  0.5651 -0.0993
  192SLPC  H18Z22320   4.169   5.106   8.579 -0.3931  2.4544  0.3128
  193SOD    SOD22321   4.982   1.134  16.908 -0.0161  0.9129  0.1236
  194SOD    SOD22322   1.219   0.821  11.792 -0.1654 -0.2147  0.4123
  195SOD    SOD22323   4.745   1.827   0.255  0.2191 -0.4208  0.3890
  196SOD    SOD22324   3.475   6.158  16.693 -0.0756  0.2812  0.2737
  197SOD    SOD22325   1.627   2.415  14.559 -0.0616 -0.1019  0.3876
  198SOD    SOD22326   2.521   3.588  14.113  0.3110 -0.2797 -0.2867
  199SOD    SOD22327   1.833   2.643   4.845  0.6110  0.3128 -0.1158
  200SOD    SOD22328   1.140   3.897   6.243  0.1169  0.5156  0.1443
  201SOD    SOD22329   2.715   1.426  14.956  0.4133  0.0273  0.5922
  202SOD    SOD22330   6.104   1.262  11.218 -0.2651  0.2773 -0.4727
  203SOD    SOD22331   6.649   2.720  12.947 -0.1885  0.3275 -0.0458
  204SOD    SOD22332   1.986   6.790   0.499 -0.4366 -0.3662  0.2093
  205SOD    SOD22333   0.563   1.709   5.758 -0.1132  0.4530  0.2490
  206SOD    SOD22334   5.084   1.372   3.903  0.1584 -0.1306 -0.0737
  207SOD    SOD22335   2.209   5.111   0.523 -0.5656 -0.1684 -0.1352
  208SOD    SOD22336   5.035   4.943  13.262 -0.1488 -0.2764 -0.0487
  209SOD    SOD22337   3.562   6.323  11.558 -0.2962 -0.6144 -0.2838
  210SOD    SOD22338   0.893   0.191   3.712  0.0126  0.0648  0.1381
  211SOD    SOD22339   1.401   5.418  13.016  0.2985 -0.1893  0.7591
  212SOD    SOD22340   0.633   2.844  10.960 -0.3739 -0.2700 -0.3930
  213SOD    SOD22341   1.498   3.150  10.351 -0.3677 -0.5370  0.2979
  214SOD    SOD22342   4.866   5.648   1.036 -0.0141 -0.1066  0.0709
  215SOD    SOD22343   5.210   1.097  14.081 -0.1263  0.2943 -0.3526
  216SOD    SOD22344   0.963   5.082  15.087  0.1390  0.6896 -0.1339
  217SOD    SOD22345   1.434   4.075   2.124  0.0438  0.1878 -0.1593
  218SOD    SOD22346   2.883   3.117  12.695  0.5911 -0.2795 -0.3663
  219SOD    SOD22347   3.113   0.196   4.155  0.3739 -0.5398 -0.1908
  220SOD    SOD22348   0.024   4.062  15.293 -0.2001 -0.0092  0.1679
  221SOD    SOD22349   6.397   3.800   2.579 -0.5358  0.0188 -0.3466
  222SOD    SOD22350   3.704   0.966  10.873 -0.1158  0.1652 -0.0752
  223SOD    SOD22351   1.127   0.581   4.675 -0.5730 -0.1089  0.1630
  224SOD    SOD22352   5.022   6.416  17.203 -0.0857 -0.7427 -0.3024
  225SOD    SOD22353   3.935   4.810  13.379 -0.1976  0.1429  0.1621
  226SOD    SOD22354   0.269   3.882   1.876  0.0361  0.4130 -0.0330
  227SOD    SOD22355   5.500   2.526  11.572 -0.1708 -0.3095  0.2148
  228SOD    SOD22356   3.579   2.454  11.736 -0.3360  0.0909  0.3075
  229SOD    SOD22357   0.021   1.881  16.047 -0.6893  0.1997 -0.0733
  230SOD    SOD22358   6.219   4.159   3.703 -0.2581 -0.1419 -0.1222
  231SOD    SOD22359   4.900   3.945  11.305  0.2549  0.0142 -0.1860
  232SOD    SOD22360   3.238   0.944  11.238 -0.0876 -0.1039 -0.3603
  233SOD    SOD22361   5.337   6.163  13.034  0.0257  0.0079  0.5651
  234SOD    SOD22362   1.302   2.992  13.245 -0.2351 -0.2482 -0.0126
  235SOD    SOD22363   5.007   0.269  10.631  0.4723  0.0740  0.0521
  236SOD    SOD22364   3.492   2.181   5.728  0.2684  0.2893  0.3019
  237SOD    SOD22365   5.557   2.143  10.711  0.1543  0.1758 -0.2053
  238SOD    SOD22366   5.386   5.201  14.414 -0.2127  0.9289 -0.2792
  239SOD    SOD22367   5.179   3.206  16.418 -0.1794  0.1866 -0.0770
  240SOD    SOD22368   5.545   2.097   6.631 -0.0374  0.0215 -0.7745
  241SOD    SOD22369   2.596   3.065   0.703  0.4168 -0.4651 -0.6708
  242SOD    SOD22370   5.019   4.394  11.301  0.2679  0.0999 -0.4207
  243SOD    SOD22371   1.340   4.012   5.218 -0.4614  0.5507 -0.6085
  244SOD    SOD22372   6.306   2.931   3.482  0.7906  0.2214  0.2999
  245SOD    SOD22373   0.938   6.441  14.396 -0.3633 -0.1407 -0.3663
  246SOD    SOD22374   1.804   5.285  16.621  0.2059 -0.5212  0.0335
  247SOD    SOD22375   1.974   3.334   4.529 -0.0262  0.0954  0.0291
  248SOD    SOD22376   0.626   3.018  15.351  0.3992 -0.5649  0.2826
  249SOD    SOD22377   0.101   1.543   5.127 -0.0322  0.0118  0.2495
  250SOD    SOD22378   2.926   3.463   5.225  0.1978  0.2289  0.1342
  251SOD    SOD22379   4.915   6.743  16.526  0.2840  0.1069 -0.2510
  252SOD    SOD22380   5.691   3.541  16.192 -0.4538 -0.3760 -0.5226
  253SOD    SOD22381   3.491   0.605   6.299 -0.0905  0.0804 -0.4722
  254SOD    SOD22382   4.792   6.298   5.967  0.2491 -0.1031 -0.2620
  255SOD    SOD22383   3.931   6.417  15.719 -0.3514  0.5851  0.1958
  256SOD    SOD22384   3.563   4.178  11.175  0.2810 -0.0393 -0.3310
  257SOD    SOD22385   2.161   4.144   5.941 -0.3741 -0.1460  0.3957
  258SOD    SOD22386   0.057   6.122   3.772  0.4588  0.4451  0.2370
  259SOD    SOD22387   5.443   1.369  17.133 -0.3931  0.7382  0.2799
  260SOD    SOD22388   4.131   6.549   4.052 -0.1026  0.2620 -0.2539
  261SOD    SOD22389   2.278   2.376  14.947 -0.3043  0.2367  0.2282
  262SOD    SOD22390   6.372   5.157   6.365 -0.1731  0.1715  0.0590
  263SOD    SOD22391   6.490   1.170  13.912  0.8086  0.1696  0.1484
  264SOD    SOD22392   3.594   5.089   4.426  0.5284  0.1373 -0.1956
  265SOD    SOD22393   1.054   2.245   3.425  0.4517 -0.3663 -0.5348
  266CLA    CLA22394   4.597   5.796   0.505  0.1698  0.1985  0.1833
  267CLA    CLA22395   5.656   4.791   5.036  0.0620  0.3078  0.3634
  268CLA    CLA22396   4.973   0.110   4.572 -0.2972 -0.2671  0.1198
  269CLA    CLA22397   2.327   3.985  14.392  0.1007  0.3152 -0.2608
  270CLA    CLA22398   3.391   2.682  16.706 -0.2090  0.2083  0.5197
  271CLA    CLA22399   0.819   0.226  16.743  0.3494  0.2031 -0.2500
  272CLA    CLA22400   1.247   1.462  14.016  0.1718 -0.1437 -0.3889
  273CLA    CLA22401   4.515   3.178  16.395 -0.0311  0.3932 -0.0766
  274CLA    CLA22402   3.896   2.020  12.703  0.1789  0.2438 -0.1636
  275CLA    CLA22403   0.126   4.699   5.479 -0.2573  0.1698  0.1078
  276CLA    CLA22404   0.877   6.477  15.784 -0.0064 -0.0937  0.1278
  277CLA    CLA22405   6.792   1.658  16.151 -0.2687 -0.1819 -0.5639
  278CLA    CLA22406   0.803   3.901   1.342  0.0531  0.2125  0.7275
  279CLA    CLA22407   1.702   4.534  15.884 -0.2136  0.2826  0.0422
  280CLA    CLA22408   2.385   6.436  12.521  0.0476 -0.3508  0.0479
  281CLA    CLA22409   0.231   4.136  15.916 -0.0635  0.1285  0.0199
  282CLA    CLA22410   3.036   5.830  11.264  0.6276  0.1903  0.5203
  283CLA    CLA22411   4.486   0.717  12.096 -0.6275  0.1035 -0.1168
  284CLA    CLA22412   2.199   3.563   0.190  0.0903  0.5199 -0.1356
  285CLA    CLA22413   2.240   2.451   5.013 -0.2424  0.5215 -0.1297
  286CLA    CLA22414   6.021   1.448   2.274  0.2788  0.0107 -0.2549
  287CLA    CLA22415   0.542   6.175  15.456 -0.3784 -0.0873  0.0105
  288CLA    CLA22416   0.996   1.801   2.815 -0.3003  0.4020 -0.1528
  289CLA    CLA22417   1.366   0.556   4.109 -0.1988 -0.1891 -0.1577
  290CLA    CLA22418   5.281   6.648  12.031  0.4270  0.1784 -0.0762
  291CLA    CLA22419   2.058   6.386  14.122  0.2033  0.1616  0.3460
  292CLA    CLA22420   5.858   0.894  15.390  0.0350 -0.0493  0.0936
  293CLA    CLA22421   3.299   0.684   3.019  0.0145 -0.2931 -0.1052
  294CLA    CLA22422   3.368   3.504   1.628 -0.2371 -0.1784  0.1138
  295CLA    CLA22423   5.826   3.368   4.139 -0.2150  0.2273 -0.0074
  296CLA    CLA22424   0.976   3.802   3.645 -0.3926  0.3594  0.0591
  297CLA    CLA22425   3.622   4.124   4.592  0.0930 -0.3317 -0.1426
  298CLA    CLA22426   6.222   1.807  15.493 -0.1894  0.2799 -0.1831
  299CLA    CLA22427   4.157   3.431  12.181  0.0758 -0.0586  0.1013
  300CLA    CLA22428   0.076   2.491   5.487 -0.4069 -0.2717  0.2533
  301CLA    CLA22429   1.406   0.202   1.453  0.3724  0.2293 -0.0178
  302CLA    CLA22430   3.994   5.922  15.533 -0.2885  0.1608 -0.1872
  303CLA    CLA22431   0.970   6.070  13.971  0.3233  0.2033  0.0851
  304CLA    CLA22432   6.407   1.503   4.668 -0.0728 -0.1242 -0.0206
  305CLA    CLA22433   1.750   2.941  12.722  0.1195  0.0063 -0.3463
  306CLA    CLA22434   5.652   6.158   0.363  0.1906 -0.1258  0.2555
  307CLA    CLA22435   2.808   5.974   0.862 -0.0042  0.1952 -0.3996
  308CLA    CLA22436   5.639   3.443  14.573 -0.3181  0.4206 -0.0556
  309CLA    CLA22437   4.425   4.765  13.976 -0.1178 -0.0439 -0.0434
  310CLA    CLA22438   3.240   3.829  11.826  0.8163 -0.3090  0.2527
  311CLA    CLA22439   0.300   4.453   0.647  0.0140  0.0044 -0.0068
  312CLA    CLA22440   3.881   3.314   1.595 -0.2064  0.1573 -0.0875
  313CLA    CLA22441   6.675   4.360   2.787  0.0742  0.1843 -0.0260
  314CLA    CLA22442   2.861   5.898   3.486 -0.5548 -0.2405  0.6637
  315CLA    CLA22443   5.846   6.041  15.944 -0.1512  0.0022 -0.0236
  316CLA    CLA22444   3.284   0.209  16.849 -0.0318 -0.0961  0.2147
  317CLA    CLA22445   3.212   3.039  14.912 -0.2773  0.0224  0.1232
  318CLA    CLA22446   3.345   3.775  13.428  0.3840 -0.3747 -0.2727
  319TIP3   OH222447   3.845   0.383  16.807 -0.8341 -0.0616 -0.4192
  319TIP3    H122448   3.794   0.304  16.822  0.8345 -1.0870 -0.0494
  319TIP3    H222449   3.854   0.422  16.894  1.4623 -1.4391  0.0136
  320TIP3   OH222450   6.226   5.959   3.065 -0.4376 -0.0854  0.1454
  320TIP3    H122451   6.177   5.996   3.138  0.2384 -1.8123  1.5018
  320TIP3    H222452   6.313   5.940   3.101  0.2748  0.0843 -1.4182
  321TIP3   OH222453   3.742   6.583  11.320  0.2755  0.3663  0.1261
  321TIP3    H122454   3.790   6.525  11.261  1.0711  0.7543  0.3785
  321TIP3    H222455   3.780   6.566  11.406  0.3029  1.0429  0.2495
  322TIP3   OH222456   6.086   1.565  17.079 -0.3697  0.0602 -0.7042
  322TIP3    H122457   6.121   1.586  16.992 -1.2313  2.0702 -0.5983
  322TIP3    H222458   6.095   1.647  17.128 -2.0101 -0.3865  0.3819
  323TIP3   OH222459   1.282   5.132  14.021 -0.3916  0.4861 -0.1102
  323TIP3    H122460   1.362   5.156  13.974 -0.3154 -0.3573 -0.4165
  323TIP3    H222461   1.308   5.133  14.114  0.1035 -0.2493 -0.2350
  324TIP3   OH222462   4.997   0.811   5.185 -1.0806 -0.0815  0.0140
  324TIP3    H122463   5.088   0.840   5.175 -0.9428 -1.1060 -2.0216
  324TIP3    H222464   4.974   0.776   5.099 -3.5547  0.5543  0.4009
  325TIP3   OH222465   4.000   0.044   0.218  0.1779 -0.6281 -0.2953
  325TIP3    H122466   4.040  -0.012   0.285  0.0433 -0.5018 -0.1101
  325TIP3    H222467   4.073   0.098   0.187  0.6360 -1.9069 -1.5155
  326TIP3   OH222468   6.246   6.454   0.436  0.2895  0.0257  0.2678
  326TIP3    H122469   6.291   6.535   0.414  0.4831  0.1605  1.1457
  326TIP3    H222470   6.254   6.447   0.531  2.0478 -2.0472  0.0152
  327TIP3   OH222471   4.808   4.070  16.652 -0.3495  0.1497  0.3699
  327TIP3    H122472   4.876   4.024  16.603  0.4055  0.7765  0.8149
  327TIP3    H222473   4.728   4.024  16.630  0.0972 -0.0988 -0.7958
  328TIP3   OH222474   6.433   2.750   3.567  0.3048  0.0523  0.2583
  328TIP3    H122475   6.421   2.655   3.577  0.4958  0.0871  0.7917
  328TIP3    H222476   6.524   2.765   3.589  0.2712  0.3653  0.1818
  329TIP3   OH222477   5.504   3.084   3.959 -0.4085 -0.1306  0.2724
  329TIP3    H122478   5.470   3.142   4.026  0.8991  0.1734  0.6838
  329TIP3    H222479   5.571   3.135   3.914  1.0058 -1.4205  0.8671
  330TIP3   OH222480   2.555   3.782   6.214 -0.0547 -0.5742  0.1076
  330TIP3    H122481   2.650   3.787   6.218 -0.1782  0.8007  1.7127
  330TIP3    H222482   2.535   3.785   6.120  1.3217  2.7289 -0.1449
  331TIP3   OH222483   3.117   6.353   0.779 -0.3309 -0.1164 -0.0783
  331TIP3    H122484   3.131   6.448   0.779 -0.2273 -0.1076 -2.1159
  331TIP3    H222485   3.159   6.323   0.860 -1.2865  1.6929  1.1201
  332TIP3   OH222486   2.918   2.460  12.270 -0.8602  0.1512  0.7247
  332TIP3    H122487   2.930   2.555  12.267 -1.3050  0.1826  0.0043
  332TIP3    H222488   2.913   2.433  12.179  0.7247 -0.7591  0.8945
  333TIP3   OH222489   6.087   3.577  17.122  0.6717 -0.0614  0.1434
  333TIP3    H122490   5.998   3.588  17.154  1.8077  1.8395  2.8518
  333TIP3    H222491   6.105   3.483  17.132 -1.0875 -0.5271 -0.7780
  334TIP3   OH222492   4.765   1.571   1.515 -0.6106  0.2669  0.4740
  334TIP3    H122493   4.697   1.600   1.454 -1.4514  0.8717  1.6819
  334TIP3    H222494   4.847   1.588   1.469 -1.2268  0.7114 -0.4898
  335TIP3   OH222495   4.091   1.686  11.232  0.0368 -0.1280  0.0606
  335TIP3    H122496   4.155   1.639  11.286 -1.6673 -1.3914  1.0290
  335TIP3    H222497   4.083   1.772  11.274 -0.8488 -0.9044  1.5042
  336TIP3   OH222498   1.195   6.637  12.938  0.3229  0.2784  0.0295
  336TIP3    H122499   1.268   6.637  13.000  0.4049  0.3921 -0.0670
  336TIP3    H222500   1.236   6.622  12.853  0.1874 -0.0973  0.0295
  337TIP3   OH222501   5.938   5.602   3.512  0.0938 -0.3619 -0.0089
  337TIP3    H122502   5.902   5.671   3.568  1.4135  1.4148 -1.3017
  337TIP3    H222503   5.866   5.539   3.503 -1.2447  0.9902  0.9457
  338TIP3   OH222504   2.609   3.545  13.134  0.2622  0.0114 -0.4272
  338TIP3    H122505   2.564   3.512  13.211 -1.1271  0.5719 -0.9733
  338TIP3    H222506   2.540   3.558  13.069  1.2329  0.7356 -1.3495
  339TIP3   OH222507   1.223   4.355   4.337  0.8050 -0.0887 -0.3169
  339TIP3    H122508   1.210   4.420   4.406  2.1692  2.0797 -2.0244
  339TIP3    H222509   1.136   4.342   4.300  0.1754 -0.7954  1.3906
  340TIP3   OH222510   4.071   4.825   1.297  0.5308  0.4378  0.1027
  340TIP3    H122511   3.983   4.861   1.297  0.1480 -0.4742 -0.7565
  340TIP3    H222512   4.065   4.747   1.352  1.1698  1.2157  1.3057
  341TIP3   OH222513   1.229   6.250   5.513 -0.2378 -0.2707  0.4097
  341TIP3    H122514   1.254   6.341   5.523 -0.0022 -0.3857  0.9056
  341TIP3    H222515   1.203   6.222   5.601  0.5651 -0.9309  0.4463
  342TIP3   OH222516   3.598   0.031   0.710  0.0246  0.1917  0.2112
  342TIP3    H122517   3.604   0.106   0.770  1.2550  0.2811 -0.0121
  342TIP3    H222518   3.549   0.064   0.635  0.4367  0.7227  0.1777
  343TIP3   OH222519   2.566   5.918   1.553  0.4647 -0.1575  0.2063
  343TIP3    H122520   2.484   5.966   1.568  2.0887  3.4292 -1.7719
  343TIP3    H222521   2.555   5.880   1.466  0.7802  0.0496  0.0775
  344TIP3   OH222522   6.394   2.981   3.029  0.1303 -0.1576 -0.1219
  344TIP3    H122523   6.299   2.970   3.023 -0.0817  0.3033  1.9130
  344TIP3    H222524   6.419   2.923   3.101  0.9402  1.9890  1.3867
  345TIP3   OH222525   4.754   5.608   5.585 -0.2381 -0.0226 -0.4336
  345TIP3    H122526   4.728   5.690   5.629  2.1083 -0.0848  1.1774
  345TIP3    H222527   4.810   5.637   5.512 -0.1219 -0.1441 -0.3923
  346TIP3   OH222528   1.517   3.538  15.330  0.0501  0.1618  0.4910
  346TIP3    H122529   1.505   3.601  15.258  1.9972 -1.6469 -1.4744
  346TIP3    H222530   1.605   3.555  15.362 -0.2643 -0.0570  1.4727
  347TIP3   OH222531   2.098   3.540  16.624  0.6404 -0.0266 -0.0418
  347TIP3    H122532   2.080   3.469  16.563  0.6985  0.4621 -0.6445
  347TIP3    H222533   2.184   3.519  16.661  1.0281  0.1358 -0.8251
  348TIP3   OH222534   1.702   0.324  14.899 -0.0200  0.0151 -0.1867
  348TIP3    H122535   1.626   0.360  14.853 -0.2204  1.7763  1.4330
  348TIP3    H222536   1.769   0.315  14.832 -0.8064  1.0168 -1.1287
  349TIP3   OH222537   6.770   1.857  16.769 -0.4535 -0.6972 -0.0718
  349TIP3    H122538   6.838   1.820  16.825 -1.1387 -1.1453  0.4715
  349TIP3    H222539   6.716   1.782  16.745  0.4124 -0.6789 -2.1588
  350TIP3   OH222540   0.277   0.482   3.176 -0.0041 -0.0787  0.0394
  350TIP3    H122541   0.364   0.521   3.179  0.9742 -2.0784 -1.1950
  350TIP3    H222542   0.271   0.429   3.255 -0.4901  0.8424  0.6230
  351TIP3   OH222543   3.028   4.543   0.340  0.3746  0.4413  0.6623
  351TIP3    H122544   3.037   4.619   0.398 -2.1640  1.7757 -0.5933
  351TIP3    H222545   2.985   4.477   0.393 -1.2399  1.3876  0.5783
  352TIP3   OH222546   6.053   5.119  12.545  0.2120 -0.7845 -0.6192
  352TIP3    H122547   6.145   5.091  12.547  0.4391 -0.0205  0.3188
  352TIP3    H222548   6.004   5.040  12.569  0.7814 -0.6617  1.0478
  353TIP3   OH222549   5.186   6.256   2.306  0.8509 -0.3371  0.5918
  353TIP3    H122550   5.224   6.189   2.362  1.3488  0.3518  1.0942
  353TIP3    H222551   5.208   6.339   2.349  1.2959  0.2123 -0.6488
  354TIP3   OH222552   0.829   6.438   5.181 -0.5018  0.2188 -0.0043
  354TIP3    H122553   0.793   6.517   5.222  0.5372  0.6142  0.1413
  354TIP3    H222554   0.866   6.387   5.254  1.0472  0.7668 -0.3964
  355TIP3   OH222555   6.010   2.472  15.777 -0.1867 -0.2312  0.1407
  355TIP3    H122556   5.956   2.484  15.855 -1.1135 -1.1463 -0.3439
  355TIP3    H222557   6.082   2.416  15.806  0.7143  1.2765  0.8717
  356TIP3   OH222558   3.295   2.721  13.978 -0.0039 -0.1774  0.3901
  356TIP3    H122559   3.253   2.807  13.989  0.2298  0.0639 -0.5683
  356TIP3    H222560   3.290   2.681  14.065  0.1525  0.9292  0.9218
  357TIP3   OH222561   1.223   4.109   2.045 -0.4259  0.3588 -0.5276
  357TIP3    H122562   1.179   4.036   2.090 -0.8092  0.7298 -0.2966
  357TIP3    H222563   1.152   4.158   2.004 -0.3005  1.3276  0.3760
  358TIP3   OH222564   3.792   4.605  14.638  0.4022  0.9622  0.1324
  358TIP3    H122565   3.786   4.550  14.716 -1.3652  0.2367 -0.4646
  358TIP3    H222566   3.780   4.694  14.670  0.9840  0.7905  0.8357
  359TIP3   OH222567   2.562   1.153  11.864  0.2975  0.0739 -0.1755
  359TIP3    H122568   2.467   1.145  11.860  0.4191 -1.5811  0.2142
  359TIP3    H222569   2.585   1.196  11.781 -0.7561  0.2820 -0.3733
  360TIP3   OH222570   0.784   1.940  11.540  0.4974 -0.2398  0.1498
  360TIP3    H122571   0.710   1.882  11.522  0.9511 -1.1477  1.1489
  360TIP3    H222572   0.753   1.995  11.612  0.9316 -0.9151  0.8668
  361TIP3   OH222573   2.570   4.237  16.970  0.1260  0.3343 -0.0218
  361TIP3    H122574   2.659   4.235  17.005 -0.0083 -1.4065  0.2645
  361TIP3    H222575   2.558   4.151  16.930 -1.7908  0.1817  0.8332
  362TIP3   OH222576   0.164   2.997   2.006 -0.1008 -0.1245 -0.1048
  362TIP3    H122577   0.158   3.061   1.935 -0.2798 -0.3672 -0.3106
  362TIP3    H222578   0.117   2.920   1.972 -3.3079  0.9615  1.6018
  363TIP3   OH222579   4.361   5.762   1.255  0.3536 -0.0527  0.4720
  363TIP3    H122580   4.403   5.848   1.260 -1.5446  0.9289  0.0411
  363TIP3    H222581   4.338   5.741   1.346 -2.0067  1.3581  0.2251
  364TIP3   OH222582   3.059   0.038   0.564  0.1101  0.2533  0.0902
  364TIP3    H122583   2.979  -0.006   0.535  0.6703 -0.1839 -0.8215
  364TIP3    H222584   3.071   0.109   0.500  1.2226 -0.5627 -0.6259
  365TIP3   OH222585   5.095   0.887   1.412  0.5965  0.4852 -0.2444
  365TIP3    H122586   5.052   0.911   1.494  0.6540 -1.8049  0.4772
  365TIP3    H222587   5.155   0.816   1.435  1.0743  0.2365 -2.1516
  366TIP3   OH222588   3.539   4.092  16.817 -0.0187  0.0199 -0.5190
  366TIP3    H122589   3.617   4.108  16.871 -0.3481 -1.1434  0.3089
  366TIP3    H222590   3.491   4.025  16.864 -1.0938  0.1072 -1.4888
  367TIP3   OH222591   5.833   5.674  11.191  0.3608  0.2874 -0.7757
  367TIP3    H122592   5.766   5.605  11.192 -0.0060  0.6277 -1.6071
  367TIP3    H222593   5.910   5.632  11.153  0.9007 -0.3538  0.9856
  368TIP3   OH222594   0.738   6.160   0.510 -0.1390  0.1734  0.1111
  368TIP3    H122595   0.730   6.247   0.550 -0.1508  0.7544 -1.1412
  368TIP3    H222596   0.832   6.147   0.499 -0.1033 -0.2653  0.9356
  369TIP3   OH222597   2.614   4.167  15.449  0.3880 -0.5807 -0.2713
  369TIP3    H122598   2.597   4.112  15.526 -0.7506 -1.0203 -0.8109
  369TIP3    H222599   2.698   4.136  15.415 -0.2590 -2.0431 -0.5961
  370TIP3   OH222600   1.109   2.024   0.855 -0.5756  0.2669  0.1391
  370TIP3    H122601   1.155   2.062   0.930  0.5855 -0.3113 -0.2831
  370TIP3    H222602   1.092   2.099   0.797 -0.5739  0.5504  0.5011
  371TIP3   OH222603   4.697   5.123   1.978 -0.4038  0.3940  0.7475
  371TIP3    H122604   4.617   5.175   1.975  0.0600  1.0232 -1.7763
  371TIP3    H222605   4.766   5.183   1.950  0.6613 -0.6414  1.0980
  372TIP3   OH222606   4.329   0.456   4.251 -0.1390  0.1785 -0.4481
  372TIP3    H122607   4.293   0.423   4.169 -0.7992  0.7271 -0.3878
  372TIP3    H222608   4.257   0.508   4.289 -0.2237 -0.9445  0.9758
  373TIP3   OH222609   4.542   1.914   2.781 -0.4152  0.2659 -0.0347
  373TIP3    H122610   4.456   1.931   2.743 -0.8561 -0.1355  0.7970
  373TIP3    H222611   4.547   1.819   2.788  0.7064  0.1920 -1.4985
  374TIP3   OH222612   4.472   1.151   3.321 -0.1911 -0.5405  0.5482
  374TIP3    H122613   4.461   1.245   3.339  1.0901 -0.4383  0.8213
  374TIP3    H222614   4.401   1.131   3.260  0.0576  0.8082 -0.2136
  375TIP3   OH222615   2.411   1.852  16.873 -0.0444 -1.1503 -0.2654
  375TIP3    H122616   2.503   1.827  16.883  0.1945 -0.5109 -0.8206
  375TIP3    H222617   2.363   1.769  16.874  0.4785 -1.4420  0.6419
  376TIP3   OH222618   4.438   0.161   1.809  0.1431 -0.7312 -0.1207
  376TIP3    H122619   4.437   0.237   1.867  1.2798 -0.5505 -0.3231
  376TIP3    H222620   4.528   0.129   1.813  1.5305  1.9603 -5.1685
  377TIP3   OH222621   3.833   2.328   1.348 -0.1604 -0.3931 -0.2759
  377TIP3    H122622   3.747   2.294   1.322  0.2768 -0.8292 -1.2070
  377TIP3    H222623   3.814   2.412   1.390 -1.0173 -0.3455 -0.7353
  378TIP3   OH222624   1.267   4.214  11.682 -0.0479 -0.1267  0.4001
  378TIP3    H122625   1.217   4.251  11.755 -0.1443  0.1857  0.1793
  378TIP3    H222626   1.355   4.251  11.693 -0.6430  1.7661 -0.9468
  379TIP3   OH222627   2.077   0.895  12.766  0.4895  0.1438  0.6237
  379TIP3    H122628   2.049   0.908  12.857 -0.5682 -0.5783  0.4041
  379TIP3    H222629   2.173   0.894  12.770  0.4704  1.3722  1.5557
  380TIP3   OH222630   2.420   5.165   4.506  0.8532 -0.2911  0.1209
  380TIP3    H122631   2.349   5.141   4.565  0.4448  0.4005 -0.0845
  380TIP3    H222632   2.404   5.115   4.426  0.4236  0.1007 -0.0370
  381TIP3   OH222633   5.811   3.620   1.638  0.6447 -0.2038  0.4203
  381TIP3    H122634   5.741   3.645   1.578  0.8632 -1.2650 -0.2927
  381TIP3    H222635   5.887   3.670   1.609  0.6747 -0.4972 -0.0134
  382TIP3   OH222636   2.994   0.859  10.481  0.2797  0.7243 -0.8874
  382TIP3    H122637   2.940   0.788  10.447  0.3243  0.6289 -0.7632
  382TIP3    H222638   2.932   0.928  10.504  0.0867  0.1322  0.4253
  383TIP3   OH222639   1.220   3.071   2.704 -0.1537 -0.9421 -0.0258
  383TIP3    H122640   1.213   3.153   2.752  0.4403 -0.1348 -1.3086
  383TIP3    H222641   1.151   3.015   2.742 -1.4190  0.5843 -0.0553
  384TIP3   OH222642   0.074   6.679   0.355 -0.1578 -0.0998 -0.2113
  384TIP3    H122643   0.102   6.591   0.380  0.4771  0.3991  0.8944
  384TIP3    H222644   0.155   6.727   0.341 -0.5049  0.2276 -1.1124
  385TIP3   OH222645   2.514   1.910  16.072 -0.0428  0.0081  0.3922
  385TIP3    H122646   2.493   1.817  16.075  1.0124 -0.2371  0.4148
  385TIP3    H222647   2.607   1.915  16.094 -0.2962  1.1475  1.2911
  386TIP3   OH222648   1.352   6.203  16.474 -0.3298  0.5476  0.6472
  386TIP3    H122649   1.261   6.227  16.457 -0.2470  0.0392 -0.5454
  386TIP3    H222650   1.348   6.149  16.553 -1.5398 -2.7119 -1.5661
  387TIP3   OH222651   4.397   3.630  16.636 -0.3118 -0.1338  0.5128
  387TIP3    H122652   4.478   3.677  16.616  0.2712 -0.0954  2.8311
  387TIP3    H222653   4.426   3.540  16.656 -1.1289 -0.7885 -1.1300
  388TIP3   OH222654   6.470   5.621   5.936  0.0299 -0.5178 -0.4639
  388TIP3    H122655   6.474   5.547   5.997  0.4784 -1.1223 -1.2255
  388TIP3    H222656   6.560   5.655   5.934 -0.7212  1.8143  2.0313
  389TIP3   OH222657   2.613   0.670   3.992 -0.2938 -0.0419  0.2641
  389TIP3    H122658   2.611   0.580   4.025 -1.3337  0.5713  1.9155
  389TIP3    H222659   2.660   0.664   3.908 -0.9556 -2.2275  0.0267
  390TIP3   OH222660   2.837   3.859  16.927  0.0406 -0.4552 -0.3724
  390TIP3    H122661   2.913   3.847  16.983 -0.4835 -1.6314  0.1083
  390TIP3    H222662   2.767   3.887  16.986  0.0308  0.3525 -0.7640
  391TIP3   OH222663   6.249   4.060  16.130  0.6779 -0.3256  0.2058
  391TIP3    H122664   6.160   4.095  16.136  0.5987 -0.0865 -1.8490
  391TIP3    H222665   6.282   4.064  16.219 -0.5741  1.7240  0.6180
  392TIP3   OH222666   4.717   1.359   2.471  0.2197  0.7436 -0.6664
  392TIP3    H122667   4.724   1.452   2.496 -0.0961  0.7134 -0.4767
  392TIP3    H222668   4.803   1.339   2.433  0.5626  0.8996  0.0108
  393TIP3   OH222669   3.283   0.171  14.791 -0.3220 -0.0544  0.4050
  393TIP3    H122670   3.291   0.116  14.869 -0.5523  0.9068  1.1230
  393TIP3    H222671   3.359   0.148  14.737 -1.1929 -2.0947  0.0294
  394TIP3   OH222672   0.901   2.718   3.794 -0.0265 -0.7784 -0.3632
  394TIP3    H122673   0.829   2.680   3.743 -1.3738 -1.0914  1.7290
  394TIP3    H222674   0.950   2.770   3.731 -1.4647 -1.4254 -2.0554
  395TIP3   OH222675   4.469   5.297   0.568  0.2026 -0.6666 -0.1405
  395TIP3    H122676   4.422   5.224   0.610  1.6124 -2.1418 -1.0529
  395TIP3    H222677   4.401   5.345   0.521 -0.5070 -2.3872 -0.9075
  396TIP3   OH222678   0.288   1.402   1.345 -0.3804  0.1683  0.0811
  396TIP3    H122679   0.327   1.316   1.359  2.4758  1.6181  1.5588
  396TIP3    H222680   0.220   1.409   1.413 -0.2745 -0.7092  0.2785
  397TIP3   OH222681   3.821   5.580   1.478  0.3097 -0.2321  0.3493
  397TIP3    H122682   3.862   5.641   1.417 -1.9337  0.9985  0.0403
  397TIP3    H222683   3.850   5.494   1.449  2.5925  0.5922  0.1070
  398TIP3   OH222684   0.106   6.264   3.328 -0.1066 -0.2902 -0.5793
  398TIP3    H122685   0.178   6.201   3.336 -0.4944 -0.8346 -1.2988
  398TIP3    H222686   0.126   6.313   3.249  0.0001  0.2422 -0.2212
  399TIP3   OH222687   4.030   6.414   6.121  0.9879 -0.0727  0.2466
  399TIP3    H122688   4.046   6.332   6.167 -0.6376 -0.6517 -0.2061
  399TIP3    H222689   3.975   6.465   6.181 -0.0276 -0.2993 -0.4822
  400TIP3   OH222690   2.710   2.946  13.621  0.0500  0.3891 -0.4747
  400TIP3    H122691   2.678   3.019  13.569  0.0367  0.1089 -0.8645
  400TIP3    H222692   2.764   2.986  13.690  0.1385  0.7519 -0.7568
  401TIP3   OH222693   4.428   1.067  15.242 -0.2393 -0.6409  0.7717
  401TIP3    H122694   4.347   1.019  15.260 -0.9048  0.1338 -0.1248
  401TIP3    H222695   4.411   1.114  15.160  1.3558 -0.9893  0.2328
  402TIP3   OH222696   6.251   5.457   5.553  0.3296  0.4020  0.3747
  402TIP3    H122697   6.209   5.437   5.469 -0.6460  0.9392  0.7254
  402TIP3    H222698   6.184   5.504   5.603  1.5138  1.7179  0.7673
  403TIP3   OH222699   4.780   1.899   1.800 -0.3091 -0.2848 -0.0962
  403TIP3    H122700   4.711   1.832   1.803 -0.5429  0.0061  1.5872
  403TIP3    H222701   4.843   1.871   1.866  1.8640 -1.2161 -2.4689
  404TIP3   OH222702   2.937   6.045  17.139  0.1864 -0.5400 -0.0792
  404TIP3    H122703   2.997   6.022  17.210  1.4125 -0.2055 -0.9841
  404TIP3    H222704   2.885   5.966  17.126  1.8230 -1.5557 -0.6477
  405TIP3   OH222705   6.803   4.219   3.126  0.1185 -0.2675 -0.3672
  405TIP3    H122706   6.847   4.290   3.173 -1.0721 -0.4175  1.0319
  405TIP3    H222707   6.734   4.262   3.075 -1.5988 -0.5222  1.6705
  406TIP3   OH222708   1.538   6.032   0.228 -0.3683  0.4867 -0.0856
  406TIP3    H122709   1.453   6.044   0.270 -0.6194  0.1254 -0.4909
  406TIP3    H222710   1.584   5.970   0.284  0.6254  2.6763  1.5721
  407TIP3   OH222711   5.944   0.609  16.770 -0.1769 -0.1005  0.0230
  407TIP3    H122712   5.957   0.663  16.692 -4.9765  0.8499 -0.3147
  407TIP3    H222713   5.908   0.669  16.835  0.4879 -1.6031  1.8102
  408TIP3   OH222714   5.457   3.838  15.848  0.0639  0.6149 -0.1082
  408TIP3    H122715   5.500   3.917  15.880  0.4532  0.6322 -0.6693
  408TIP3    H222716   5.387   3.870  15.792  0.7743  0.5508 -1.0387
  409TIP3   OH222717   3.531   2.174  15.374 -0.2644 -0.7444  0.1735
  409TIP3    H122718   3.503   2.140  15.289 -0.3473 -0.4159  0.0703
  409TIP3    H222719   3.593   2.109  15.407 -0.1432 -0.8106 -0.1919
  410TIP3   OH222720   1.649   2.625  16.021  0.1889  0.5924  0.8749
  410TIP3    H122721   1.644   2.541  16.067 -0.6333  0.1787  0.0487
  410TIP3    H222722   1.652   2.691  16.090  1.0007 -0.1209  1.5275
  411TIP3   OH222723   3.491   4.011   3.001  0.0919  0.3446  0.3586
  411TIP3    H122724   3.492   3.916   3.014  1.2148  0.3700  0.5017
  411TIP3    H222725   3.399   4.035   3.009 -0.2091 -0.7383  0.2850
  412TIP3   OH222726   3.196   3.463  12.070  0.4942 -0.2523  0.0691
  412TIP3    H122727   3.251   3.491  12.143 -1.1490 -1.9855  2.0334
  412TIP3    H222728   3.118   3.519  12.077  0.4849 -0.1806 -0.5906
  413TIP3   OH222729   0.373   5.842   0.848 -0.1826  0.3218  0.3005
  413TIP3    H122730   0.313   5.872   0.916  1.4911  1.5096  1.2986
  413TIP3    H222731   0.395   5.921   0.799  2.1758  0.3235  1.2660
  414TIP3   OH222732   3.102   1.908  12.894 -0.2034  0.1080  0.5608
  414TIP3    H122733   3.027   1.945  12.848  0.0372 -0.7042 -0.5197
  414TIP3    H222734   3.114   1.964  12.970  0.2146  2.2756 -1.0808
  415TIP3   OH222735   0.451   6.498   1.949 -0.3584 -0.2867  0.1222
  415TIP3    H122736   0.519   6.552   1.909 -0.3188 -0.9690 -0.7561
  415TIP3    H222737   0.383   6.561   1.975 -0.5356  0.1423 -1.3337
  416TIP3   OH222738   0.168   1.321   5.121  0.1049 -0.0001 -0.1632
  416TIP3    H122739   0.259   1.346   5.101  0.1515 -1.6353 -2.1697
  416TIP3    H222740   0.174   1.230   5.149 -0.6453  0.6491  2.1869
  417TIP3   OH222741   2.026   6.251  13.793 -0.1219 -0.4104 -0.4332
  417TIP3    H122742   2.006   6.321  13.731 -2.5671 -0.8000 -0.1215
  417TIP3    H222743   2.016   6.292  13.879  3.2584  0.1306 -0.2303
  418TIP3   OH222744   3.364   3.347  11.560 -0.1519 -0.6259 -0.9574
  418TIP3    H122745   3.423   3.309  11.626 -2.0792  0.2072  1.3141
  418TIP3    H222746   3.393   3.438  11.552 -0.9131 -0.2986 -0.0651
  419TIP3   OH222747   6.326   0.666  11.122  0.0411 -0.0263  0.0144
  419TIP3    H122748   6.241   0.623  11.131 -0.3803  0.4779 -1.2925
  419TIP3    H222749   6.330   0.689  11.029  1.0059  1.1910  0.3536
  420TIP3   OH222750   3.940   5.953  14.521  0.0988  0.4016  0.2675
  420TIP3    H122751   3.903   5.956  14.433  1.7673 -0.9949 -0.5222
  420TIP3    H222752   3.871   5.916  14.575 -1.0206  1.4769 -0.4034
  421TIP3   OH222753   2.579   1.654   1.000  0.0803  0.1254 -0.7381
  421TIP3    H122754   2.639   1.693   0.936 -1.6151  2.0574 -1.2068
  421TIP3    H222755   2.498   1.640   0.952 -0.9479  0.7998  0.7595
  422TIP3   OH222756   6.334   1.551   3.532  0.3883 -0.1460  0.0138
  422TIP3    H122757   6.406   1.614   3.530 -1.0474  1.5194 -0.4316
  422TIP3    H222758   6.294   1.564   3.618  0.1050 -0.4717 -0.0689
  423TIP3   OH222759   5.988   5.550  16.164  0.8148 -0.3463  0.4997
  423TIP3    H122760   5.979   5.619  16.230  1.7861  1.2067 -0.9485
  423TIP3    H222761   5.909   5.557  16.112  1.5054  0.5769 -0.4534
  424TIP3   OH222762   1.176   6.627   2.975 -0.2092  0.0554 -0.2668
  424TIP3    H122763   1.137   6.685   3.041  0.5321 -0.0319  0.2492
  424TIP3    H222764   1.267   6.617   3.002  0.3777  0.8331 -1.8632
  425TIP3   OH222765   2.153   5.673  12.216 -0.2040 -0.0878 -0.1018
  425TIP3    H122766   2.189   5.738  12.155  0.1466  0.0068  0.2012
  425TIP3    H222767   2.202   5.593  12.197 -2.6435 -1.0726 -2.4806
  426TIP3   OH222768   0.000   2.142  10.896 -0.3569 -0.0679 -0.5296
  426TIP3    H122769  -0.022   2.053  10.926  0.3046  0.0427  0.3228
  426TIP3    H222770   0.013   2.133  10.802  0.8329 -1.1151 -0.2850
  427TIP3   OH222771   2.528   6.382   5.194  0.4413  0.2433  0.1611
  427TIP3    H122772   2.553   6.371   5.286  1.8019  1.1379 -0.0897
  427TIP3    H222773   2.508   6.475   5.185  0.9501  0.2831 -0.5921
  428TIP3   OH222774   1.454   1.718  12.881  0.4281  0.8431  0.2083
  428TIP3    H122775   1.365   1.683  12.884  0.3803  1.0390  1.2084
  428TIP3    H222776   1.471   1.732  12.788 -0.2272 -0.1205 -0.0711
  429TIP3   OH222777   1.418   6.296   4.371 -0.4290  0.1669 -0.3857
  429TIP3    H122778   1.345   6.256   4.417 -0.1752 -0.8563 -0.8405
  429TIP3    H222779   1.475   6.329   4.440 -0.9696  0.3363 -0.0162
  430TIP3   OH222780   3.466   2.467   1.423 -0.5052 -0.0278 -0.1368
  430TIP3    H122781   3.464   2.463   1.328 -2.6178 -3.5538 -0.0066
  430TIP3    H222782   3.555   2.498   1.444  0.2345  0.0280 -3.2057
  431TIP3   OH222783   0.514   1.080   4.066  0.5390 -0.5894 -0.2598
  431TIP3    H122784   0.578   1.011   4.083  0.4797 -1.0270 -1.7054
  431TIP3    H222785   0.566   1.160   4.059  0.6294 -0.5064  1.2338
  432TIP3   OH222786   5.841   5.643  14.488 -0.1177  0.4342 -0.5351
  432TIP3    H122787   5.876   5.730  14.467 -0.5624  0.5991 -0.6040
  432TIP3    H222788   5.810   5.610  14.405 -0.7686  0.5805 -0.3503
  433TIP3   OH222789   0.135   5.602   0.983  0.3651  0.0775  0.4972
  433TIP3    H122790   0.087   5.647   1.053  1.1283  1.1838  0.3194
  433TIP3    H222791   0.148   5.513   1.016 -2.4907 -0.5089  0.2425
  434TIP3   OH222792   3.218   4.009   5.143  0.5393 -0.3945  0.3665
  434TIP3    H122793   3.304   4.018   5.102  0.8405  1.0683  1.2982
  434TIP3    H222794   3.234   4.018   5.236 -0.4763 -1.3192  0.6501
  435TIP3   OH222795   4.829   4.850   4.143  0.4051 -0.1259  0.5130
  435TIP3    H122796   4.777   4.772   4.125  0.0918  0.3780 -0.8138
  435TIP3    H222797   4.920   4.822   4.131  0.2446 -0.0220 -1.0708
  436TIP3   OH222798   1.497   4.083   2.876  0.0170 -0.2953  0.3249
  436TIP3    H122799   1.567   4.051   2.818 -0.1921  0.3768 -0.3050
  436TIP3    H222800   1.515   4.176   2.888 -1.1586  0.0474 -0.4235
  437TIP3   OH222801   2.928   3.274   4.254 -0.4664 -0.1080  0.2183
  437TIP3    H122802   2.954   3.189   4.218  0.6009 -0.4047  1.6186
  437TIP3    H222803   2.932   3.334   4.179  0.1926 -1.0109 -0.4842
  438TIP3   OH222804   0.248   1.215  11.539  0.2058  0.1618  0.0963
  438TIP3    H122805   0.210   1.302  11.524 -1.1682 -0.0741  2.1059
  438TIP3    H222806   0.177   1.154  11.521  1.1125 -0.5705 -1.1122
  439TIP3   OH222807   6.771   5.178   1.736 -0.1987  0.4946 -0.1041
  439TIP3    H122808   6.824   5.099   1.732  0.7483  1.1441 -0.5361
  439TIP3    H222809   6.689   5.154   1.691  0.3560 -0.0319 -0.8516
  440TIP3   OH222810   2.326   0.330  16.189 -0.0656 -0.3523 -0.8886
  440TIP3    H122811   2.407   0.379  16.204 -1.1670  2.3951 -3.5415
  440TIP3    H222812   2.276   0.340  16.269  1.2143 -0.1547 -0.0935
  441TIP3   OH222813   4.220   0.167  12.700 -0.0778 -0.4353 -0.3575
  441TIP3    H122814   4.167   0.113  12.759  2.9974 -0.8378  2.1061
  441TIP3    H222815   4.173   0.250  12.696 -1.4216 -1.1024  0.9748
  442TIP3   OH222816   5.873   0.123   1.476 -0.1116 -0.1044  0.1152
  442TIP3    H122817   5.931   0.173   1.419  2.4917 -1.3776  1.5374
  442TIP3    H222818   5.933   0.074   1.533 -2.5614 -3.2466  0.1150
  443TIP3   OH222819   3.527   1.026  16.006 -0.1520 -0.1184  0.3785
  443TIP3    H122820   3.606   0.992  16.048 -0.4984 -0.8406  0.4391
  443TIP3    H222821   3.547   1.119  15.991  0.6585 -0.2639  0.5090
  444TIP3   OH222822   3.263   1.918  11.921 -0.0267  0.3878  0.2839
  444TIP3    H122823   3.307   2.003  11.926 -0.5567  0.7002 -0.2050
  444TIP3    H222824   3.186   1.935  11.867 -0.3895 -0.2999  0.5824
  445TIP3   OH222825   4.646   3.755   3.190 -0.3255 -0.8185 -0.2078
  445TIP3    H122826   4.605   3.745   3.276  0.1933 -1.3183 -0.0190
  445TIP3    H222827   4.590   3.704   3.131 -2.5359  2.0989 -0.7705
  446TIP3   OH222828   6.550   1.725   3.481  0.6830  0.1669  0.2074
  446TIP3    H122829   6.616   1.699   3.545  0.4179  0.5489  0.6415
  446TIP3    H222830   6.599   1.776   3.416  0.6980  1.0689  0.9143
  447TIP3   OH222831   3.858   1.478  11.255 -0.4183  0.2286  0.3682
  447TIP3    H122832   3.916   1.420  11.305  0.0796 -0.5041 -1.0583
  447TIP3    H222833   3.903   1.563  11.258  0.6677 -0.3005 -0.6088
  448TIP3   OH222834   3.319   1.814  15.742 -0.2830  0.0487  0.7212
  448TIP3    H122835   3.286   1.725  15.753  0.1255 -0.0027  1.5834
  448TIP3    H222836   3.325   1.826  15.647  1.4979 -1.5372  0.6010
  449TIP3   OH222837   5.407   3.310  13.551 -0.2271  0.8793  0.3740
  449TIP3    H122838   5.461   3.281  13.625  1.2131  2.1423 -0.1343
  449TIP3    H222839   5.402   3.235  13.493  0.0126  0.3791  0.9993
  450TIP3   OH222840   4.543   4.547   4.867  0.5756  0.5172  0.4533
  450TIP3    H122841   4.477   4.494   4.911 -1.2409  2.5480  0.2524
  450TIP3    H222842   4.620   4.541   4.924 -0.5573  0.1093  1.9791
  451TIP3   OH222843   0.172   2.306  13.429  0.7873 -0.6076  0.0736
  451TIP3    H122844   0.092   2.302  13.481  0.8555  0.2683  0.2483
  451TIP3    H222845   0.151   2.367  13.358  1.1823 -0.6571 -0.0853
  452TIP3   OH222846   3.296   2.501   5.499 -0.6842  0.7120  0.1713
  452TIP3    H122847   3.313   2.500   5.405  0.1685  1.6908  0.3072
  452TIP3    H222848   3.368   2.552   5.536 -2.1491  2.1378  1.1175
  453TIP3   OH222849   4.374   5.631   2.356  0.0004  0.1852  0.0547
  453TIP3    H122850   4.405   5.719   2.336 -1.6949  0.5660 -0.9880
  453TIP3    H222851   4.374   5.586   2.272 -0.5109 -0.3767  0.3502
  454TIP3   OH222852   1.668   0.228  12.596  0.2358 -0.4661 -0.4213
  454TIP3    H122853   1.630   0.150  12.557  0.4745  0.7758 -3.2661
  454TIP3    H222854   1.695   0.282  12.522  0.7250  2.0093  1.4609
  455TIP3   OH222855   0.584   4.043  12.908 -0.0337  0.3265  0.3492
  455TIP3    H122856   0.504   4.089  12.882 -1.7815 -1.1975  2.8187
  455TIP3    H222857   0.613   3.998  12.829 -0.1605  2.9060 -1.2403
  456TIP3   OH222858   2.332   5.846  12.070 -0.3955 -0.2397  0.2066
  456TIP3    H122859   2.408   5.822  12.016 -1.7223 -1.3708 -1.2130
  456TIP3    H222860   2.368   5.901  12.139  1.5976 -0.0944 -0.9098
  457TIP3   OH222861   2.095   5.743   0.945  0.2822  0.1239 -0.1722
  457TIP3    H122862   2.165   5.807   0.927 -0.6661  0.6405 -2.1376
  457TIP3    H222863   2.042   5.743   0.866 -1.8296 -0.4396  1.2018
  458TIP3   OH222864   3.637   6.424  12.797 -0.0890 -0.2915 -0.3853
  458TIP3    H122865   3.601   6.450  12.712 -0.3682 -1.4669 -0.6358
  458TIP3    H222866   3.729   6.452  12.793 -0.3228  0.4285 -0.7394
  459TIP3   OH222867   5.232   1.560  11.716 -0.3901  0.1535 -0.5832
  459TIP3    H122868   5.299   1.524  11.774 -0.2973 -0.2280 -0.9223
  459TIP3    H222869   5.273   1.639  11.678 -0.5530  0.5552  0.0767
  460TIP3   OH222870   5.793   3.768  15.134 -0.9490  0.4629  0.2735
  460TIP3    H122871   5.831   3.701  15.079 -0.0309  1.1763  0.0328
  460TIP3    H222872   5.819   3.744  15.223 -0.2467  0.7451  0.1446
  461TIP3   OH222873   6.624   1.774   2.695 -0.3514  0.4552 -0.1144
  461TIP3    H122874   6.660   1.862   2.709 -0.5731  0.4967  0.1951
  461TIP3    H222875   6.576   1.755   2.775  1.7863 -0.9777  0.8846
  462TIP3   OH222876   1.199   4.350   2.954  0.6537 -0.0255  0.0910
  462TIP3    H122877   1.176   4.290   3.025 -0.3595  0.4694  0.1763
  462TIP3    H222878   1.292   4.368   2.968  0.2297  0.8610  1.8762
  463TIP3   OH222879   1.525   5.910   5.471 -0.2119 -0.0353  0.4235
  463TIP3    H122880   1.434   5.895   5.445 -0.6027  0.5680  1.4494
  463TIP3    H222881   1.519   5.950   5.557  0.9623  1.7816 -0.3249
  464TIP3   OH222882   0.760   3.056   1.936 -0.3047 -0.3728  0.2492
  464TIP3    H122883   0.675   3.101   1.931 -0.3745 -0.5139  0.1598
  464TIP3    H222884   0.741   2.975   1.983 -0.1850 -0.3229  0.3826
  465TIP3   OH222885   5.965   0.961   4.196  0.1570 -0.1017 -0.4839
  465TIP3    H122886   5.977   1.055   4.204 -1.8713  0.0674  0.8994
  465TIP3    H222887   6.051   0.928   4.170  1.9062  1.6964  2.7029
  466TIP3   OH222888   0.431   4.998  12.132  0.1006  0.6726  0.1725
  466TIP3    H122889   0.526   4.997  12.120  0.2329 -0.2681  1.1750
  466TIP3    H222890   0.410   4.911  12.165 -0.8399  1.5061  1.8857
  467TIP3   OH222891   3.332   5.680  12.947  0.3428  0.5504 -0.4386
  467TIP3    H122892   3.303   5.706  13.035  2.1353 -0.8828  0.6181
  467TIP3    H222893   3.346   5.762  12.901  0.2919  1.3425  0.9250
  468TIP3   OH222894   0.374   1.168  16.482 -0.3887  0.1044 -0.0676
  468TIP3    H122895   0.442   1.181  16.548  0.8715  1.0066 -1.5017
  468TIP3    H222896   0.390   1.080  16.447  0.1578  0.3851 -0.5254
  469TIP3   OH222897   3.058   4.715  11.926  0.1197 -0.3029 -0.4571
  469TIP3    H122898   2.998   4.651  11.888 -0.1768 -1.2855  1.5978
  469TIP3    H222899   3.002   4.771  11.980  0.8877 -0.5993  0.6721
  470TIP3   OH222900   2.130   5.295  14.987 -0.2789  0.4648 -0.4036
  470TIP3    H122901   2.183   5.222  15.019 -0.4157  0.4876 -0.1199
  470TIP3    H222902   2.195   5.362  14.964 -0.1349  0.0749 -1.1169
  471TIP3   OH222903   0.240   0.523   4.957  0.5899  0.1073  0.0434
  471TIP3    H122904   0.311   0.542   4.895 -2.1617 -1.7283 -3.8314
  471TIP3    H222905   0.182   0.598   4.950 -0.5659 -0.8572 -0.8998
  472TIP3   OH222906   2.724   4.094   3.928  0.8074  0.0809  0.0212
  472TIP3    H122907   2.798   4.148   3.903  1.1451 -0.8559 -1.0777
  472TIP3    H222908   2.728   4.019   3.868 -0.7993 -0.1663  0.1880
  473TIP3   OH222909   2.066   3.566  17.046 -0.2424  0.5182  0.4636
  473TIP3    H122910   2.117   3.508  17.103 -2.4640 -0.7781  1.2161
  473TIP3    H222911   2.130   3.627  17.010  1.7080 -0.6099  1.9133
  474TIP3   OH222912   2.795   1.888  14.359 -0.7291  0.3375  0.3788
  474TIP3    H122913   2.741   1.928  14.291 -2.0422  1.4072  2.0179
  474TIP3    H222914   2.797   1.952  14.430  2.3794  0.1409  0.5269
  475TIP3   OH222915   3.669   3.502  11.837  0.0041 -0.3296 -0.5200
  475TIP3    H122916   3.670   3.468  11.927 -1.4200 -2.2338 -1.1762
  475TIP3    H222917   3.661   3.596  11.847  0.0264 -0.4979  1.3592
  476TIP3   OH222918   0.348   3.080  15.047  0.4991 -0.1545  0.2181
  476TIP3    H122919   0.300   3.126  14.978  0.2596  0.5421  0.8355
  476TIP3    H222920   0.301   3.103  15.128  1.3905 -0.1262  0.7299
  477TIP3   OH222921   1.326   5.583  13.478  0.6092 -0.1179 -0.2095
  477TIP3    H122922   1.239   5.551  13.455 -0.5854  1.0335  2.5185
  477TIP3    H222923   1.334   5.666  13.431 -0.5320  0.6684  0.9407
  478TIP3   OH222924   4.909   1.177  15.790  0.2105 -0.5977 -0.3048
  478TIP3    H122925   4.979   1.153  15.851 -0.6348 -0.4924  0.7264
  478TIP3    H222926   4.953   1.226  15.720  1.0147  0.3919  0.8772
  479TIP3   OH222927   1.664   3.135   4.783  0.2019 -0.1799 -0.3615
  479TIP3    H122928   1.710   3.133   4.866 -0.9165 -1.0628  0.2493
  479TIP3    H222929   1.572   3.149   4.806 -0.1421 -0.5986 -1.4375
  480TIP3   OH222930   2.817   6.787  11.613  0.6017  0.8978  0.0724
  480TIP3    H122931   2.818   6.770  11.518  0.3923  0.3315  0.1730
  480TIP3    H222932   2.838   6.880  11.620  0.3892  0.9958 -0.5451
  481TIP3   OH222933   0.248   5.507  15.815  0.2538  0.3610  0.1008
  481TIP3    H122934   0.192   5.432  15.830  0.5855 -0.1094 -0.9379
  481TIP3    H222935   0.205   5.557  15.745  0.4209  0.7275  0.2548
  482TIP3   OH222936   0.412   0.735   4.511 -0.4693 -0.3884  0.7475
  482TIP3    H122937   0.331   0.741   4.461  0.7786  0.6508 -1.2351
  482TIP3    H222938   0.465   0.672   4.462  0.6203  0.3445  0.9743
  483TIP3   OH222939   1.992   3.237   0.969 -0.2947 -0.1129  0.3885
  483TIP3    H122940   1.919   3.248   0.907  0.4814  1.7132 -0.2631
  483TIP3    H222941   1.989   3.145   0.994 -2.0992 -0.3355 -0.5369
  484TIP3   OH222942   4.925   6.134   2.645  0.2046  0.2703  0.1495
  484TIP3    H122943   4.968   6.060   2.689 -0.6849 -0.0736  0.4438
  484TIP3    H222944   4.847   6.150   2.698  0.3355  1.3477  0.0179
  485TIP3   OH222945   1.676   2.967  13.482 -0.4265 -0.3715 -0.8194
  485TIP3    H122946   1.673   3.062  13.476  0.6995 -0.2062  0.8388
  485TIP3    H222947   1.612   2.945  13.550  1.2671 -0.5584  0.7452
  486TIP3   OH222948   3.353   1.396   3.838 -0.2012  0.3929 -0.1774
  486TIP3    H122949   3.421   1.436   3.783  0.8575 -0.4488  0.4763
  486TIP3    H222950   3.328   1.465   3.899  0.5894  0.4970  0.0383
  487TIP3   OH222951   1.328   2.876  11.237 -0.0438  0.1342 -0.9818
  487TIP3    H122952   1.391   2.843  11.173  0.0754 -0.8440 -0.3700
  487TIP3    H222953   1.253   2.904  11.185 -0.0442 -0.8845 -1.5238
  488TIP3   OH222954   5.411   6.679  15.184  0.1917  0.5206 -0.6895
  488TIP3    H122955   5.496   6.644  15.209  0.5041  2.4184  0.9829
  488TIP3    H222956   5.348   6.616  15.218  0.8636 -0.0728 -0.5427
  489TIP3   OH222957   4.712   4.198  16.867 -0.0494 -0.5351 -0.7778
  489TIP3    H122958   4.745   4.126  16.813 -1.5515  0.6916 -3.4418
  489TIP3    H222959   4.666   4.255  16.806 -2.5088  0.5504  1.9384
  490TIP3   OH222960   0.788   5.501   0.861 -0.0907 -0.0247 -0.3877
  490TIP3    H122961   0.738   5.536   0.787 -2.0572 -0.8478  0.5282
  490TIP3    H222962   0.724   5.492   0.931  1.8679  1.2697  1.6191
  491TIP3   OH222963   2.891   1.567   1.504  0.0286  0.3474 -0.0654
  491TIP3    H122964   2.885   1.474   1.528 -0.0128  0.1525 -0.8063
  491TIP3    H222965   2.953   1.569   1.432  0.0371  0.9007 -0.0466
  492TIP3   OH222966   4.365   2.905  14.969  0.4404 -1.1240 -0.3520
  492TIP3    H122967   4.303   2.834  14.986 -0.3543 -0.4854 -0.5560
  492TIP3    H222968   4.438   2.889  15.029 -1.1893 -0.2869  1.8855
  493TIP3   OH222969   1.423   0.746   5.889  0.3398  0.2190 -0.3244
  493TIP3    H122970   1.490   0.814   5.881  0.7556 -0.2001 -0.3985
  493TIP3    H222971   1.430   0.695   5.809 -0.5509  0.6023 -0.6582
  494TIP3   OH222972   4.942   5.921  12.973 -0.3928 -0.5066  0.3598
  494TIP3    H122973   4.938   5.855  12.904  0.2208  0.6104 -0.7696
  494TIP3    H222974   4.930   6.005  12.927 -1.7292  0.1480  1.8272
  495TIP3   OH222975   5.970   3.618   4.263 -0.6563 -0.0215 -0.2941
  495TIP3    H122976   5.928   3.552   4.208 -0.1677  0.2033 -0.9437
  495TIP3    H222977   5.998   3.570   4.341 -0.3782 -0.5594 -0.7221
  496TIP3   OH222978   1.022   1.547  15.623  0.3210 -0.0064  0.3397
  496TIP3    H122979   1.071   1.489  15.682 -0.6757 -1.2429 -0.0339
  496TIP3    H222980   0.933   1.547  15.658  0.3025  1.2820  0.3097
  497TIP3   OH222981   4.725   3.111  13.712  0.2914 -0.2582 -0.1240
  497TIP3    H122982   4.645   3.068  13.742  0.1045  0.3450  0.2380
  497TIP3    H222983   4.720   3.106  13.617 -0.6678  0.6705 -0.1334
  498TIP3   OH222984   3.465   5.518   2.852  0.0064 -0.2561 -0.2071
  498TIP3    H122985   3.442   5.525   2.945  3.8695 -2.6098  1.0231
  498TIP3    H222986   3.515   5.597   2.834  0.7293 -0.6206  0.1898
  499TIP3   OH222987   3.543   5.131  16.648  0.2317 -0.3089  0.8017
  499TIP3    H122988   3.562   5.214  16.606  1.2038 -0.6180  0.6247
  499TIP3    H222989   3.552   5.148  16.741 -0.1660 -0.0705  0.7983
  500TIP3   OH222990   6.598   4.749   1.973 -0.2120  0.4462 -0.3103
  500TIP3    H122991   6.531   4.713   2.031 -1.4946  0.9661 -1.4246
  500TIP3    H222992   6.599   4.690   1.898  0.4544  0.5359 -0.3716
  501TIP3   OH222993   5.874   5.128  17.212  0.0697 -0.0416 -0.0857
  501TIP3    H122994   5.931   5.206  17.218 -0.4482  0.3971 -0.7500
  501TIP3    H222995   5.872   5.093  17.300  2.8338 -1.0972 -0.3822
  502TIP3   OH222996   6.314   5.557  14.275  0.0036  0.0111 -0.3875
  502TIP3    H122997   6.389   5.570  14.217  0.6688 -0.7431  0.2991
  502TIP3    H222998   6.350   5.561  14.363 -1.1416  1.9734  0.0192
  503TIP3   OH222999   0.206   2.418   4.902  0.2987  0.2637 -0.1189
  503TIP3    H123000   0.140   2.481   4.874 -0.1291  0.2467  0.8263
  503TIP3    H223001   0.200   2.418   4.998 -0.0527 -1.5583 -0.1188
  504TIP3   OH223002   5.749   4.242   1.988  0.2985  0.3538  0.0656
  504TIP3    H123003   5.656   4.223   1.972 -0.0527  1.2335  0.9969
  504TIP3    H223004   5.750   4.285   2.074  1.8109 -1.6390  1.0826
  505TIP3   OH223005   3.251   3.495  12.502  0.0447 -0.1507  0.1669
  505TIP3    H123006   3.337   3.458  12.479 -0.2622 -0.5076 -0.4254
  505TIP3    H223007   3.231   3.555  12.430 -0.0180  0.2445  0.5112
  506TIP3   OH223008   6.447   5.154  13.714  0.0518 -0.9519  0.0264
  506TIP3    H123009   6.423   5.067  13.747  1.4271 -0.9453  1.0968
  506TIP3    H223010   6.470   5.203  13.793  1.5877 -0.3593 -0.7766
  507TIP3   OH223011   0.363   0.331  12.170 -0.2857 -0.6884 -0.1873
  507TIP3    H123012   0.426   0.263  12.149  0.1132  0.0365 -1.3634
  507TIP3    H223013   0.325   0.303  12.254  3.1387 -0.0301  1.6573
  508TIP3   OH223014   5.840   6.490  14.773 -0.4646 -0.0543 -0.5186
  508TIP3    H123015   5.827   6.414  14.829  0.3419 -0.6997 -1.2025
  508TIP3    H223016   5.787   6.559  14.814 -0.1976 -0.6248  0.8147
  509TIP3   OH223017   0.519   2.114  10.419 -0.7467 -0.0226  0.3676
  509TIP3    H123018   0.560   2.168  10.486  1.0000 -1.4661  0.5082
  509TIP3    H223019   0.565   2.137  10.338 -0.6932 -0.5379  0.2486
  510TIP3   OH223020   1.557   6.487  13.917 -0.3951  0.5722 -0.3454
  510TIP3    H123021   1.549   6.527  14.004 -1.9141  0.7467 -0.5514
  510TIP3    H223022   1.553   6.393  13.933  2.1445  0.4756  0.0336
  511TIP3   OH223023   1.217   4.163   0.276  0.1779  0.4929  0.1637
  511TIP3    H123024   1.206   4.240   0.332 -0.4609 -0.8624  1.9453
  511TIP3    H223025   1.271   4.104   0.328  1.7647  0.2391 -1.7212
  512TIP3   OH223026   2.524   5.143   3.212 -0.0277  0.1942  0.2946
  512TIP3    H123027   2.480   5.227   3.206  0.3901  0.3160 -1.6075
  512TIP3    H223028   2.580   5.150   3.289  1.6809  2.5098 -1.1007
  513TIP3   OH223029   6.788   6.733  11.293  0.0755  0.3287 -0.6745
  513TIP3    H123030   6.758   6.813  11.336 -1.0258  0.7122 -2.1127
  513TIP3    H223031   6.880   6.726  11.317 -0.3438  0.9022  1.1648
  514TIP3   OH223032   2.312   5.277  13.305  0.0769 -0.0628  0.0774
  514TIP3    H123033   2.377   5.216  13.270  0.6004  0.6276 -0.1715
  514TIP3    H223034   2.237   5.268  13.246  0.8389  0.8577 -1.0624
  515TIP3   OH223035   1.067   0.801  13.744 -0.3396  0.4517 -0.2536
  515TIP3    H123036   1.145   0.746  13.735 -0.5098 -0.2119  1.9712
  515TIP3    H223037   1.025   0.770  13.824 -2.1132  1.7839 -0.6350
  516TIP3   OH223038   2.977   0.967  10.777  0.0874 -0.3644 -0.6564
  516TIP3    H123039   2.936   0.880  10.780 -0.5595 -0.0295  1.0605
  516TIP3    H223040   2.924   1.016  10.715  0.7429 -1.3288 -1.9983
  517TIP3   OH223041   6.161   6.208   3.535  0.0436 -0.2388  0.3657
  517TIP3    H123042   6.143   6.301   3.528 -0.5901 -0.3374  0.5865
  517TIP3    H223043   6.255   6.202   3.549  0.1236  0.3544  0.0899
  518TIP3   OH223044   2.318   3.838   0.323  0.1708  0.3775 -0.2484
  518TIP3    H123045   2.277   3.757   0.292 -0.0716  0.3976  0.0241
  518TIP3    H223046   2.247   3.902   0.328  0.4969  0.8156 -1.1742
  519TIP3   OH223047   5.040   6.360  13.375 -0.2228  0.3555  0.1545
  519TIP3    H123048   5.125   6.401  13.387  0.1091 -0.4827  0.7439
  519TIP3    H223049   5.034   6.296  13.446 -0.8916 -0.3382 -0.5115
  520TIP3   OH223050   4.412   3.357   6.288  0.3674 -0.3841 -0.1408
  520TIP3    H123051   4.499   3.390   6.269  0.1102 -0.3627 -1.2904
  520TIP3    H223052   4.407   3.274   6.241 -0.6674  0.1929 -1.0669
  521TIP3   OH223053   6.008   4.586   0.210  0.0468 -0.3370  0.3731
  521TIP3    H123054   5.958   4.507   0.188 -0.8820 -0.1981  1.8958
  521TIP3    H223055   6.097   4.568   0.178 -1.1083 -0.2570 -3.1073
  522TIP3   OH223056   3.216   6.286   5.872 -0.0694 -0.0190  0.1807
  522TIP3    H123057   3.141   6.327   5.915 -1.4137 -1.7246 -0.5133
  522TIP3    H223058   3.222   6.199   5.910  2.7445  0.7229  1.5990
  523TIP3   OH223059   6.660   4.628  13.038 -0.7289  0.3724  0.1503
  523TIP3    H123060   6.687   4.536  13.037 -1.4983  0.1328  0.6489
  523TIP3    H223061   6.566   4.626  13.019 -0.6077  1.1186 -0.5923
  524TIP3   OH223062   6.001   4.330  12.995 -0.3120 -0.3271  0.0911
  524TIP3    H123063   6.013   4.350  12.902  1.3521 -1.1617  0.1096
  524TIP3    H223064   5.937   4.258  12.995 -0.8447  0.1348 -0.3545
  525TIP3   OH223065   5.991   4.816   3.255  0.1212  0.2248  0.6184
  525TIP3    H123066   6.069   4.776   3.217 -0.0844 -1.0790  1.5437
  525TIP3    H223067   6.014   4.831   3.347 -0.2630  1.0442  0.5905
  526TIP3   OH223068   0.640   0.020   2.351  0.1304 -0.7737 -0.0149
  526TIP3    H123069   0.686   0.089   2.303  1.5910 -1.9334 -0.3255
  526TIP3    H223070   0.679   0.021   2.438 -0.2799 -0.7949  0.1716
  527TIP3   OH223071   2.226   2.689  16.740 -0.3622  0.3198  0.0081
  527TIP3    H123072   2.310   2.728  16.718  0.5380 -0.7781  1.4430
  527TIP3    H223073   2.187   2.748  16.803  0.2293 -0.1960  0.8620
  528TIP3   OH223074   6.540   1.611   4.935  0.3239 -0.0021 -0.2474
  528TIP3    H123075   6.457   1.598   4.981  0.1927 -1.6157 -0.8892
  528TIP3    H223076   6.518   1.602   4.843  1.0591  0.5167 -0.4803
  529TIP3   OH223077   4.652   2.128   4.767  0.7731 -0.2857  0.1792
  529TIP3    H123078   4.711   2.068   4.814 -0.8927 -2.1009  0.0379
  529TIP3    H223079   4.589   2.156   4.834  1.1762  0.8365  0.0948
  530TIP3   OH223080   6.132   5.134   6.328  0.2833  0.2990  0.0682
  530TIP3    H123081   6.090   5.214   6.298  0.7557  0.9886  1.2334
  530TIP3    H223082   6.086   5.110   6.408 -0.4608 -1.1155 -0.7509
  531TIP3   OH223083   3.395   1.820  12.294  0.4555 -0.6216  0.2012
  531TIP3    H123084   3.414   1.751  12.358 -1.6113  0.6480  2.2571
  531TIP3    H223085   3.399   1.901  12.345 -0.8135  0.4554 -1.3750
  532TIP3   OH223086   4.551   1.403   1.033 -0.0684 -0.0580  0.0699
  532TIP3    H123087   4.484   1.345   1.070  2.3752 -2.4548  0.8817
  532TIP3    H223088   4.633   1.369   1.067  1.4757  3.9581  0.5748
  533TIP3   OH223089   5.387   1.707  13.133 -0.3154 -0.2979  0.1027
  533TIP3    H123090   5.325   1.634  13.145 -1.0386  0.2563 -0.2594
  533TIP3    H223091   5.332   1.784  13.121  0.4374 -0.0098 -1.5630
  534TIP3   OH223092   5.849   5.718   0.319 -0.5068  0.6579  0.6007
  534TIP3    H123093   5.808   5.785   0.265 -2.4341  0.4783  1.7908
  534TIP3    H223094   5.847   5.754   0.408  1.1608  0.2694  0.8193
  535TIP3   OH223095   0.544   1.069   5.931 -0.5029 -0.1057  0.4406
  535TIP3    H123096   0.502   0.992   5.970 -0.1166 -0.0158  1.0382
  535TIP3    H223097   0.631   1.071   5.970  0.0578 -0.2718 -0.7712
  536TIP3   OH223098   3.188   2.073  10.948  0.3882 -0.1606 -0.0536
  536TIP3    H123099   3.172   2.150  10.893  1.6077 -0.0565 -0.2679
  536TIP3    H223100   3.120   2.077  11.015 -2.0961 -1.1187 -2.4089
  537TIP3   OH223101   1.771   1.504  14.043  0.1242  0.1624  0.3693
  537TIP3    H123102   1.840   1.507  13.976 -0.8018 -0.3179 -0.6160
  537TIP3    H223103   1.797   1.570  14.107  1.0323  0.6218 -0.4558
  538TIP3   OH223104   2.308   0.541  13.731 -0.4093 -0.4504 -0.3469
  538TIP3    H123105   2.235   0.485  13.756 -1.0040  0.3233 -0.3156
  538TIP3    H223106   2.373   0.528  13.799 -2.2026  2.0046  1.9715
  539TIP3   OH223107   0.962   6.210  15.227  0.0757  0.0549 -0.2317
  539TIP3    H123108   0.875   6.246  15.211 -0.3846 -0.9201  0.0227
  539TIP3    H223109   0.973   6.216  15.322  0.1136 -0.2084 -0.2190
  540TIP3   OH223110   2.665   0.327  11.735  0.2688  0.0481 -0.0390
  540TIP3    H123111   2.645   0.419  11.724 -0.8021 -0.4308 -2.2194
  540TIP3    H223112   2.754   0.317  11.700  0.2400  0.1784 -0.1458
  541TIP3   OH223113   1.428   1.976   3.918 -0.5180  0.4824  0.2317
  541TIP3    H123114   1.374   1.948   3.844  0.2689 -1.3539  0.3197
  541TIP3    H223115   1.384   2.052   3.953 -1.4089  0.8237 -1.5740
  542TIP3   OH223116   2.408   2.610  12.628  0.2547  0.0155 -0.0078
  542TIP3    H123117   2.500   2.591  12.607  0.1877 -0.4926  0.1423
  542TIP3    H223118   2.410   2.636  12.720  0.4740  1.6945 -0.4659
  543TIP3   OH223119   1.015   4.417   6.279 -0.0995  0.0489 -0.9349
  543TIP3    H123120   1.023   4.372   6.363  1.2417 -0.8531 -1.5127
  543TIP3    H223121   0.931   4.461   6.283 -0.5435 -0.8802  0.4593
  544TIP3   OH223122   3.772   5.234  15.442 -0.6121  0.1742  0.2988
  544TIP3    H123123   3.816   5.150  15.433 -0.0524  0.4568  0.3855
  544TIP3    H223124   3.725   5.228  15.525 -0.3686  0.0365  0.4297
  545TIP3   OH223125   0.899   5.162   1.254 -0.0134 -0.2156 -0.1730
  545TIP3    H123126   0.953   5.197   1.325  0.7907  0.0780 -0.9247
  545TIP3    H223127   0.877   5.239   1.201  1.8679 -0.8384 -1.9092
  546TIP3   OH223128   5.047   6.255   5.517 -0.0763 -0.2858 -0.0293
  546TIP3    H123129   5.023   6.348   5.520  0.6142 -0.1297  0.6208
  546TIP3    H223130   5.026   6.229   5.427 -0.1060  0.5412 -0.2712
  547TIP3   OH223131   2.015   3.894   3.808 -0.0968 -0.9216  0.1106
  547TIP3    H123132   2.022   3.925   3.718  2.3010 -0.4394  0.4452
  547TIP3    H223133   2.105   3.890   3.840 -0.9141 -1.0785  2.5032
  548TIP3   OH223134   2.062   0.277  11.631 -0.5476 -0.2204 -0.5375
  548TIP3    H123135   2.082   0.202  11.574  0.6357  0.4320 -0.9786
  548TIP3    H223136   2.067   0.241  11.719  0.3747 -0.5923 -0.7337
  549TIP3   OH223137   4.986   6.795  15.253  0.1771 -0.0492  0.2361
  549TIP3    H123138   4.907   6.831  15.293  0.2052  2.2500 -1.6631
  549TIP3    H223139   5.051   6.866  15.259  0.6275 -0.1696 -2.4457
  550TIP3   OH223140   1.354   1.117   4.801 -0.2541 -0.2239  0.2895
  550TIP3    H123141   1.442   1.156   4.809  0.6288 -2.3971  1.4892
  550TIP3    H223142   1.329   1.095   4.890 -1.1934 -1.4339 -0.2603
  551TIP3   OH223143   2.523   2.570  14.114 -0.1881  0.3273 -1.1035
  551TIP3    H123144   2.597   2.610  14.069 -0.2629  0.2142 -1.3236
  551TIP3    H223145   2.494   2.499  14.057 -1.3368  1.2388 -1.6731
  552TIP3   OH223146   0.815   4.930   5.082 -0.0801 -0.2234 -0.8596
  552TIP3    H123147   0.796   4.836   5.077 -0.4370 -0.2596  0.7486
  552TIP3    H223148   0.761   4.969   5.013  0.2160 -1.2154 -1.6677
  553TIP3   OH223149   0.990   6.271  14.242  0.7034 -0.1154  0.3012
  553TIP3    H123150   1.082   6.248  14.228  0.6256  0.2710 -0.9326
  553TIP3    H223151   0.942   6.215  14.180  0.3186  1.5261 -0.9208
  554TIP3   OH223152   2.938   1.141  16.519  0.5344  0.7076  0.0981
  554TIP3    H123153   2.961   1.231  16.498  0.2126  0.9646  0.8361
  554TIP3    H223154   2.863   1.148  16.578  0.8220 -0.0328  0.5615
  555TIP3   OH223155   0.427   1.301   6.024 -0.3252 -0.2897 -0.2436
  555TIP3    H123156   0.478   1.246   5.965  0.5112 -0.1728  0.3487
  555TIP3    H223157   0.383   1.239   6.083  0.6831 -0.3419  0.4785
  556TIP3   OH223158   3.017   4.041   1.042 -0.5908 -0.1708 -0.4310
  556TIP3    H123159   3.040   3.983   0.969 -4.6576 -1.2534 -0.9788
  556TIP3    H223160   2.988   4.122   1.000  0.8895  0.6828  0.1703
  557TIP3   OH223161   1.176   4.531  12.552 -0.0736 -0.1615  0.2052
  557TIP3    H123162   1.241   4.569  12.493 -0.1300 -0.4648 -0.0549
  557TIP3    H223163   1.107   4.596  12.557  0.0353 -0.0391  0.1130
  558TIP3   OH223164   2.173   1.361  12.024  0.4388 -0.3835 -0.1524
  558TIP3    H123165   2.084   1.385  12.049  0.4130  0.6766 -1.1858
  558TIP3    H223166   2.173   1.266  12.023 -0.7386 -0.3919 -0.2921
  559TIP3   OH223167   3.333   1.286  16.200 -0.2256 -0.1226 -0.2158
  559TIP3    H123168   3.357   1.377  16.215  0.7372 -0.5376  0.8489
  559TIP3    H223169   3.416   1.241  16.184 -0.2253 -1.4840  3.0749
  560TIP3   OH223170   6.092   1.558   1.024  0.1713 -0.0221 -0.3645
  560TIP3    H123171   6.048   1.576   1.107  1.6615  0.1145  0.4032
  560TIP3    H223172   6.086   1.641   0.976  1.3515  0.6018  0.5546
  561TIP3   OH223173   0.456   3.732  13.714  0.3261 -0.0787 -0.4311
  561TIP3    H123174   0.381   3.682  13.679  0.1576 -1.1670  1.4527
  561TIP3    H223175   0.532   3.678  13.694  0.4241  0.1873 -0.7751
  562TIP3   OH223176   6.611   3.301   5.364 -0.2719 -0.2841  0.0903
  562TIP3    H123177   6.621   3.206   5.364  1.2426 -0.1481 -1.7483
  562TIP3    H223178   6.680   3.333   5.306 -0.5690  1.9681  0.9089
  563TIP3   OH223179   1.299   4.239  13.930 -0.0805 -0.5573 -0.1325
  563TIP3    H123180   1.385   4.199  13.915  0.6480  1.3069 -1.0066
  563TIP3    H223181   1.252   4.174  13.983  2.1344 -1.2489  1.0598
  564TIP3   OH223182   0.542   2.921  13.624 -0.1410  0.1404 -0.5249
  564TIP3    H123183   0.538   2.994  13.686 -2.6817 -0.1913 -0.2173
  564TIP3    H223184   0.510   2.845  13.674 -1.2905 -0.3387 -1.9490
  565TIP3   OH223185   4.258   6.268  15.126  0.5696  0.9599 -0.6187
  565TIP3    H123186   4.311   6.225  15.193 -1.8380  0.3146  0.9395
  565TIP3    H223187   4.235   6.197  15.065 -0.3306  0.7746 -0.0720
  566TIP3   OH223188   2.978   3.965  14.266  0.0218 -0.3981  0.4220
  566TIP3    H123189   2.955   3.905  14.196 -1.7426  1.6722 -0.8331
  566TIP3    H223190   2.921   4.041  14.253  1.9131  1.4000  2.1670
  567TIP3   OH223191   1.193   6.019  17.132 -0.2521  0.0432  0.4357
  567TIP3    H123192   1.227   6.029  17.221  0.8198 -2.5689  0.3570
  567TIP3    H223193   1.268   6.035  17.075 -0.3871 -0.5675  0.0800
  568TIP3   OH223194   1.144   5.452   1.157 -0.2865 -0.1089 -0.7895
  568TIP3    H123195   1.049   5.438   1.155 -0.0861 -1.7963  0.1874
  568TIP3    H223196   1.154   5.541   1.190 -1.4936 -1.3764  3.3777
  569TIP3   OH223197   1.781   1.034  16.832 -0.3757 -0.4867  0.2918
  569TIP3    H123198   1.782   1.091  16.755  1.1341  0.4995  1.0276
  569TIP3    H223199   1.808   0.948  16.799 -0.4661 -0.2460 -0.4121
  570TIP3   OH223200   3.717   5.522  10.628 -0.0117  0.3484 -0.2354
  570TIP3    H123201   3.647   5.501  10.689 -0.8355  2.6854 -0.3161
  570TIP3    H223202   3.786   5.561  10.683 -0.0092  0.7745 -0.5302
  571TIP3   OH223203   5.847   2.555   1.693 -0.5474  0.1486  0.4978
  571TIP3    H123204   5.867   2.533   1.784  0.1043  0.8316  0.5223
  571TIP3    H223205   5.926   2.598   1.660 -0.2508 -1.3674 -0.8229
  572TIP3   OH223206   0.264   1.796   4.603 -0.0969  0.0567 -0.0802
  572TIP3    H123207   0.215   1.734   4.658  1.9716  0.3748  2.2029
  572TIP3    H223208   0.311   1.851   4.666  0.0557  2.3376 -2.1354
  573TIP3   OH223209   2.131   3.432  14.145 -0.4759 -0.6337  0.4317
  573TIP3    H123210   2.067   3.486  14.098 -1.3134 -1.6678  0.3883
  573TIP3    H223211   2.086   3.406  14.225  0.8339  0.8557  1.6975
  574TIP3   OH223212   3.352   0.057  11.588 -0.5449 -0.0257 -0.2900
  574TIP3    H123213   3.359  -0.003  11.514 -0.8604 -0.0252 -0.3177
  574TIP3    H223214   3.438   0.099  11.592 -1.3243  1.8504 -2.2470
  575TIP3   OH223215   3.534   4.831   2.260  0.1707  0.1728  0.6740
  575TIP3    H123216   3.450   4.786   2.264 -0.0876  0.5915  0.0650
  575TIP3    H223217   3.553   4.838   2.166  0.7773  0.2681  0.8037
  576TIP3   OH223218   5.135   2.033   6.660 -0.0253 -0.2872  0.4791
  576TIP3    H123219   5.146   2.126   6.638 -0.5945  0.0422  1.5219
  576TIP3    H223220   5.042   2.015   6.643 -0.1526 -0.3888  1.2436
  577TIP3   OH223221   0.245   5.787  15.937  0.4133  0.1335 -0.1530
  577TIP3    H123222   0.237   5.694  15.915  0.6446 -0.3101  1.6194
  577TIP3    H223223   0.264   5.830  15.853 -0.2476 -1.3400 -1.0688
  578TIP3   OH223224   1.934   2.343   3.688  0.5865 -0.5260  0.0809
  578TIP3    H123225   2.029   2.334   3.680  0.7768  1.1315  0.2902
  578TIP3    H223226   1.904   2.367   3.600  0.5923  0.8049  0.4391
  579TIP3   OH223227   4.098   2.020  11.611 -0.3795 -0.2765  0.1048
  579TIP3    H123228   4.060   2.101  11.645  0.7120  0.0900  0.4838
  579TIP3    H223229   4.189   2.043  11.591 -0.3861 -1.0894 -0.9328
  580TIP3   OH223230   4.289   5.337  15.254 -0.0232  0.2559  0.3396
  580TIP3    H123231   4.368   5.287  15.271 -1.1575 -1.8829 -0.5283
  580TIP3    H223232   4.245   5.342  15.339  1.3027  1.9917  0.9608
  581TIP3   OH223233   1.414   6.193   0.798 -0.3930  0.3407  0.1855
  581TIP3    H123234   1.436   6.131   0.867 -2.8282  0.3112  0.9766
  581TIP3    H223235   1.478   6.264   0.808  1.5837 -1.3875  0.0837
  582TIP3   OH223236   1.357   0.917   1.376  0.4474  0.1155  0.0290
  582TIP3    H123237   1.397   0.884   1.295 -0.1040  0.9980 -0.6061
  582TIP3    H223238   1.404   0.871   1.445  2.4713  0.9868 -0.7118
  583TIP3   OH223239   5.580   5.404  14.825 -0.6322  0.2272 -0.0954
  583TIP3    H123240   5.621   5.474  14.774 -0.6363 -0.5977 -1.2421
  583TIP3    H223241   5.615   5.323  14.789 -1.8159 -0.4240  0.1685
  584TIP3   OH223242   0.417   6.202   1.005 -0.1673  0.0385  0.2450
  584TIP3    H123243   0.347   6.190   0.941 -0.3294  2.2933 -0.0357
  584TIP3    H223244   0.494   6.164   0.963 -0.4710  0.6649 -0.8935
  585TIP3   OH223245   5.395   6.733   4.750 -0.3629 -0.2725  0.0312
  585TIP3    H123246   5.346   6.772   4.677 -1.6643  1.7548  1.9258
  585TIP3    H223247   5.356   6.646   4.761 -3.3983  1.1396  1.2464
  586TIP3   OH223248   2.695   5.840  15.644  0.3662 -0.0027 -0.3255
  586TIP3    H123249   2.643   5.762  15.627  0.8232 -0.4391  0.2786
  586TIP3    H223250   2.639   5.913  15.617  0.0063 -0.5441 -1.0515
  587TIP3   OH223251   2.054   2.089   5.302  0.0097 -0.5384 -0.0418
  587TIP3    H123252   2.077   2.023   5.368 -0.2373  0.1061  0.6947
  587TIP3    H223253   2.139   2.126   5.275  0.1251 -0.9415 -0.2296
  588TIP3   OH223254   0.229   6.071   3.941  0.1844  0.2065 -0.2910
  588TIP3    H123255   0.316   6.070   3.901  0.3765 -0.0884  0.1333
  588TIP3    H223256   0.244   6.049   4.033 -0.2618  0.8943 -0.0543
  589TIP3   OH223257   3.845   4.167   4.379  0.7855  0.6124  0.4228
  589TIP3    H123258   3.781   4.136   4.443 -1.0600  1.7914 -0.8324
  589TIP3    H223259   3.892   4.088   4.352 -2.7483 -0.8827 -1.5393
  590TIP3   OH223260   6.158   4.336   2.696 -0.4278 -0.8381 -0.1856
  590TIP3    H123261   6.119   4.417   2.661 -1.7111 -1.0589  0.6915
  590TIP3    H223262   6.170   4.280   2.620  0.7346  0.2743 -0.8494
  591TIP3   OH223263   4.543   6.694   6.173  0.0603  0.3271 -0.0671
  591TIP3    H123264   4.544   6.790   6.165 -0.4861  0.3071 -0.4361
  591TIP3    H223265   4.572   6.663   6.088 -2.4912  0.1466 -0.9190
  592TIP3   OH223266   6.745   4.152  12.898  0.3690 -0.3679 -0.1866
  592TIP3    H123267   6.662   4.197  12.886 -0.2601 -1.3131  0.5169
  592TIP3    H223268   6.725   4.082  12.961  1.9196  0.0373  0.7877
  593TIP3   OH223269   4.888   2.554   4.317 -0.5438 -0.1482  0.2316
  593TIP3    H123270   4.912   2.475   4.364  1.9038  0.9621  0.9074
  593TIP3    H223271   4.923   2.542   4.228 -0.1886  0.1622  0.3273
  594TIP3   OH223272   2.233   1.381  10.111 -0.1652 -0.3959  0.4375
  594TIP3    H123273   2.259   1.385  10.203  0.8802  1.2963  0.0870
  594TIP3    H223274   2.268   1.297  10.080  0.8510 -0.2490  1.1729
  595TIP3   OH223275   6.781   0.626   4.752 -0.3665 -0.1575  0.3677
  595TIP3    H123276   6.703   0.571   4.745 -0.2411 -0.3300  0.3194
  595TIP3    H223277   6.849   0.575   4.707 -0.5160  0.5215 -0.6406
  596TIP3   OH223278   0.597   1.464   1.547 -0.1913  0.5782 -0.2950
  596TIP3    H123279   0.674   1.477   1.602 -0.2384  2.0717 -0.5827
  596TIP3    H223280   0.569   1.374   1.567 -0.1894  1.0758  2.0974
  597TIP3   OH223281   1.709   1.415   1.539  0.0877 -0.9963 -0.3855
  597TIP3    H123282   1.727   1.506   1.515  2.6861 -1.6388 -1.0808
  597TIP3    H223283   1.634   1.390   1.485  0.5149  0.1816 -1.5650
  598TIP3   OH223284   2.925   5.912  10.677  0.0483 -0.4451  0.0841
  598TIP3    H123285   2.905   5.848  10.609 -0.0237  0.1872 -0.4902
  598TIP3    H223286   2.950   5.859  10.753 -0.3322 -1.1621 -0.2862
  599TIP3   OH223287   6.740   4.007  16.371  0.0774  0.0606 -0.0569
  599TIP3    H123288   6.755   4.014  16.277 -1.1737  0.4542 -0.2385
  599TIP3    H223289   6.824   4.030  16.411  0.5166  0.2273 -1.0622
  600TIP3   OH223290   0.218   3.764   1.690 -0.3788 -0.3958  0.0206
  600TIP3    H123291   0.285   3.779   1.623 -0.0628 -1.1043  0.1705
  600TIP3    H223292   0.138   3.744   1.639  0.1243 -2.0595 -0.1640
  601TIP3   OH223293   1.569   0.335   0.933 -0.1730 -0.5695  0.6177
  601TIP3    H123294   1.549   0.334   1.026 -0.8844  0.5837  0.4908
  601TIP3    H223295   1.528   0.415   0.900  1.2084 -0.2547 -0.4214
  602TIP3   OH223296   2.185   4.794   1.551 -0.3746  0.0022 -0.2172
  602TIP3    H123297   2.123   4.781   1.480 -0.2020  1.2434 -0.6000
  602TIP3    H223298   2.268   4.761   1.516 -0.3302  0.4399 -0.5363
  603TIP3   OH223299   2.402   5.737   3.687 -0.0996 -0.2631  0.2634
  603TIP3    H123300   2.315   5.777   3.683  0.0160 -0.1623 -1.7112
  603TIP3    H223301   2.453   5.796   3.743 -0.4168  1.4368 -1.1851
  604TIP3   OH223302   3.335   6.641   5.034  0.0748 -0.1361 -0.1910
  604TIP3    H123303   3.294   6.627   5.119  1.6577  0.0303  0.6166
  604TIP3    H223304   3.406   6.576   5.030 -0.7265 -0.9374 -1.8817
  605TIP3   OH223305   0.149   4.089   4.112  0.0431 -0.4884  0.0079
  605TIP3    H123306   0.136   4.151   4.041  0.1192 -0.0158  0.4100
  605TIP3    H223307   0.089   4.017   4.091 -1.0562  0.3448  0.2796
  606TIP3   OH223308   6.692   4.462   4.425 -0.2695 -0.0919 -0.3776
  606TIP3    H123309   6.656   4.426   4.343 -0.3419 -0.1447 -0.3228
  606TIP3    H223310   6.632   4.533   4.448 -2.1120 -2.1546  1.3652
  607TIP3   OH223311   5.130   6.451   5.219 -0.2673 -0.1475  0.1462
  607TIP3    H123312   5.121   6.468   5.312 -1.6279  0.9197 -0.1519
  607TIP3    H223313   5.105   6.359   5.208  1.4580 -0.7317  1.0283
  608TIP3   OH223314   4.217   3.182  10.906  0.0175 -0.3722  0.3238
  608TIP3    H123315   4.269   3.156  10.830 -0.7642  0.5117 -0.5227
  608TIP3    H223316   4.275   3.166  10.981  0.9676 -0.7991 -0.4882
  609TIP3   OH223317   2.578   4.374  11.048  0.0583 -0.0994  0.2201
  609TIP3    H123318   2.663   4.396  11.009 -0.2350 -0.2693 -0.5236
  609TIP3    H223319   2.536   4.319  10.983 -1.2996  1.3126 -0.1110
  610TIP3   OH223320   5.624   4.765  13.843  0.2548 -0.3350 -0.2099
  610TIP3    H123321   5.571   4.745  13.920  1.2820 -1.2511  0.2794
  610TIP3    H223322   5.568   4.819  13.788 -0.9767 -0.8398  0.5414
  611TIP3   OH223323   0.486   6.315   2.153 -0.2960 -0.1522 -0.1183
  611TIP3    H123324   0.496   6.349   2.242  2.1488 -2.0715  0.4044
  611TIP3    H223325   0.473   6.392   2.098  1.6725  1.3166  1.4527
  612TIP3   OH223326   0.097   5.082   5.910 -0.1806 -0.3136 -0.4117
  612TIP3    H123327   0.180   5.122   5.887 -0.2475 -0.0836 -0.2521
  612TIP3    H223328   0.077   5.023   5.837  0.9818 -1.6839  0.3554
  613TIP3   OH223329   2.649   6.773  12.223 -0.4656 -0.7920  0.5147
  613TIP3    H123330   2.590   6.766  12.298 -0.8684  0.1851  0.2931
  613TIP3    H223331   2.590   6.781  12.147 -0.0581 -0.2972  0.2452
  614TIP3   OH223332   5.565   1.275   5.427  0.4131 -0.4859  0.2842
  614TIP3    H123333   5.612   1.203   5.384  0.1596 -0.6375  0.2608
  614TIP3    H223334   5.611   1.354   5.398 -0.9234 -0.4428 -1.7849
  615TIP3   OH223335   6.308   1.529  16.401  0.1323 -0.3380 -0.5952
  615TIP3    H123336   6.347   1.580  16.330  1.7090 -0.6769  0.0165
  615TIP3    H223337   6.374   1.528  16.470 -1.4682  0.1711  0.9856
  616TIP3   OH223338   6.348   1.418  15.122  0.0970 -0.2021 -0.4183
  616TIP3    H123339   6.273   1.359  15.129 -0.8153  0.5694 -3.2677
  616TIP3    H223340   6.326   1.493  15.177 -0.1968 -1.0100  0.5681
  617TIP3   OH223341   6.395   3.692   4.186  0.7223  0.2468 -0.4393
  617TIP3    H123342   6.378   3.611   4.138  1.1934 -0.6685  0.9066
  617TIP3    H223343   6.490   3.705   4.177  0.9047 -0.2264  0.6668
  618TIP3   OH223344   1.905   0.062   2.894  0.4222  0.3371 -0.4513
  618TIP3    H123345   1.978   0.111   2.933  0.0512 -0.0805  0.7698
  618TIP3    H223346   1.932  -0.030   2.900 -0.1456  0.1903 -0.1315
  619TIP3   OH223347   4.644   1.823  11.207 -0.3375  0.4358 -0.2879
  619TIP3    H123348   4.672   1.810  11.298 -3.8369 -0.0235  0.7963
  619TIP3    H223349   4.551   1.845  11.214 -1.0056 -1.0390 -3.8435
  620TIP3   OH223350   6.394   4.767   0.244 -0.1658  0.6118  0.1260
  620TIP3    H123351   6.342   4.799   0.318 -0.4146  1.4828 -0.4197
  620TIP3    H223352   6.411   4.845   0.191 -0.4698 -0.1022 -1.0403
  621TIP3   OH223353   3.644   3.913  11.022  0.3051 -0.1564 -0.0139
  621TIP3    H123354   3.714   3.854  11.051  1.3385  0.8561 -0.3813
  621TIP3    H223355   3.595   3.862  10.957 -0.0783 -1.3139  1.1751
  622TIP3   OH223356   0.420   2.415  14.945  0.0922  0.1560  0.7830
  622TIP3    H123357   0.469   2.359  14.885  1.7541  1.1331  1.1849
  622TIP3    H223358   0.328   2.397  14.925  0.6090 -1.1146 -0.5619
  623TIP3   OH223359   2.381   3.553  13.877 -0.4047  0.4294 -0.6512
  623TIP3    H123360   2.288   3.548  13.898 -0.9112  1.9781 -2.4038
  623TIP3    H223361   2.396   3.480  13.817  0.0320 -1.1755  1.3520
  624TIP3   OH223362   5.484   2.462  15.031 -0.0466  0.1602  0.3613
  624TIP3    H123363   5.434   2.460  15.112  1.9932 -1.1839  1.6093
  624TIP3    H223364   5.539   2.540  15.038 -0.2444  0.3324  0.0293
  625TIP3   OH223365   1.053   1.806   3.607 -0.1535 -0.8984  0.3968
  625TIP3    H123366   1.052   1.714   3.580  0.6759 -1.0586  0.9080
  625TIP3    H223367   0.994   1.810   3.682  0.5168 -1.1872  0.9392
  626TIP3   OH223368   5.843   2.401   2.053 -0.2790 -0.6817  0.3225
  626TIP3    H123369   5.817   2.493   2.048  1.1718 -0.3840 -2.2919
  626TIP3    H223370   5.795   2.359   1.982 -0.5928 -1.8817  1.2347
  627TIP3   OH223371   6.765   5.924   2.478  0.1304 -0.5173  0.3399
  627TIP3    H123372   6.776   5.832   2.450  3.0422 -0.1170  0.0135
  627TIP3    H223373   6.761   5.973   2.395 -0.1637 -0.2225  0.5295
  628TIP3   OH223374   1.154   4.500   2.181 -0.2590  0.0633  0.4360
  628TIP3    H123375   1.203   4.499   2.099  0.4238  1.4642  0.8088
  628TIP3    H223376   1.221   4.507   2.249 -0.8877  0.1755  1.0534
  629TIP3   OH223377   1.744   5.147   0.475 -0.2306 -0.3184  0.0522
  629TIP3    H123378   1.760   5.055   0.497  0.3172 -0.3453 -0.4589
  629TIP3    H223379   1.725   5.146   0.381  2.3342  0.4044 -0.5064
  630TIP3   OH223380   0.881   4.021  12.656  0.2448  0.6947  0.2303
  630TIP3    H123381   0.957   4.003  12.712 -1.2437  1.8178  2.6872
  630TIP3    H223382   0.915   4.082  12.590  1.7404  0.3185  0.6208
  631TIP3   OH223383   6.542   5.714   0.530 -0.1317  0.2377  0.4266
  631TIP3    H123384   6.496   5.717   0.615  0.7713 -2.1841  1.0420
  631TIP3    H223385   6.628   5.678   0.551 -0.3667 -1.6390 -1.7074
  632TIP3   OH223386   1.388   4.007  12.746  0.0831 -0.2728 -0.1837
  632TIP3    H123387   1.449   4.081  12.739  0.5419 -0.7687 -1.7019
  632TIP3    H223388   1.430   3.937  12.697 -0.6458 -1.3570  0.7298
  633TIP3   OH223389   4.345   3.651  11.905  0.3139 -0.1375 -0.5348
  633TIP3    H123390   4.349   3.556  11.916 -0.5817 -0.1193 -0.0573
  633TIP3    H223391   4.286   3.664  11.831 -0.5786  0.1053  0.2254
  634TIP3   OH223392   4.345   4.865   1.442 -0.1205  0.6005  0.3751
  634TIP3    H123393   4.269   4.814   1.469  0.6233 -0.4536  0.5099
  634TIP3    H223394   4.308   4.943   1.402 -1.2856 -0.4622 -0.6665
  635TIP3   OH223395   3.776   3.726  13.724  0.7952  0.2914 -0.0121
  635TIP3    H123396   3.701   3.716  13.665  2.1880  1.3942 -2.0347
  635TIP3    H223397   3.753   3.800  13.780 -0.7997 -1.1471  1.2690
  636TIP3   OH223398   6.240   6.069  11.016 -0.3253  0.3223  0.4021
  636TIP3    H123399   6.225   5.989  11.066  1.7328 -1.2261 -1.3734
  636TIP3    H223400   6.191   6.136  11.064  0.2060 -1.4039  3.5344
  637TIP3   OH223401   6.735   6.572  16.156  0.2873  0.5183  0.5405
  637TIP3    H123402   6.750   6.568  16.251  0.8130  2.2812  0.5617
  637TIP3    H223403   6.743   6.665  16.135 -0.5296  0.2279 -1.1335
  638TIP3   OH223404   5.742   0.913  17.145  0.1172 -0.0023 -0.3609
  638TIP3    H123405   5.762   1.006  17.136 -1.0058  0.0548 -2.6063
  638TIP3    H223406   5.820   0.875  17.185  1.0385  1.7094 -0.4972
  639TIP3   OH223407   5.520   3.720  12.760  0.1001 -0.1998  0.4303
  639TIP3    H123408   5.498   3.690  12.672  0.6552  1.6952 -0.3717
  639TIP3    H223409   5.436   3.718  12.807 -0.6075  0.7861 -0.7540
  640TIP3   OH223410   5.450   6.614  14.531  0.3207 -0.0726  0.1358
  640TIP3    H123411   5.386   6.652  14.591  2.5108  1.7200  1.4305
  640TIP3    H223412   5.450   6.521  14.551 -1.4868 -0.0208  0.4634
  641TIP3   OH223413   4.081   5.402  13.569 -0.3087 -0.2357  0.1967
  641TIP3    H123414   4.019   5.341  13.608 -1.9702 -0.3073 -2.4719
  641TIP3    H223415   4.063   5.486  13.611 -2.0229 -0.3219 -0.3601
  642TIP3   OH223416   1.021   4.645   0.788 -0.5876 -0.0105 -0.2467
  642TIP3    H123417   0.948   4.607   0.739 -0.4124 -0.9839  0.2391
  642TIP3    H223418   1.051   4.574   0.845 -0.9178  1.1583  1.4105
  643TIP3   OH223419   0.898   4.588  15.058 -0.3289 -0.1521  0.0081
  643TIP3    H123420   0.868   4.638  14.982  0.0215  0.8905  0.5308
  643TIP3    H223421   0.993   4.595  15.055 -0.2783 -0.7880  0.0941
  644TIP3   OH223422   2.628   0.639  10.809  0.0737 -0.1485  0.4882
  644TIP3    H123423   2.654   0.635  10.716  0.5661 -0.4753  0.6335
  644TIP3    H223424   2.606   0.730  10.824  1.9363  0.3160  0.5577
  645TIP3   OH223425   1.789   6.604   1.204 -0.2855 -0.2030  0.8134
  645TIP3    H123426   1.880   6.575   1.207 -0.3109 -0.4859 -0.8105
  645TIP3    H223427   1.794   6.699   1.192 -0.2107 -0.2780  0.2656
  646TIP3   OH223428   3.467   3.421   0.331  0.2969 -0.8452  0.5059
  646TIP3    H123429   3.525   3.358   0.287  1.7672  3.0685 -3.5206
  646TIP3    H223430   3.518   3.453   0.405  1.8225 -0.2671 -0.7674
  647TIP3   OH223431   3.547   6.390   0.617  0.4954  0.1015  0.1502
  647TIP3    H123432   3.602   6.332   0.564  0.9852  0.6694  0.0289
  647TIP3    H223433   3.562   6.362   0.707  0.7153  0.0303  0.0915
  648TIP3   OH223434   0.132   1.387  14.904  0.0335  0.2431  0.0895
  648TIP3    H123435   0.158   1.295  14.901  2.0290  0.7236  1.7840
  648TIP3    H223436   0.119   1.405  14.997 -0.2691  1.7098 -0.2253
  649TIP3   OH223437   6.113   2.547   4.793 -0.0860  0.3763  0.1444
  649TIP3    H123438   6.098   2.642   4.796 -0.4762  0.4459 -2.3772
  649TIP3    H223439   6.077   2.521   4.708  3.7872 -1.3466 -1.0687
  650TIP3   OH223440   4.704   3.995   1.856 -0.0038 -0.1048 -0.1371
  650TIP3    H123441   4.747   3.983   1.941 -2.0781  1.0674  1.0998
  650TIP3    H223442   4.620   4.034   1.876 -1.1416 -1.1465 -2.6459
  651TIP3   OH223443   0.965   3.865  11.664 -0.1469  0.4933 -0.1975
  651TIP3    H123444   0.990   3.773  11.659  0.1733  0.5632  0.0575
  651TIP3    H223445   1.026   3.910  11.606  0.2451  0.6470  0.3234
  652TIP3   OH223446   4.773   3.781   3.766 -0.2606  0.2759 -0.0745
  652TIP3    H123447   4.718   3.706   3.743  0.3596  0.0683 -0.9402
  652TIP3    H223448   4.856   3.742   3.793 -0.0559  0.6338 -0.1828
  653TIP3   OH223449   5.699   4.370   0.992  0.3146  0.1220 -0.3158
  653TIP3    H123450   5.786   4.367   0.952  0.7528  1.0448  0.5320
  653TIP3    H223451   5.683   4.280   1.021  1.4071  0.1261  0.3588
  654TIP3   OH223452   5.423   3.566  13.486 -0.4718  0.3153 -0.9371
  654TIP3    H123453   5.396   3.487  13.534 -0.5178  0.5718 -0.5400
  654TIP3    H223454   5.490   3.535  13.425  1.8906  0.5084  1.4667
  655TIP3   OH223455   6.295   0.191   4.680  0.1558 -0.2547 -0.2837
  655TIP3    H123456   6.348   0.270   4.664  0.6481 -0.9797 -2.3267
  655TIP3    H223457   6.235   0.187   4.606 -0.5475 -1.2709  0.3347
  656TIP3   OH223458   0.087   5.237  15.050 -0.3761 -0.2853  0.4615
  656TIP3    H123459   0.011   5.221  15.105  1.0637 -0.1983  2.5154
  656TIP3    H223460   0.158   5.256  15.111  1.1357  0.3834 -1.4398
  657TIP3   OH223461   2.303   6.265  11.851 -0.3422  0.1529 -0.6363
  657TIP3    H123462   2.349   6.334  11.899 -0.2754 -0.4561  0.1882
  657TIP3    H223463   2.214   6.299  11.840 -0.8134 -0.3792  1.3654
  658TIP3   OH223464   1.480   6.590  14.214  0.6537  0.3441  0.5571
  658TIP3    H123465   1.575   6.600  14.215  0.7665 -0.6509  1.9022
  658TIP3    H223466   1.458   6.566  14.304 -0.8517  0.3818  0.2097
  659TIP3   OH223467   0.289   0.583  17.202 -0.2525 -0.6103 -0.0179
  659TIP3    H123468   0.236   0.512  17.240  0.6947 -1.2517  0.1376
  659TIP3    H223469   0.375   0.543  17.190  0.2991  0.5394  0.1072
  660TIP3   OH223470   2.806   0.858   3.280 -0.1250  0.2014  0.0432
  660TIP3    H123471   2.762   0.888   3.201 -0.0063  1.3542  0.4106
  660TIP3    H223472   2.891   0.826   3.249  0.6132  2.2341 -0.1000
  661TIP3   OH223473   3.790   2.117  14.676 -0.0016  0.3166  0.1632
  661TIP3    H123474   3.735   2.157  14.608 -0.6784  1.2245  1.2272
  661TIP3    H223475   3.874   2.164  14.669  0.5506 -0.8512 -1.2490
  662TIP3   OH223476   4.107   3.244   4.966  0.1479  0.2261 -0.4575
  662TIP3    H123477   4.037   3.293   5.010 -0.2621  0.2032 -1.0811
  662TIP3    H223478   4.104   3.157   5.005  0.0584  0.3264 -0.2387
  663TIP3   OH223479   6.771   3.326  14.878  1.1692 -0.8175  0.1852
  663TIP3    H123480   6.705   3.346  14.812  0.9446 -0.2109  0.5890
  663TIP3    H223481   6.736   3.251  14.925 -0.0307  0.5272  1.4935
  664TIP3   OH223482   4.333   1.870   3.174  0.5626  0.0526  0.2670
  664TIP3    H123483   4.284   1.875   3.256  0.9963 -0.4451  0.5548
  664TIP3    H223484   4.308   1.949   3.126  1.1183  0.8714  1.3255
  665TIP3   OH223485   4.602   6.585  16.958  0.3517  0.1704 -0.2246
  665TIP3    H123486   4.552   6.535  16.893  1.9702 -0.4796 -1.0160
  665TIP3    H223487   4.636   6.660  16.910  0.3894  0.4369  0.2155
  666TIP3   OH223488   1.344   2.131  14.866  0.0463  0.4920  0.4562
  666TIP3    H123489   1.275   2.081  14.910  0.4262 -0.0374  0.4572
  666TIP3    H223490   1.317   2.133  14.774 -0.4026  1.0162  0.5971
  667TIP3   OH223491   2.614   6.183  16.222  0.1810 -0.1424 -0.7904
  667TIP3    H123492   2.682   6.213  16.161 -0.6727 -0.1999 -1.7932
  667TIP3    H223493   2.632   6.090  16.233  1.6790  0.3139  0.8170
  668TIP3   OH223494   4.794   2.799  12.081  0.4530 -0.0568 -0.4820
  668TIP3    H123495   4.704   2.778  12.058  0.2712 -1.3535  1.3306
  668TIP3    H223496   4.793   2.894  12.097 -0.9153 -0.2785  0.8733
  669TIP3   OH223497   1.606   4.672   0.938  0.0397 -0.5615 -0.0715
  669TIP3    H123498   1.582   4.752   0.985  0.0739 -0.6803  0.1486
  669TIP3    H223499   1.697   4.687   0.912  0.4066 -0.9662  0.9133
  670TIP3   OH223500   3.967   5.936  13.987 -0.0587 -0.2706  0.5257
  670TIP3    H123501   3.872   5.934  13.977  0.0467 -0.7696 -0.3599
  670TIP3    H223502   3.990   5.849  14.018  0.0749 -0.0386  1.0869
  671TIP3   OH223503   1.258   2.003  14.610  0.2139  0.0244 -0.3225
  671TIP3    H123504   1.174   1.979  14.649 -0.2090  1.5990 -0.2451
  671TIP3    H223505   1.259   1.957  14.526 -0.2895 -0.7809  0.0978
  672TIP3   OH223506   4.349   5.062   6.533  0.4452  0.0157 -0.0710
  672TIP3    H123507   4.436   5.084   6.499  1.1764  1.3042  2.4365
  672TIP3    H223508   4.290   5.124   6.491  1.4057  1.9322  1.3225
  673TIP3   OH223509   5.547   5.945  14.147  1.0850 -0.2552  0.2155
  673TIP3    H123510   5.541   6.040  14.161 -1.7993 -0.3860  0.2469
  673TIP3    H223511   5.543   5.934  14.052 -1.3698 -0.4336  0.3008
  674TIP3   OH223512   2.174   5.512   3.384  0.1969  0.3382  0.0118
  674TIP3    H123513   2.137   5.598   3.365  0.7010  0.5788  0.1099
  674TIP3    H223514   2.184   5.510   3.479 -0.9743 -0.3110  0.1319
  675TIP3   OH223515   3.115   2.293  15.602  0.4373 -0.5878 -0.1923
  675TIP3    H123516   3.197   2.299  15.553  0.8612 -1.3410  0.4162
  675TIP3    H223517   3.101   2.381  15.637  1.3819 -0.6402  0.3350
  676TIP3   OH223518   3.166   5.867   1.236 -0.6608 -0.8766 -0.0162
  676TIP3    H123519   3.127   5.780   1.245 -1.2394 -0.7836 -1.5121
  676TIP3    H223520   3.103   5.916   1.183 -0.1477  0.3372  0.4827
  677TIP3   OH223521   0.964   5.934  12.677  0.0651 -0.0144 -0.1274
  677TIP3    H123522   0.988   5.885  12.598  1.3069  0.5369 -0.1112
  677TIP3    H223523   0.961   5.868  12.746  2.2742 -0.0355  0.0058
  678TIP3   OH223524   2.287   2.262   1.130  0.1394 -0.2395  0.6794
  678TIP3    H123525   2.270   2.300   1.216 -0.1863 -1.0318  0.9741
  678TIP3    H223526   2.378   2.234   1.132  0.5475  1.0475  0.2557
  679TIP3   OH223527   6.254   4.297   0.646 -0.0718  0.3471  0.0977
  679TIP3    H123528   6.236   4.385   0.614 -0.0938  0.0525 -0.7350
  679TIP3    H223529   6.258   4.305   0.741 -0.8884  1.0995  0.0753
  680TIP3   OH223530   5.430   5.489  11.912  0.0067 -0.3113  0.2754
  680TIP3    H123531   5.424   5.408  11.962 -0.6366  0.4588  1.4769
  680TIP3    H223532   5.492   5.543  11.963  0.5820 -0.1253 -0.6177
  681TIP3   OH223533   5.046   4.751  11.834 -0.6448 -0.4275  0.2281
  681TIP3    H123534   4.995   4.824  11.799 -0.0715 -0.2795 -0.3090
  681TIP3    H223535   5.018   4.676  11.782 -0.4333 -0.3767  0.0400
  682TIP3   OH223536   3.868   2.790   5.614 -0.3041 -0.0978 -0.0527
  682TIP3    H123537   3.826   2.872   5.639 -0.0984 -0.2029  0.6365
  682TIP3    H223538   3.836   2.773   5.525 -0.1517  0.8495 -0.2913
  683TIP3   OH223539   5.081   2.846  12.328  0.1128  0.3780  0.0619
  683TIP3    H123540   5.002   2.795  12.309 -1.0364  1.5507  1.5037
  683TIP3    H223541   5.144   2.781  12.360 -0.4132 -0.5143 -0.6977
  684TIP3   OH223542   3.951   6.203  13.661  0.0138 -0.0854 -0.2042
  684TIP3    H123543   3.980   6.151  13.736 -2.3113 -2.2810 -0.7498
  684TIP3    H223544   3.954   6.143  13.587 -0.4969  1.2143 -1.3111
  685TIP3   OH223545   2.815   1.692  13.910 -0.0843 -0.5355 -0.0529
  685TIP3    H123546   2.763   1.670  13.987 -0.1685 -0.1461  0.0041
  685TIP3    H223547   2.791   1.627  13.844  0.2917 -1.1171  0.3794
  686TIP3   OH223548   1.251   2.213   1.447  0.2778  0.1635  0.3685
  686TIP3    H123549   1.268   2.288   1.503 -1.0184  0.3825  0.4725
  686TIP3    H223550   1.161   2.188   1.466 -0.1916  0.2526 -1.6252
  687TIP3   OH223551   2.743   2.001  11.336  0.2518 -0.7062  0.0883
  687TIP3    H123552   2.758   2.084  11.290  1.9721 -0.7958  0.4455
  687TIP3    H223553   2.693   2.025  11.414 -1.7493 -0.4084 -1.2349
  688TIP3   OH223554   2.333   4.418   4.475  0.2402 -0.1594 -0.7455
  688TIP3    H123555   2.284   4.498   4.455 -0.8880 -0.4051  0.9681
  688TIP3    H223556   2.424   4.441   4.457  0.1537  2.1501  1.4964
  689TIP3   OH223557   6.218   1.041  12.934  0.1764 -0.2454 -0.4248
  689TIP3    H123558   6.132   1.073  12.906 -0.2293 -1.6594 -0.8740
  689TIP3    H223559   6.256   1.002  12.855  1.9743  1.8607 -0.6488
  690TIP3   OH223560   0.427   2.496   1.460  0.3146  0.3071 -0.5845
  690TIP3    H123561   0.355   2.536   1.510  0.6964 -0.1330  0.3332
  690TIP3    H223562   0.478   2.571   1.428  0.7196  0.5850  0.6715
  691TIP3   OH223563   1.168   3.789  16.548 -0.3269 -0.0460  0.0702
  691TIP3    H123564   1.085   3.837  16.543 -0.7091 -0.4673  1.9435
  691TIP3    H223565   1.144   3.698  16.534 -0.0745 -0.0944 -0.0474
  692TIP3   OH223566   3.249   6.409   2.769 -0.2419 -0.2543  0.0881
  692TIP3    H123567   3.241   6.440   2.679 -0.4064 -1.0405 -0.1696
  692TIP3    H223568   3.230   6.487   2.822  0.7676  0.4408 -0.5399
  693TIP3   OH223569   6.625   6.135  14.262 -0.8371  0.0450 -0.1588
  693TIP3    H123570   6.588   6.066  14.317 -1.7186  1.3481  0.9127
  693TIP3    H223571   6.591   6.117  14.174 -2.2185 -0.0400  0.3959
  694TIP3   OH223572   2.459   0.745   2.578 -0.0797  0.2455 -0.1524
  694TIP3    H123573   2.513   0.723   2.503 -1.0735 -1.5629 -0.3602
  694TIP3    H223574   2.509   0.714   2.654 -0.3319 -0.4727 -0.2734
  695TIP3   OH223575   2.508   1.983   0.693 -0.9024  0.6910 -0.2924
  695TIP3    H123576   2.528   1.889   0.698  0.4938  0.9920 -0.2031
  695TIP3    H223577   2.539   2.010   0.607 -0.7096  1.2056 -0.0646
  696TIP3   OH223578   2.172   0.876  13.811  1.1430  0.2488  0.0440
  696TIP3    H123579   2.099   0.869  13.873 -0.1349  1.6630 -1.2827
  696TIP3    H223580   2.245   0.910  13.863  0.6976 -0.5921  1.2394
  697TIP3   OH223581   1.940   3.186   4.142 -0.8349  0.2640  0.1262
  697TIP3    H123582   1.942   3.227   4.228 -1.3342 -0.0926  0.3142
  697TIP3    H223583   2.004   3.234   4.090 -0.8966  0.8076  0.5541
  698TIP3   OH223584   4.010   3.685   3.694 -0.2487  0.0909  0.2196
  698TIP3    H123585   3.948   3.621   3.728 -0.4068  0.1768  0.0933
  698TIP3    H223586   4.073   3.634   3.644 -0.7618  0.1093 -0.4466
  699TIP3   OH223587   0.837   5.865   4.571  0.1478  0.3996 -0.4759
  699TIP3    H123588   0.874   5.847   4.658 -0.8545 -0.6420 -0.2470
  699TIP3    H223589   0.808   5.779   4.539  2.3446  0.4536 -2.7273
  700TIP3   OH223590   6.370   3.736   0.505  0.0413  0.2476 -0.1142
  700TIP3    H123591   6.306   3.726   0.434 -0.2767 -0.1052  0.2194
  700TIP3    H223592   6.368   3.829   0.525  1.5679  0.6886 -1.8979
  701TIP3   OH223593   3.136   6.608   2.608  0.1458  0.2809 -0.0209
  701TIP3    H123594   3.118   6.683   2.664 -0.0338  0.9572 -0.9694
  701TIP3    H223595   3.049   6.577   2.581  0.2829  1.1598 -1.4876
  702TIP3   OH223596   4.276   3.612  11.438  0.6735 -0.1681  0.0223
  702TIP3    H123597   4.252   3.610  11.531  0.3193  1.3072 -0.0210
  702TIP3    H223598   4.203   3.657  11.395  1.0549 -0.4168 -0.8990
  703TIP3   OH223599   3.038   3.585   5.757  0.0947  0.6969 -0.4665
  703TIP3    H123600   3.051   3.642   5.681  1.7264  2.5864  1.1554
  703TIP3    H223601   2.994   3.641   5.821  2.2972  0.4032  1.3899
  704TIP3   OH223602   2.946   3.064  14.747 -0.2559  0.2198  0.0575
  704TIP3    H123603   3.029   3.051  14.792 -0.6731 -0.5950  0.5978
  704TIP3    H223604   2.954   3.150  14.706 -0.3097  1.5532  2.6912
  705TIP3   OH223605   3.738   6.170  17.051 -0.3965 -0.8823 -0.2332
  705TIP3    H123606   3.651   6.180  17.089 -0.6681 -1.9935 -0.5634
  705TIP3    H223607   3.727   6.197  16.960 -0.0617  0.4040  0.0983
  706TIP3   OH223608   0.755   4.482   4.176  0.3553  0.2079 -0.0574
  706TIP3    H123609   0.691   4.440   4.233 -0.0840  0.9656  0.0044
  706TIP3    H223610   0.784   4.559   4.225 -0.7009  1.3640 -1.2554
  707TIP3   OH223611   3.696   6.112   3.811 -0.3047  0.1937  0.2408
  707TIP3    H123612   3.705   6.021   3.838 -0.5614 -0.2813 -1.2276
  707TIP3    H223613   3.608   6.137   3.838 -0.4797 -0.1980  0.0224
  708TIP3   OH223614   3.373   0.171  13.414  0.3019  0.0241  0.2912
  708TIP3    H123615   3.290   0.208  13.384 -1.0504 -1.5674  2.0171
  708TIP3    H223616   3.387   0.095  13.357 -1.1316 -1.6538  2.0806
  709TIP3   OH223617   1.878   1.355  15.592 -0.0255 -0.1509  0.1746
  709TIP3    H123618   1.925   1.272  15.588  1.5702  0.7865 -0.9971
  709TIP3    H223619   1.909   1.404  15.516  0.1347  2.0806  1.6348
  710TIP3   OH223620   0.861   0.930   3.160 -0.4514  0.1773 -0.2366
  710TIP3    H123621   0.909   1.011   3.142  1.1504 -0.8077 -0.4009
  710TIP3    H223622   0.846   0.933   3.255  1.3000 -0.2467  0.0694
  711TIP3   OH223623   1.127   0.210   0.008 -0.4854 -0.0040 -0.0421
  711TIP3    H123624   1.190   0.176   0.072 -1.6805 -1.1184  0.5680
  711TIP3    H223625   1.150   0.167  -0.074 -0.2144 -0.1365  0.1028
  712TIP3   OH223626   4.840   0.436  11.736 -0.4040  0.0857  0.1357
  712TIP3    H123627   4.923   0.473  11.707 -0.1790 -0.5975 -0.0979
  712TIP3    H223628   4.864   0.377  11.808 -0.7670  0.4191  0.5360
  713TIP3   OH223629   5.934   2.295   1.256  0.5384  0.0238 -0.0574
  713TIP3    H123630   5.997   2.279   1.326 -0.6615 -0.0676  1.0214
  713TIP3    H223631   5.880   2.367   1.290 -1.3954 -1.4475  0.0209
  714TIP3   OH223632   2.932   5.915   6.127 -0.7416 -0.7810  0.4880
  714TIP3    H123633   2.893   5.905   6.214 -1.5482  0.1287  0.2386
  714TIP3    H223634   2.861   5.948   6.072 -0.3212 -1.6308 -0.5956
  715TIP3   OH223635   0.037   5.965  16.006  0.2981  0.0425  0.1519
  715TIP3    H123636  -0.026   5.893  15.997  0.6145 -0.0530 -1.5550
  715TIP3    H223637   0.123   5.923  16.003  0.4674  0.3401  0.7733
  716TIP3   OH223638   0.682   2.126  15.969  0.4122  0.1233 -0.3106
  716TIP3    H123639   0.692   2.215  16.003 -0.9468 -0.1549  0.8716
  716TIP3    H223640   0.632   2.137  15.887 -1.5488  0.3084  0.8664
  717TIP3   OH223641   2.605   5.794   0.069 -0.4388  0.0331 -0.1162
  717TIP3    H123642   2.598   5.848  -0.010  0.1435  2.2730  1.2905
  717TIP3    H223643   2.694   5.811   0.101 -0.8037 -0.5351  1.2273
  718TIP3   OH223644   5.994   2.712  13.804 -0.0739 -0.1741 -0.3241
  718TIP3    H123645   6.041   2.720  13.888  0.5260 -0.1395 -0.6569
  718TIP3    H223646   6.018   2.792  13.756 -1.5377  0.4769  0.0249
  719TIP3   OH223647   5.444   3.111  11.151  0.0461  0.0162  0.2520
  719TIP3    H123648   5.453   3.206  11.140  1.6910  0.0456  1.6828
  719TIP3    H223649   5.351   3.098  11.171 -0.0851  1.3843  0.5805
  720TIP3   OH223650   4.363   3.995  10.689  0.1505 -0.0978  0.0988
  720TIP3    H123651   4.445   3.946  10.695  0.4862  0.4640  0.1734
  720TIP3    H223652   4.300   3.934  10.650  0.7796 -0.3085 -0.5840
  721TIP3   OH223653   2.071   4.076  12.204 -0.0025 -0.1622  0.0838
  721TIP3    H123654   2.073   4.169  12.181 -1.5384 -0.9028 -3.4724
  721TIP3    H223655   2.018   4.071  12.284 -1.4260  1.8720 -0.6948
  722TIP3   OH223656   1.414   3.002  13.655 -0.3500 -0.7309 -0.5755
  722TIP3    H123657   1.407   3.092  13.623  0.7753 -0.1354  0.7647
  722TIP3    H223658   1.424   3.011  13.750 -0.2379 -2.2689 -0.4187
  723TIP3   OH223659   2.364   6.441  13.796 -0.2849 -0.2963  0.3257
  723TIP3    H123660   2.319   6.367  13.838  0.7337 -0.0006  1.9988
  723TIP3    H223661   2.446   6.405  13.765  0.1771  0.0950  1.0725
  724TIP3   OH223662   4.113   3.188  14.387 -0.3927 -0.1957  0.1276
  724TIP3    H123663   4.181   3.120  14.382 -0.9157 -0.8382  1.3648
  724TIP3    H223664   4.135   3.238  14.466 -0.1896  0.8870 -0.6087
  725TIP3   OH223665   5.345   5.757  13.154  0.1587  0.5147  0.0839
  725TIP3    H123666   5.261   5.800  13.136 -0.1779 -0.8079 -1.5707
  725TIP3    H223667   5.331   5.712  13.237  0.3425  3.1259  1.5742
  726TIP3   OH223668   1.941   1.059   3.838  0.1084 -0.2801 -0.3474
  726TIP3    H123669   1.949   1.154   3.844 -1.0862 -0.0094 -2.5960
  726TIP3    H223670   1.847   1.042   3.843  0.1669 -1.1670 -2.0188
  727TIP3   OH223671   4.970   4.012  13.670  0.6139 -0.0871 -0.0850
  727TIP3    H123672   4.958   3.949  13.599 -0.2043  0.7333 -0.6874
  727TIP3    H223673   5.064   4.027  13.673  1.0145 -2.7188  1.2856
  728TIP3   OH223674   6.037   0.012  12.963  0.5535  0.6423 -0.4695
  728TIP3    H123675   6.064  -0.049  13.031 -0.8388  0.6224  0.0785
  728TIP3    H223676   6.031   0.097  13.008  1.0891  0.9143 -0.9056
  729TIP3   OH223677   0.715   2.194   2.855 -0.0761 -0.0494 -0.4954
  729TIP3    H123678   0.623   2.198   2.882 -0.0624  1.7508 -0.5919
  729TIP3    H223679   0.714   2.142   2.775 -1.0713  0.2254 -0.6757
  730TIP3   OH223680   3.221   4.458  11.973  0.0400 -0.0719 -0.3685
  730TIP3    H123681   3.202   4.552  11.967 -1.8145 -0.4849 -1.4516
  730TIP3    H223682   3.316   4.454  11.985  0.4216  1.8913 -2.3045
  731TIP3   OH223683   4.377   2.814  14.621 -0.1391  0.2629  0.1538
  731TIP3    H123684   4.426   2.790  14.542 -0.1310  2.4740 -0.5341
  731TIP3    H223685   4.439   2.866  14.673 -0.6508  0.1403  0.8981
  732TIP3   OH223686   1.075   1.995   1.318 -0.0943  0.5354  0.0528
  732TIP3    H123687   1.098   1.951   1.400 -1.0411  1.3161  0.7418
  732TIP3    H223688   0.999   2.049   1.340  0.1075  1.3282 -1.1628
  733TIP3   OH223689   4.986   2.641   5.507  0.4513  0.7208  0.4055
  733TIP3    H123690   4.895   2.651   5.534  0.2399  0.2716 -0.1439
  733TIP3    H223691   4.983   2.640   5.412  1.0406  0.8016  0.3864
  734TIP3   OH223692   0.780   4.752  14.194 -0.4954 -0.4463  0.5918
  734TIP3    H123693   0.842   4.684  14.166  0.3594  0.6168 -0.1218
  734TIP3    H223694   0.807   4.774  14.283 -0.0724 -0.2593  0.4211
  735TIP3   OH223695   3.362   3.478   4.317  0.2089  0.1748 -0.5038
  735TIP3    H123696   3.435   3.529   4.353  1.2932 -0.4873 -1.7186
  735TIP3    H223697   3.283   3.524   4.348  1.1177  0.6700  1.1550
  736TIP3   OH223698   0.819   5.328  11.511 -0.0787  0.2024  0.0562
  736TIP3    H123699   0.835   5.278  11.591 -0.7568 -0.6920 -0.3667
  736TIP3    H223700   0.727   5.355  11.517 -0.5114 -1.0156 -1.0608
  737TIP3   OH223701   6.190   6.541   1.179 -0.3538 -0.2460 -0.0390
  737TIP3    H123702   6.284   6.545   1.195 -0.2553 -0.0042 -0.6658
  737TIP3    H223703   6.180   6.569   1.088 -0.9956 -0.6377 -0.0899
  738TIP3   OH223704   5.547   2.016   2.527 -0.2749 -0.6638 -0.0253
  738TIP3    H123705   5.614   1.957   2.493  0.9478  1.1519 -0.8401
  738TIP3    H223706   5.555   2.007   2.622 -0.1374 -1.8344 -0.1362
  739TIP3   OH223707   6.703   1.476  11.957 -0.7515  0.5366  0.3260
  739TIP3    H123708   6.749   1.478  11.873  4.1022 -0.1253  2.7581
  739TIP3    H223709   6.650   1.397  11.953  1.6882 -1.1206 -1.0760
  740TIP3   OH223710   2.515   0.926  15.477 -0.2224  0.1854 -0.2104
  740TIP3    H123711   2.583   0.954  15.538  0.3027 -0.4293 -0.5237
  740TIP3    H223712   2.528   0.981  15.400  1.0441 -1.1574 -0.9742
  741TIP3   OH223713   6.817   2.025   5.759  0.2061 -0.0024 -0.1048
  741TIP3    H123714   6.762   2.103   5.766 -0.1087 -0.3214  0.8771
  741TIP3    H223715   6.785   1.980   5.681 -0.1676  0.4076 -0.1882
  742TIP3   OH223716   3.609   2.306   4.890  0.2467 -0.1763  0.3666
  742TIP3    H123717   3.609   2.402   4.889  1.4901 -0.1726  0.1042
  742TIP3    H223718   3.701   2.282   4.894 -0.0106 -1.3796 -0.6079
  743TIP3   OH223719   3.110   3.729  12.244  0.2941 -0.5128  0.3662
  743TIP3    H123720   3.069   3.747  12.328 -0.2600  1.1534 -0.2349
  743TIP3    H223721   3.199   3.761  12.253  1.0293 -2.7394  1.1718
  744TIP3   OH223722   0.005   1.114   5.962 -0.3057  0.3611  0.4334
  744TIP3    H123723  -0.011   1.065   6.042  1.1891  0.1673  0.6156
  744TIP3    H223724   0.030   1.048   5.897 -0.2389  0.6650  0.1460
  745TIP3   OH223725   2.469   4.485   2.565 -1.0855  0.1618 -0.6567
  745TIP3    H123726   2.554   4.500   2.523  0.4092 -1.4889  1.6566
  745TIP3    H223727   2.453   4.563   2.617 -0.7064  0.2057 -0.6097
  746TIP3   OH223728   4.562   3.286  14.091 -0.3477 -0.2148 -0.3501
  746TIP3    H123729   4.632   3.229  14.059 -0.0278 -0.5685  0.9446
  746TIP3    H223730   4.540   3.250  14.177 -2.5365 -0.4738 -1.0016
  747TIP3   OH223731   6.111   3.946  15.033  0.2374 -0.3220  0.2105
  747TIP3    H123732   6.191   3.984  15.070 -0.5696  1.3716  0.2419
  747TIP3    H223733   6.138   3.859  15.002  1.7945 -0.2623  1.3500
  748TIP3   OH223734   0.441   5.026   6.036 -0.2385 -0.4709  0.2870
  748TIP3    H123735   0.427   4.932   6.019 -1.0155 -0.1508 -0.9224
  748TIP3    H223736   0.430   5.067   5.950  1.0078  0.6314  0.6388
  749TIP3   OH223737   6.400   0.586  11.446  0.5377 -0.1910  0.0309
  749TIP3    H123738   6.484   0.554  11.411  0.9855  0.1250  0.8068
  749TIP3    H223739   6.334   0.539  11.395  1.1903 -0.9858 -0.1008
  750TIP3   OH223740   4.809   4.297  16.388 -0.1708 -0.1464  0.6001
  750TIP3    H123741   4.735   4.296  16.449 -1.6372 -1.8094 -1.1739
  750TIP3    H223742   4.803   4.383  16.345 -1.0619 -0.2613  0.4828
  751TIP3   OH223743   0.432   0.773   6.620 -0.8319  0.3699 -0.3633
  751TIP3    H123744   0.438   0.700   6.681 -0.3750  1.6692  1.1774
  751TIP3    H223745   0.354   0.754   6.568 -0.2121 -1.6446 -0.5641
  752TIP3   OH223746   3.283   4.577  13.816 -0.6674 -0.1041 -0.3945
  752TIP3    H123747   3.365   4.533  13.793 -1.6837 -1.6852 -1.0912
  752TIP3    H223748   3.224   4.506  13.842 -1.9215  0.9722 -0.2316
  753TIP3   OH223749   6.779   6.083   2.951 -0.0868 -0.5363  0.2641
  753TIP3    H123750   6.706   6.026   2.976  0.2144 -1.5614 -1.1413
  753TIP3    H223751   6.769   6.095   2.857  1.3033 -0.3173  0.1387
  754TIP3   OH223752   0.843   1.175  12.677  0.2065  0.1236 -0.0844
  754TIP3    H123753   0.909   1.137  12.736 -1.0585  1.6707  2.4470
  754TIP3    H223754   0.777   1.107  12.667  0.3127 -0.0758  0.5241
  755TIP3   OH223755   5.664   6.427   2.412 -0.1364 -0.0092  0.3840
  755TIP3    H123756   5.753   6.413   2.380 -0.4845 -0.7259 -0.3099
  755TIP3    H223757   5.618   6.466   2.338 -0.8034 -1.1426  0.1917
  756TIP3   OH223758   5.511   5.554  12.462  0.0979  0.1207  0.0828
  756TIP3    H123759   5.448   5.513  12.402 -0.5630  3.3753 -1.5540
  756TIP3    H223760   5.594   5.511  12.443 -1.3279 -3.3797  1.4094
  757TIP3   OH223761   5.817   2.625   3.813 -0.3606 -0.1148  0.2083
  757TIP3    H123762   5.781   2.573   3.885  2.6520  0.4211  2.1769
  757TIP3    H223763   5.884   2.680   3.854  1.0922  0.5674 -2.9463
  758TIP3   OH223764   4.042   6.329   3.742 -0.2835  0.1037 -0.6900
  758TIP3    H123765   4.127   6.284   3.740 -0.0999  0.5091 -2.6121
  758TIP3    H223766   4.062   6.417   3.774 -0.0541  0.0844 -0.7795
  759TIP3   OH223767   1.390   2.803   1.010  0.6556  0.4909  0.1848
  759TIP3    H123768   1.411   2.717   0.975  1.4380  0.9725 -0.5417
  759TIP3    H223769   1.448   2.814   1.085 -0.4920 -0.2245  1.2041
  760TIP3   OH223770   2.674   3.749   2.534 -0.1839 -0.5680  0.0831
  760TIP3    H123771   2.645   3.819   2.592  0.9170 -0.6308  0.7378
  760TIP3    H223772   2.598   3.730   2.479 -1.0188 -0.0158  1.0242
  761TIP3   OH223773   1.429   2.628  15.156 -0.1658 -0.0979  0.4063
  761TIP3    H123774   1.439   2.605  15.064 -0.2556 -0.9787  0.6138
  761TIP3    H223775   1.363   2.698  15.156  0.5675  0.6027 -0.2769
  762TIP3   OH223776   6.218   2.819  14.994  0.2250  0.3042  0.4443
  762TIP3    H123777   6.277   2.822  15.069 -1.1734 -0.7402  1.6278
  762TIP3    H223778   6.211   2.726  14.972 -1.3913  0.3380  0.6934
  763TIP3   OH223779   0.777   2.927   4.156 -0.2282  0.1975 -0.2172
  763TIP3    H123780   0.830   2.997   4.194 -0.5404  1.3768 -1.8730
  763TIP3    H223781   0.840   2.871   4.111 -0.3234  1.4709 -1.9888
  764TIP3   OH223782   6.593   0.484  12.569  0.0536 -0.8066 -0.4560
  764TIP3    H123783   6.580   0.424  12.642  0.1847 -1.9347 -1.3436
  764TIP3    H223784   6.540   0.447  12.498 -0.4766  0.5493 -0.7838
  765TIP3   OH223785   3.714   0.129  12.928 -0.0608 -0.2108  0.5477
  765TIP3    H123786   3.682   0.193  12.865 -1.4492 -0.2139  1.2372
  765TIP3    H223787   3.750   0.059  12.873 -3.3582 -1.3023 -0.3524
  766TIP3   OH223788   6.548   1.148  14.761 -0.3640 -0.1892 -0.1191
  766TIP3    H123789   6.545   1.238  14.796 -0.4999  0.2717 -1.2829
  766TIP3    H223790   6.574   1.159  14.670  3.3231 -1.6281  0.6910
  767TIP3   OH223791   4.033   6.620   3.857  0.4246  0.3388  0.5752
  767TIP3    H123792   4.049   6.674   3.779 -2.6443 -1.0012 -1.0978
  767TIP3    H223793   3.946   6.646   3.887 -0.7983 -2.9924  0.2000
  768TIP3   OH223794   3.116   1.163  10.558  0.2746 -0.2226 -0.1098
  768TIP3    H123795   3.142   1.169  10.466  0.4247 -2.5052 -0.2590
  768TIP3    H223796   3.038   1.108  10.557 -0.2881  0.5420  1.0402
  769TIP3   OH223797   3.944   1.763  12.899 -0.4155  0.2539  0.3479
  769TIP3    H123798   3.892   1.844  12.899 -0.7264  0.0562  0.4179
  769TIP3    H223799   3.920   1.720  12.817 -1.7378 -0.7117  1.2208
  770TIP3   OH223800   3.523   3.990  13.592 -0.4804 -0.4833  0.4521
  770TIP3    H123801   3.468   4.026  13.661 -1.1375 -1.2720  0.3542
  770TIP3    H223802   3.474   3.913  13.561 -0.1443 -0.1999 -0.8039
  771TIP3   OH223803   1.345   2.104   4.831  0.9136 -0.0284  0.6409
  771TIP3    H123804   1.369   2.012   4.834  2.6756  0.3952  0.2150
  771TIP3    H223805   1.374   2.139   4.915  0.6939  0.2477  0.6030
  772TIP3   OH223806   3.410   4.827   5.913  0.4618 -0.3603  0.1928
  772TIP3    H123807   3.491   4.843   5.863  0.6760 -2.2845 -0.1061
  772TIP3    H223808   3.437   4.836   6.004  0.6136  0.7474  0.0501
  773TIP3   OH223809   2.370   6.178  14.158  0.5989 -0.6555  0.1479
  773TIP3    H123810   2.293   6.153  14.209  1.3354 -1.1730  1.0313
  773TIP3    H223811   2.336   6.201  14.072 -0.7215  0.5171  0.9592
  774TIP3   OH223812   4.953   4.573   1.741 -0.3414 -0.4685  0.2864
  774TIP3    H123813   4.928   4.625   1.665 -0.1510 -0.8407 -0.0294
  774TIP3    H223814   4.975   4.638   1.808  0.8250 -0.1315 -0.4157
  775TIP3   OH223815   6.438   0.188   2.431  0.4376 -0.4496 -0.6206
  775TIP3    H123816   6.431   0.270   2.480  0.3259 -0.7389 -0.1546
  775TIP3    H223817   6.531   0.182   2.409  1.4286 -2.5559  3.4803
  776TIP3   OH223818   5.091   2.406  12.289 -0.0934 -0.5846  0.1598
  776TIP3    H123819   5.024   2.340  12.307  0.2684 -0.6085  1.4403
  776TIP3    H223820   5.044   2.489  12.296 -0.1449 -0.6300  0.3604
  777TIP3   OH223821   2.551   5.380  11.801 -0.8172 -0.0986 -0.6012
  777TIP3    H123822   2.505   5.464  11.797  0.5074  0.7428  1.2752
  777TIP3    H223823   2.482   5.315  11.798 -2.1405  1.1282  1.7451
  778TIP3   OH223824   4.153   6.190  12.017 -0.5664  0.4436  0.2314
  778TIP3    H123825   4.212   6.183  11.942  0.3977 -1.6688  1.1344
  778TIP3    H223826   4.066   6.169  11.982 -0.2988  0.6180 -0.5304
  779TIP3   OH223827   0.054   6.624  11.628 -0.5675 -0.7262  0.2576
  779TIP3    H123828   0.136   6.576  11.619 -0.1053 -0.1530  1.3098
  779TIP3    H223829   0.036   6.625  11.722 -2.1140 -1.3758 -0.0085
  780TIP3   OH223830   6.011   2.664   2.327 -0.0741 -0.3334  0.5723
  780TIP3    H123831   6.067   2.713   2.266  1.8985 -1.6650  1.2381
  780TIP3    H223832   5.983   2.588   2.277  0.6183 -0.8419  0.9379
  781TIP3   OH223833   6.660   4.383   6.137 -0.2441  0.1390 -0.4408
  781TIP3    H123834   6.591   4.326   6.104 -0.1495  0.9514 -2.0806
  781TIP3    H223835   6.741   4.347   6.100  0.3408 -1.3061  2.1402
  782TIP3   OH223836   5.842   1.901   5.669 -0.0242 -0.5871 -0.3613
  782TIP3    H123837   5.826   1.950   5.749 -0.9034  0.1192 -0.9563
  782TIP3    H223838   5.905   1.955   5.621 -1.2750  0.1641 -1.1834
  783TIP3   OH223839   6.662   4.386  16.536  0.3081  0.3408  0.8647
  783TIP3    H123840   6.733   4.347  16.485  0.6160  1.0065  0.7893
  783TIP3    H223841   6.701   4.405  16.621  1.2815  4.1632 -0.3360
  784TIP3   OH223842   6.504   5.728  11.516 -0.1874 -0.2490 -0.1900
  784TIP3    H123843   6.412   5.753  11.530  0.3729  1.5189  0.4766
  784TIP3    H223844   6.537   5.713  11.605 -0.0109 -1.6057 -0.4747
  785TIP3   OH223845   4.460   0.505   4.956 -0.7102  0.5266  0.1531
  785TIP3    H123846   4.468   0.575   5.020 -0.2217 -0.6761  1.4182
  785TIP3    H223847   4.545   0.460   4.958 -0.7063  0.4554 -1.3014
  786TIP3   OH223848   4.347   5.545   4.969 -0.2071 -0.7868 -0.4773
  786TIP3    H123849   4.256   5.548   4.998  0.1791  1.0716  0.6233
  786TIP3    H223850   4.347   5.486   4.893 -2.6749  0.8161 -1.7713
  787TIP3   OH223851   0.752   5.833  11.050  0.4999  0.5418 -0.0564
  787TIP3    H123852   0.844   5.860  11.045  0.4047  0.8179 -0.3739
  787TIP3    H223853   0.754   5.738  11.044  0.9694  0.3378  2.8337
  788TIP3   OH223854   1.010   5.342  14.299  0.2718 -0.2799 -0.1765
  788TIP3    H123855   0.916   5.341  14.284  0.4380  0.0260 -1.2624
  788TIP3    H223856   1.030   5.433  14.320  0.2848 -0.4017  0.3480
  789TIP3   OH223857   3.840   4.249   1.764 -0.0145 -0.1177  0.3619
  789TIP3    H123858   3.760   4.296   1.745 -0.3636 -0.2812  1.4080
  789TIP3    H223859   3.832   4.222   1.856  0.5322 -1.5032  0.0179
  790TIP3   OH223860   5.060   2.609   3.893 -0.4456 -1.0262  0.6186
  790TIP3    H123861   4.994   2.669   3.928 -0.6730  0.5432 -2.4279
  790TIP3    H223862   5.136   2.621   3.950 -1.1092  0.7997  1.1445
  791TIP3   OH223863   1.116   4.221  12.545  0.2373 -0.2712 -0.1627
  791TIP3    H123864   1.113   4.313  12.570 -0.0783 -0.2223 -0.3770
  791TIP3    H223865   1.203   4.209  12.506  0.3517 -0.1111  0.0476
  792TIP3   OH223866   5.342   0.152  16.680 -0.0622  0.7462 -0.3834
  792TIP3    H123867   5.415   0.150  16.618 -0.0011 -1.0916 -0.2755
  792TIP3    H223868   5.363   0.224  16.740  2.9265 -1.3101  1.1440
  793TIP3   OH223869   4.571   4.097  15.981 -0.1249 -0.0077  0.5512
  793TIP3    H123870   4.485   4.088  16.023  0.2780 -0.2308  1.3535
  793TIP3    H223871   4.601   4.007  15.970  0.3859  0.0940  1.0907
  794TIP3   OH223872   0.340   6.423  12.809  0.5553  0.2344  0.0840
  794TIP3    H123873   0.385   6.466  12.736  0.2637 -1.7713 -1.3092
  794TIP3    H223874   0.357   6.480  12.884  3.1924  0.9162 -0.9556
  795TIP3   OH223875   2.201   1.540  13.085  0.4988 -0.1054 -0.0753
  795TIP3    H123876   2.117   1.586  13.084  0.5783  0.0981  1.5807
  795TIP3    H223877   2.231   1.543  12.994 -0.4920  1.2812 -0.3707
  796TIP3   OH223878   1.953   4.468   4.578  0.1348 -0.4146 -0.5967
  796TIP3    H123879   2.017   4.466   4.506  0.6759 -0.9463 -0.1060
  796TIP3    H223880   1.869   4.455   4.534  0.3102  0.7071 -1.2925
  797TIP3   OH223881   5.435   0.648  13.139 -0.1349  0.0355  0.3359
  797TIP3    H123882   5.430   0.729  13.191  3.2995 -0.5898  1.7892
  797TIP3    H223883   5.529   0.638  13.120 -0.5698 -3.2378 -0.3769
  798TIP3   OH223884   6.307   4.717  11.898 -0.1396 -0.2998 -0.7471
  798TIP3    H123885   6.398   4.727  11.924 -0.0691 -1.2579 -0.5913
  798TIP3    H223886   6.267   4.665  11.968 -1.8540  3.5521  1.2720
  799TIP3   OH223887   4.738   5.563  11.587 -0.5724 -0.1225 -0.3988
  799TIP3    H123888   4.766   5.611  11.509 -0.8598 -0.6130 -0.8071
  799TIP3    H223889   4.816   5.561  11.643 -0.7160  1.2972 -0.1323
  800TIP3   OH223890   4.906   0.558  16.785 -0.5221  0.1604 -0.4471
  800TIP3    H123891   4.881   0.651  16.777 -0.9121  0.0683 -0.3344
  800TIP3    H223892   4.875   0.533  16.872  0.4970  0.1963 -0.0664
  801TIP3   OH223893   6.179   0.173   5.822 -0.6165 -0.9945  0.5798
  801TIP3    H123894   6.096   0.154   5.777 -0.7467 -0.7105  0.6995
  801TIP3    H223895   6.230   0.223   5.759 -0.5583 -1.1170  0.5291
  802TIP3   OH223896   4.329   2.547   4.064 -0.3434  0.4923  0.0142
  802TIP3    H123897   4.263   2.481   4.041  1.2305 -1.2106  0.2527
  802TIP3    H223898   4.364   2.576   3.979 -1.4842  1.5252 -0.1208
  803TIP3   OH223899   6.257   1.907   1.511 -0.8448 -0.1383 -0.2587
  803TIP3    H123900   6.350   1.933   1.513 -0.6737 -0.7843  0.5965
  803TIP3    H223901   6.260   1.812   1.502 -1.4306 -0.1459 -0.3396
  804TIP3   OH223902   0.383   6.242   5.726 -0.3544  0.1651 -0.1807
  804TIP3    H123903   0.297   6.201   5.733 -0.3680  0.2624  0.2592
  804TIP3    H223904   0.442   6.180   5.769 -0.0842 -0.2590 -1.1638
  805TIP3   OH223905   6.650   0.310  16.654  0.4637  0.0861  0.3324
  805TIP3    H123906   6.687   0.390  16.692  1.5563 -0.0465 -0.4249
  805TIP3    H223907   6.725   0.265  16.616  0.0979 -2.0607  2.0818
  806TIP3   OH223908   0.282   3.852  16.369  0.6167 -0.2816 -0.2584
  806TIP3    H123909   0.237   3.858  16.453 -1.3813 -1.7210 -1.1747
  806TIP3    H223910   0.316   3.763  16.366 -0.0794 -0.5226 -1.3315
  807TIP3   OH223911   4.240   0.010  11.318  0.2360 -0.1533  0.1765
  807TIP3    H123912   4.314   0.070  11.324  0.0635 -0.1538  3.1791
  807TIP3    H223913   4.214  -0.006  11.409 -2.7988 -0.9799 -0.7614
  808TIP3   OH223914   6.295   0.650   3.865 -0.0933 -0.0912 -0.1982
  808TIP3    H123915   6.263   0.566   3.834  1.5068 -0.8080  0.0282
  808TIP3    H223916   6.377   0.664   3.816  0.2246  0.8053  0.5660
  809TIP3   OH223917   2.855   5.277   5.370  0.0547  0.0805  0.2201
  809TIP3    H123918   2.819   5.255   5.456  0.3867 -0.5375  0.2067
  809TIP3    H223919   2.781   5.314   5.322 -0.2793 -0.1184  0.5740
  810TIP3   OH223920   0.577   1.773  14.181 -0.1547  0.2130  0.2305
  810TIP3    H123921   0.535   1.788  14.265 -0.9008 -1.6801  0.2253
  810TIP3    H223922   0.507   1.742  14.124  0.5423  0.5138 -0.8218
  811TIP3   OH223923   0.941   3.814   2.690  0.0001  0.4287  0.0871
  811TIP3    H123924   0.895   3.853   2.616  0.9303  0.4087 -0.5117
  811TIP3    H223925   0.896   3.848   2.767 -0.0583  1.6186 -0.4636
  812TIP3   OH223926   1.394   1.769   6.323  0.1230  0.0387 -0.3548
  812TIP3    H123927   1.472   1.823   6.312 -0.7954  1.2062 -1.2537
  812TIP3    H223928   1.428   1.681   6.343  1.6447  0.5819 -0.5017
  813TIP3   OH223929   5.789   3.015   5.795 -0.0724 -0.3499  0.1731
  813TIP3    H123930   5.790   2.999   5.889  0.3486 -0.1272  0.2057
  813TIP3    H223931   5.876   2.988   5.765 -0.1912 -0.3815 -0.1441
  814TIP3   OH223932   1.113   4.812   5.123  0.0921 -0.3703  0.3073
  814TIP3    H123933   1.050   4.843   5.059 -1.9035 -1.5796  1.6449
  814TIP3    H223934   1.182   4.879   5.122 -1.2904  1.0916 -1.0156
  815TIP3   OH223935   2.658   4.495   1.280 -0.2375  0.1401  0.5290
  815TIP3    H123936   2.709   4.417   1.258 -1.4736 -0.8024  0.9937
  815TIP3    H223937   2.659   4.547   1.200 -0.2955 -0.8344 -0.1139
  816TIP3   OH223938   4.301   0.452  16.566 -0.1035 -0.5988  0.3427
  816TIP3    H123939   4.224   0.436  16.622 -2.2160  1.7094 -1.7684
  816TIP3    H223940   4.336   0.536  16.597 -0.9412  0.4023 -1.3521
  817TIP3   OH223941   1.471   0.571  12.566 -0.2220  0.0798  0.2459
  817TIP3    H123942   1.471   0.666  12.563  0.0190  0.1188  1.2781
  817TIP3    H223943   1.400   0.548  12.626  1.3002 -0.2995  1.9582
  818TIP3   OH223944   5.694   1.819  13.822  0.0399 -0.2852 -0.0635
  818TIP3    H123945   5.783   1.842  13.794 -0.1504 -1.4574 -1.7137
  818TIP3    H223946   5.642   1.896  13.799  0.3622 -0.1959 -0.5093
  819TIP3   OH223947   6.031   5.512   0.641  0.1856 -0.0287 -0.2455
  819TIP3    H123948   5.972   5.576   0.602  0.7801  0.8294  0.2744
  819TIP3    H223949   5.977   5.468   0.708  0.1775  0.8642  0.3435
  820TIP3   OH223950   6.267   0.668  15.176 -0.5465 -0.2484 -0.0405
  820TIP3    H123951   6.214   0.691  15.252  2.2193  3.6346  0.8448
  820TIP3    H223952   6.340   0.618  15.212 -0.0143  0.3164 -0.3241
  821TIP3   OH223953   3.834   5.892   3.059 -0.2521  0.5915 -0.4118
  821TIP3    H123954   3.909   5.833   3.061  0.1368  1.0924  0.0401
  821TIP3    H223955   3.780   5.860   2.987  0.0012 -0.2506 -0.2340
  822TIP3   OH223956   3.248   1.886  13.568 -0.1501  0.0040  0.0445
  822TIP3    H123957   3.177   1.908  13.508  0.1624  0.7892 -0.0393
  822TIP3    H223958   3.222   1.802  13.607  0.5274 -1.4661 -2.5607
  823TIP3   OH223959   4.990   2.681   5.996 -0.2420 -1.1303  0.2430
  823TIP3    H123960   5.002   2.732   5.916 -1.1614 -0.8530  0.2804
  823TIP3    H223961   5.075   2.685   6.040 -0.3526  0.4828  0.3156
  824TIP3   OH223962   1.849   2.634  12.494 -0.1374 -0.2603  0.3231
  824TIP3    H123963   1.769   2.686  12.482  0.6173  1.1276  1.1891
  824TIP3    H223964   1.905   2.659  12.421 -0.5729 -1.3929 -0.4032
  825TIP3   OH223965   0.225   0.993  16.039 -0.0806  0.0072 -0.0210
  825TIP3    H123966   0.229   1.016  15.947  0.2440  1.5632  0.3763
  825TIP3    H223967   0.177   1.064  16.080  1.4853  0.3208  1.3203
  826TIP3   OH223968   2.918   2.054  12.739 -0.7824  0.0735 -0.2122
  826TIP3    H123969   2.849   2.033  12.676 -1.6503 -1.2193  1.1336
  826TIP3    H223970   2.885   2.131  12.786 -0.5632  0.4709 -0.7206
  827TIP3   OH223971   1.557   2.177   0.921 -0.5285  1.1475  0.2951
  827TIP3    H123972   1.603   2.261   0.921  1.7797 -0.0955  0.0440
  827TIP3    H223973   1.616   2.117   0.966 -2.3953 -0.2370  0.9580
  828TIP3   OH223974   5.729   2.535  16.151 -0.2367  0.1927 -0.0090
  828TIP3    H123975   5.750   2.462  16.091  0.7163 -0.0943  0.6518
  828TIP3    H223976   5.685   2.599  16.096  1.1231  0.1698 -1.1741
  829TIP3   OH223977   5.356   5.825  17.066 -0.2574 -0.4929  0.3097
  829TIP3    H123978   5.434   5.770  17.077  0.7191  0.6823 -0.5346
  829TIP3    H223979   5.287   5.764  17.041  0.3150 -1.5917  1.3325
  830TIP3   OH223980   2.157   0.511  10.751  0.2745  0.4192 -0.2812
  830TIP3    H123981   2.149   0.606  10.760 -0.9619  0.1523  1.5654
  830TIP3    H223982   2.236   0.489  10.801  0.2263  0.4063 -0.2097
  831TIP3   OH223983   0.114   1.673   5.820  0.1202  0.0735 -0.0621
  831TIP3    H123984   0.071   1.662   5.735 -1.1957  1.1879  0.4181
  831TIP3    H223985   0.051   1.725   5.871  1.0994 -0.1753  1.4257
  832TIP3   OH223986   5.157   5.934  11.880  0.2202  0.1437  0.1830
  832TIP3    H123987   5.121   5.876  11.947 -1.1236 -0.5356 -1.0888
  832TIP3    H223988   5.080   5.964  11.831  1.2671 -0.4747 -1.9119
  833TIP3   OH223989   3.387   6.032  13.357  0.0253  0.2296  0.0789
  833TIP3    H123990   3.332   6.110  13.363 -1.1999 -0.5991 -0.2053
  833TIP3    H223991   3.461   6.051  13.413 -0.8078  1.1570  0.8852
  834TIP3   OH223992   6.725   6.440   5.161  0.8492 -0.1175 -0.2246
  834TIP3    H123993   6.777   6.384   5.219  0.2650  0.4040  0.8082
  834TIP3    H223994   6.720   6.523   5.208 -0.3754  0.0305 -0.6237
  835TIP3   OH223995   1.471   4.451  11.399  0.0022  0.4424  0.1300
  835TIP3    H123996   1.551   4.404  11.379 -0.8369 -0.4433 -1.1991
  835TIP3    H223997   1.454   4.432  11.491  1.3720  0.7214  0.4392
  836TIP3   OH223998   0.090   2.075   0.079 -0.3491 -0.8886  0.4705
  836TIP3    H123999   0.142   2.011   0.031  0.1709 -1.6152  1.9539
  836TIP3    H224000   0.155   2.131   0.122 -0.7682 -1.6156  2.0883
  837TIP3   OH224001   4.945   2.983  14.090  0.6609  0.0230  0.4899
  837TIP3    H124002   4.999   2.981  14.011  0.2012 -1.4372  0.1856
  837TIP3    H224003   4.946   2.892  14.121 -1.4250  0.0099  0.5981
  838TIP3   OH224004   1.034   3.184   1.170  0.1567 -0.7431 -0.0023
  838TIP3    H124005   1.005   3.186   1.261 -0.1814 -0.1676 -0.1201
  838TIP3    H224006   1.021   3.093   1.143 -0.9397 -0.6341  0.1419
  839TIP3   OH224007   4.905   1.293  11.583  0.3191 -0.8110 -0.3555
  839TIP3    H124008   4.835   1.293  11.649  1.0791  1.4683  0.5139
  839TIP3    H224009   4.861   1.272  11.501 -0.9588 -1.8368  0.5788
  840TIP3   OH224010   1.462   5.960  12.862 -0.1820  0.1374 -0.1416
  840TIP3    H124011   1.557   5.958  12.850 -0.2775 -1.1944 -0.8177
  840TIP3    H224012   1.450   5.969  12.957  0.6261 -0.1827 -0.0038
  841TIP3   OH224013   5.983   4.464   2.438 -0.0554 -0.2131  0.0414
  841TIP3    H124014   6.034   4.528   2.488  0.8266 -1.6179  0.9874
  841TIP3    H224015   5.926   4.517   2.383  1.9069  1.4060 -0.5133
  842TIP3   OH224016   1.824   4.010   2.911 -0.4317 -0.2752 -0.1906
  842TIP3    H124017   1.852   4.101   2.920  1.0216 -0.6348 -1.0126
  842TIP3    H224018   1.809   3.981   3.001 -0.0383  0.5020  0.1266
  843TIP3   OH224019   4.169   5.812   5.650 -0.6301  0.2896 -0.0183
  843TIP3    H124020   4.212   5.859   5.722  1.1329 -1.2767 -0.0073
  843TIP3    H224021   4.101   5.760   5.692 -0.4354  0.3451  0.3686
  844TIP3   OH224022   1.264   6.687   4.242 -0.4735 -0.3620  0.7588
  844TIP3    H124023   1.341   6.717   4.291  0.2550  1.3637 -1.3609
  844TIP3    H224024   1.300   6.657   4.159 -2.1686  1.2669 -0.5962
  845TIP3   OH224025   6.138   2.275   2.853 -0.0807  0.0737  0.0685
  845TIP3    H124026   6.195   2.347   2.879 -1.0364  1.5170 -1.7018
  845TIP3    H224027   6.053   2.295   2.893  0.5780 -2.0475  2.6657
  846TIP3   OH224028   1.228   5.997   4.564 -0.4500  0.4341  0.4819
  846TIP3    H124029   1.254   5.908   4.587  0.1992  0.7480  0.9822
  846TIP3    H224030   1.139   6.006   4.599 -1.3061 -0.6628 -1.2919
  847TIP3   OH224031   4.757   0.403   4.036 -0.5172  0.1309 -0.1855
  847TIP3    H124032   4.800   0.382   4.118 -0.3534  1.7610  0.1603
  847TIP3    H224033   4.827   0.402   3.971 -0.6195 -0.9996 -0.2857
  848TIP3   OH224034   5.522   4.176  17.242  0.6711 -0.3392 -0.2620
  848TIP3    H124035   5.457   4.240  17.214  1.4035  1.4163  1.8991
  848TIP3    H224036   5.517   4.177  17.337  2.2468 -1.8828 -0.1364
  849TIP3   OH224037   4.023   3.462  11.910  0.0493  0.0230  0.0807
  849TIP3    H124038   4.093   3.447  11.973 -0.2523 -0.8536  0.2151
  849TIP3    H224039   3.956   3.397  11.933 -1.2240  1.4879  0.5708
  850TIP3   OH224040   1.031   2.678   2.892 -0.7587  0.2628 -0.2055
  850TIP3    H124041   0.964   2.630   2.842  0.8080 -1.2613 -0.8851
  850TIP3    H224042   1.000   2.768   2.892 -2.2016 -0.1958 -1.5524
  851TIP3   OH224043   2.368   3.765   0.883  0.3339 -0.0223  0.0383
  851TIP3    H124044   2.387   3.786   0.791 -1.5049  0.4555 -0.2501
  851TIP3    H224045   2.335   3.675   0.880  0.9905 -0.2830  0.3510
  852TIP3   OH224046   3.073   3.411   3.097  0.1044 -0.6329 -0.5401
  852TIP3    H124047   3.002   3.444   3.153 -1.7404 -2.2745 -1.8317
  852TIP3    H224048   3.116   3.490   3.065  0.1663  0.3612  1.8682
  853TIP3   OH224049   3.823   0.540  12.082 -0.3446 -0.2875  0.2267
  853TIP3    H124050   3.791   0.546  12.173 -0.2537 -0.6298  0.2803
  853TIP3    H224051   3.907   0.584  12.084 -0.7498  0.5042  0.1107
  854TIP3   OH224052   2.695   2.836  11.324 -0.0540  0.0693  0.1227
  854TIP3    H124053   2.789   2.850  11.331  0.0009  0.4796 -1.4160
  854TIP3    H224054   2.685   2.774  11.252 -0.8832 -0.9614  1.1070
  855TIP3   OH224055   5.200   1.505   3.137  0.3047 -0.1955 -0.0583
  855TIP3    H124056   5.216   1.589   3.095 -0.3129  0.9692  1.9787
  855TIP3    H224057   5.108   1.485   3.116  0.0051  0.3717  0.6763
  856TIP3   OH224058   6.171   4.110  14.080  0.2121  0.5192  0.1442
  856TIP3    H124059   6.258   4.088  14.113  0.3913  2.0817  0.7882
  856TIP3    H224060   6.148   4.191  14.126 -1.9616 -0.3391  0.6532
  857TIP3   OH224061   0.784   1.795   1.362  0.2495 -0.0002 -0.2295
  857TIP3    H124062   0.859   1.768   1.416 -0.0778  1.5559  1.0291
  857TIP3    H224063   0.793   1.743   1.283  2.5666 -0.0051 -0.0244
  858TIP3   OH224064   1.952   2.993  12.354  0.1327  0.2560 -0.1042
  858TIP3    H124065   1.860   3.010  12.337 -0.2227 -0.4259  1.1076
  858TIP3    H224066   1.996   3.076  12.332 -0.7886  0.6742 -0.3940
  859TIP3   OH224067   1.595   4.433   4.143  0.4713  0.1369  0.1913
  859TIP3    H124068   1.502   4.423   4.161  0.6636 -0.2807  0.9973
  859TIP3    H224069   1.636   4.361   4.192  1.0807 -0.5839 -1.3708
  860TIP3   OH224070   0.018   6.205  13.342 -0.0494  0.1660  0.3781
  860TIP3    H124071  -0.010   6.283  13.295 -0.3520 -0.3697 -0.3421
  860TIP3    H224072   0.113   6.215  13.353  0.3239 -0.5159 -1.9028
  861TIP3   OH224073   0.374   3.855   2.304 -0.0435  0.0008 -0.0665
  861TIP3    H124074   0.409   3.944   2.303  1.0936 -0.4444 -2.4803
  861TIP3    H224075   0.379   3.828   2.396  1.0915  1.8461  0.4306
  862TIP3   OH224076   3.836   1.296   3.265 -0.1655  0.0599  0.9263
  862TIP3    H124077   3.910   1.343   3.303 -0.2284  3.6521 -3.0131
  862TIP3    H224078   3.874   1.215   3.231  1.2259  0.1931  2.1122
  863TIP3   OH224079   5.022   0.529   3.330  0.0306  0.4877  0.0290
  863TIP3    H124080   5.021   0.617   3.291 -1.6979 -0.0538 -1.2461
  863TIP3    H224081   4.978   0.540   3.414 -0.0092  0.9004 -0.0445
  864TIP3   OH224082   5.766   0.446   2.618  0.0416  0.0531  0.1990
  864TIP3    H124083   5.794   0.401   2.539  0.2967  0.0714  0.2776
  864TIP3    H224084   5.815   0.528   2.617  0.2567 -0.0704  0.5198
  865TIP3   OH224085   0.288   3.732  14.350  0.0702 -0.2643 -0.3637
  865TIP3    H124086   0.287   3.815  14.396  2.0249  0.0496 -0.8156
  865TIP3    H224087   0.224   3.742  14.280  0.1982  0.8224 -0.3353
  866TIP3   OH224088   4.309   2.108  16.336  0.4061  0.4895 -0.0742
  866TIP3    H124089   4.405   2.109  16.337  0.4655 -1.8411 -0.3199
  866TIP3    H224090   4.287   2.087  16.245 -0.3461  0.6597  0.0693
  867TIP3   OH224091   3.984   0.622   3.092 -0.0055 -0.1501 -0.0731
  867TIP3    H124092   3.903   0.625   3.042  1.2210 -0.0728 -2.1387
  867TIP3    H224093   4.025   0.707   3.077  0.5652 -0.2658  0.7683
  868TIP3   OH224094   0.827   1.603  11.528 -0.0612  0.3402 -0.5988
  868TIP3    H124095   0.744   1.649  11.531  0.0458  0.4767  2.0960
  868TIP3    H224096   0.814   1.526  11.583  2.1380  1.3999  1.5224
  869TIP3   OH224097   2.918   0.025  14.611 -0.3452  0.0573 -0.0187
  869TIP3    H124098   2.879   0.052  14.695 -0.3559  0.7734 -0.2459
  869TIP3    H224099   2.945  -0.065  14.625  0.1257  0.3351  0.9293
  870TIP3   OH224100   1.794   3.643   3.518  0.0799 -0.0145  0.2161
  870TIP3    H124101   1.798   3.575   3.586 -0.3711  0.8724  1.1456
  870TIP3    H224102   1.885   3.657   3.493  0.0791 -1.8093 -0.8372
  871TIP3   OH224103   0.395   2.878   4.812  0.9055  0.2158  0.2388
  871TIP3    H124104   0.373   2.790   4.782  1.3358 -0.3259  1.4954
  871TIP3    H224105   0.489   2.876   4.828  0.6945  0.5246  1.5341
  872TIP3   OH224106   5.011   0.143   4.213 -0.3122  0.3984 -0.2692
  872TIP3    H124107   5.105   0.159   4.205  0.0241 -0.9341  0.8412
  872TIP3    H224108   4.986   0.186   4.295  0.0048 -2.0792  1.1605
  873TIP3   OH224109   6.750   0.187  12.498  0.3631  0.0412  0.6438
  873TIP3    H124110   6.656   0.199  12.506  0.5105  1.0104  0.9192
  873TIP3    H224111   6.769   0.111  12.554 -0.2928 -0.3511  0.3401
  874TIP3   OH224112   1.050   6.144  16.207 -0.1868  0.1637  0.0595
  874TIP3    H124113   0.964   6.176  16.177 -0.5411 -0.4345  0.4320
  874TIP3    H224114   1.061   6.060  16.163  0.1446  0.1686  0.1297
  875TIP3   OH224115   3.145   0.422  12.493  0.7760 -0.3997 -0.2339
  875TIP3    H124116   3.067   0.381  12.455 -0.2437  0.3290  1.0591
  875TIP3    H224117   3.152   0.506  12.448 -0.0960  0.2139  0.7832
  876TIP3   OH224118   4.526   5.048   0.134 -0.0186  0.2589  0.1078
  876TIP3    H124119   4.614   5.017   0.157  0.6767  1.8110 -0.3777
  876TIP3    H224120   4.517   5.025   0.041 -0.1138  0.1137  0.1537
  877TIP3   OH224121   5.788   2.732  16.480  0.1113  0.0227 -0.1820
  877TIP3    H124122   5.773   2.667  16.548 -0.5305  1.1297  0.7571
  877TIP3    H224123   5.834   2.685  16.411  1.4196 -0.9375  1.3256
  878TIP3   OH224124   0.809   3.116  11.701 -0.0612 -0.7121  0.1011
  878TIP3    H124125   0.747   3.164  11.647  0.3381 -1.8016 -1.3630
  878TIP3    H224126   0.787   3.024  11.685  1.2585 -1.0774  0.3899
  879TIP3   OH224127   2.013   6.713  16.491  0.0735  0.0948  0.0480
  879TIP3    H124128   1.966   6.717  16.574 -0.2802 -0.2720 -0.1328
  879TIP3    H224129   1.951   6.672  16.430 -0.3248  1.9135 -0.8243
  880TIP3   OH224130   5.318   3.962   4.217 -0.2397 -0.1473 -0.2441
  880TIP3    H124131   5.391   3.985   4.274 -0.2286 -1.9455  0.4910
  880TIP3    H224132   5.358   3.916   4.144 -0.7324 -2.4700  0.8951
  881TIP3   OH224133   2.353   3.647  17.222 -0.0252 -0.0066  0.0351
  881TIP3    H124134   2.309   3.631  17.305  1.2904  1.6942  1.0972
  881TIP3    H224135   2.370   3.560  17.187  1.3284 -0.8246  2.5997
  882TIP3   OH224136   5.933   0.314   5.209  0.4803  0.2664 -0.2600
  882TIP3    H124137   5.921   0.316   5.114 -1.4283  0.3241 -0.0439
  882TIP3    H224138   5.913   0.224   5.233 -0.8660  0.7072  0.2952
  883TIP3   OH224139   3.379   5.045   2.884 -0.5313 -0.0263 -0.0821
  883TIP3    H124140   3.467   5.027   2.850 -1.2453  0.0234 -2.0392
  883TIP3    H224141   3.347   4.960   2.912  0.8042  0.2277  2.3665
  884TIP3   OH224142   4.769   3.317   2.509  0.1367 -0.3192  0.3692
  884TIP3    H124143   4.793   3.295   2.419  1.8828 -0.7197  0.9121
  884TIP3    H224144   4.815   3.252   2.563 -0.0063  0.5824  1.6031
  885TIP3   OH224145   6.110   1.905   4.225  0.2579 -0.1770  0.6186
  885TIP3    H124146   6.159   1.837   4.178  0.1614 -0.1344  0.4567
  885TIP3    H224147   6.068   1.858   4.297  1.7172  0.0344  1.6319
  886TIP3   OH224148   6.761   1.066  15.715 -0.4835 -0.0650 -0.0994
  886TIP3    H124149   6.670   1.095  15.709 -1.3901 -2.8426 -0.7691
  886TIP3    H224150   6.761   1.001  15.785  1.3804  1.1887  1.0977
  887TIP3   OH224151   2.616   5.449  14.086 -0.4222  0.3477 -0.2473
  887TIP3    H124152   2.589   5.410  14.169  1.8389 -1.6729 -0.4285
  887TIP3    H224153   2.568   5.400  14.020 -0.8410  0.7396 -0.2325
  888TIP3   OH224154   5.595   0.571   0.111 -1.1558  0.6234  0.1106
  888TIP3    H124155   5.517   0.522   0.087  0.4656 -2.8359  1.4459
  888TIP3    H224156   5.654   0.562   0.036 -0.1855 -1.0360  1.0430
  889TIP3   OH224157   5.583   3.367   4.813 -0.2281 -0.4955  0.1512
  889TIP3    H124158   5.511   3.418   4.850 -0.1663 -0.6332  0.4622
  889TIP3    H224159   5.596   3.295   4.874 -0.3755 -0.9416 -0.3368
  890TIP3   OH224160   0.035   1.850   5.403 -0.3027  0.4781  0.1990
  890TIP3    H124161  -0.029   1.916   5.429 -0.7880  1.7291 -3.8646
  890TIP3    H224162   0.120   1.896   5.409 -0.1769  0.1239  1.4117
  891TIP3   OH224163   0.137   0.059   2.213  0.1644  0.2760 -0.2037
  891TIP3    H124164   0.208   0.001   2.187  0.5371  0.8349 -0.4403
  891TIP3    H224165   0.072   0.050   2.143 -0.6798 -1.3732  0.7511
  892TIP3   OH224166   5.654   1.793   1.848  0.1247 -0.5734 -0.7191
  892TIP3    H124167   5.744   1.826   1.853  0.0033 -0.3011 -0.3000
  892TIP3    H224168   5.618   1.832   1.768 -0.2240  0.8395  0.1081
  893TIP3   OH224169   0.861   0.892   4.401  0.1554 -0.7967 -0.4022
  893TIP3    H124170   0.834   0.981   4.423 -2.3246 -1.2426 -1.5030
  893TIP3    H224171   0.839   0.841   4.479 -1.4664 -1.0088 -0.9854
  894TIP3   OH224172   2.884   5.711  14.151  0.9074  0.6706  0.1901
  894TIP3    H124173   2.814   5.647  14.143  0.0260  1.8752 -2.1709
  894TIP3    H224174   2.905   5.711  14.244 -1.9860  0.0198  0.9061
  895TIP3   OH224175   5.060   5.831  16.505 -0.2522  0.0568  0.4339
  895TIP3    H124176   4.995   5.901  16.509  0.4601  0.7629 -0.2489
  895TIP3    H224177   5.008   5.750  16.499 -1.0582  0.6127 -0.0930
  896TIP3   OH224178   3.716   1.711   4.384  0.2940 -0.5952 -0.2586
  896TIP3    H124179   3.811   1.720   4.387  0.0746  1.9415 -0.0349
  896TIP3    H224180   3.694   1.663   4.464  1.4192 -1.5648 -0.5322
  897TIP3   OH224181   2.711   6.806  17.097  0.3891  0.8462  0.4802
  897TIP3    H124182   2.722   6.730  17.153 -1.9324  0.1282  0.0088
  897TIP3    H224183   2.623   6.796  17.060  1.4260  1.8973 -2.3673
  898TIP3   OH224184   2.356   1.168   5.722  0.1986 -0.4161  0.3429
  898TIP3    H124185   2.414   1.232   5.763  0.5140  0.4316 -1.3726
  898TIP3    H224186   2.413   1.117   5.664 -0.8239  0.8137 -1.8165
  899TIP3   OH224187   5.736   3.292  14.325 -0.7466  0.2085 -0.3930
  899TIP3    H124188   5.651   3.320  14.293  0.1935  1.5669 -1.7554
  899TIP3    H224189   5.749   3.341  14.406 -0.6799  0.9984 -0.8843
  900TIP3   OH224190   3.937   6.543   0.303 -0.3293  0.5913  0.7747
  900TIP3    H124191   3.903   6.549   0.214 -0.1135 -1.0672  0.5748
  900TIP3    H224192   4.012   6.601   0.305 -1.2025  1.7551  0.2939
  901TIP3   OH224193   6.109   4.272  11.827 -0.6256  0.0014 -0.2710
  901TIP3    H124194   6.132   4.180  11.815  1.5791  0.4498  0.1560
  901TIP3    H224195   6.030   4.285  11.775 -1.5616 -2.3670  0.5003
  902TIP3   OH224196   2.003   0.191  15.647  0.1596  0.2756 -0.2853
  902TIP3    H124197   2.082   0.158  15.605 -0.4820  0.2054 -1.4633
  902TIP3    H224198   2.034   0.261  15.705  1.1476 -0.1749 -0.2567
  903TIP3   OH224199   2.769   6.170  12.799  0.4585 -0.6653 -0.2414
  903TIP3    H124200   2.726   6.104  12.854 -0.8249 -0.0925 -0.5483
  903TIP3    H224201   2.859   6.172  12.831 -0.1876 -0.5668  1.6552
  904TIP3   OH224202   4.442   0.635   5.725  0.1828  0.9177 -0.0032
  904TIP3    H124203   4.518   0.677   5.684  0.5650  1.8156  1.5661
  904TIP3    H224204   4.379   0.625   5.654  1.4427  0.9399 -1.1473
  905TIP3   OH224205   3.518   1.699  13.956  0.2333  0.0151  0.1400
  905TIP3    H124206   3.473   1.614  13.957 -0.6353  0.4519 -0.8833
  905TIP3    H224207   3.455   1.759  13.917  1.3383  0.8589 -0.3713
  906TIP3   OH224208   5.176   5.245  12.426  0.0371  0.0375 -0.1470
  906TIP3    H124209   5.130   5.197  12.357 -2.3477  0.9623  0.7443
  906TIP3    H224210   5.220   5.177  12.476  2.8304 -0.5652 -3.2399
  907TIP3   OH224211   4.466   4.289   0.170 -0.0446 -0.0187 -0.2839
  907TIP3    H124212   4.445   4.343   0.094 -0.9022 -1.1597 -0.8674
  907TIP3    H224213   4.388   4.292   0.225  0.9989  1.7774  1.1661
  908TIP3   OH224214   4.031   4.437  13.128  0.2063  0.5734 -0.2710
  908TIP3    H124215   4.041   4.343  13.112  0.1179  0.7258 -1.2679
  908TIP3    H224216   3.940   4.448  13.154  1.1956 -0.1432  3.8457
  909TIP3   OH224217   4.580   1.664  15.455  0.0659 -0.2304 -0.0888
  909TIP3    H124218   4.499   1.656  15.504 -0.2412 -0.4071 -0.6282
  909TIP3    H224219   4.629   1.733  15.500 -0.6802  0.3612 -0.1805
  910TIP3   OH224220   2.653   2.548  15.588  0.0412  0.1591  0.5113
  910TIP3    H124221   2.727   2.585  15.637  0.4333  0.6174 -0.4111
  910TIP3    H224222   2.670   2.453  15.588  1.4632  0.3990 -1.0295
  911TIP3   OH224223   3.199   1.499  12.903 -0.5482 -0.2693 -0.3301
  911TIP3    H124224   3.110   1.528  12.885 -1.0286 -1.2136  0.4501
  911TIP3    H224225   3.190   1.440  12.978  0.6561 -0.8580 -0.6368
  912TIP3   OH224226   3.192   3.552   5.202  0.0403  0.4195 -0.4418
  912TIP3    H124227   3.234   3.620   5.149  0.7295  1.1896  1.0511
  912TIP3    H224228   3.241   3.473   5.182 -0.6493  0.3853 -2.0611
  913TIP3   OH224229   3.882   4.609  11.741  0.2637 -0.3074  0.1931
  913TIP3    H124230   3.937   4.616  11.820  0.2701 -1.5571  0.3059
  913TIP3    H224231   3.828   4.688  11.743  0.1144 -0.4291  1.5742
  914TIP3   OH224232   2.323   1.520  15.128 -0.0555 -0.2936 -0.4427
  914TIP3    H124233   2.296   1.611  15.117 -0.0438 -0.6199 -3.5415
  914TIP3    H224234   2.358   1.516  15.217 -2.0954  2.1846  0.5318
  915TIP3   OH224235   5.929   3.378   1.638 -0.0912 -1.0065  0.5199
  915TIP3    H124236   5.861   3.445   1.646 -0.6603 -1.4258 -0.5913
  915TIP3    H224237   6.011   3.427   1.640 -0.5104 -0.2415 -0.5006
  916TIP3   OH224238   3.760   5.735   3.493  0.6145  0.5166 -0.0271
  916TIP3    H124239   3.850   5.769   3.494  0.4111  1.0616  2.2595
  916TIP3    H224240   3.705   5.814   3.493  0.1318  0.1791 -0.4023
  917TIP3   OH224241   5.675   4.760   0.092  0.4688  0.2244 -0.0775
  917TIP3    H124242   5.685   4.666   0.079  1.1157  0.5875 -2.4274
  917TIP3    H224243   5.732   4.799   0.026  0.3905  2.2692  1.0350
  918TIP3   OH224244   6.054   2.414   6.694  0.2741  0.2563 -0.9804
  918TIP3    H124245   5.985   2.410   6.628 -0.1081  1.0301 -0.6351
  918TIP3    H224246   6.092   2.327   6.695  1.1565  0.5993 -3.1602
  919TIP3   OH224247   1.225   0.435  12.721 -0.7795  0.1495 -0.3803
  919TIP3    H124248   1.211   0.447  12.815  1.0653  1.4104 -0.2284
  919TIP3    H224249   1.258   0.345  12.713 -2.0844 -0.3680  0.0366
  920TIP3   OH224250   5.850   3.766   3.391 -0.4531  0.5440  0.1700
  920TIP3    H124251   5.826   3.679   3.359 -1.8615  0.3833  1.5872
  920TIP3    H224252   5.913   3.749   3.462 -1.4564  0.6192  1.0894
  921TIP3   OH224253   5.053   0.426   4.427 -0.5740 -0.0828 -0.3726
  921TIP3    H124254   5.012   0.364   4.488 -0.0765 -0.5322 -0.4878
  921TIP3    H224255   5.032   0.512   4.462  0.5665 -0.3418  1.0315
  922TIP3   OH224256   2.003   5.432   3.660  0.0302  0.1210  0.4701
  922TIP3    H124257   2.098   5.442   3.663  0.1811 -1.4389  1.5123
  922TIP3    H224258   1.972   5.474   3.740 -0.2576  1.5651 -0.3929
  923TIP3   OH224259   5.920   0.143   0.066 -0.7447  0.2060  0.3732
  923TIP3    H124260   5.873   0.176  -0.012 -1.1899 -0.4776  0.3448
  923TIP3    H224261   5.850   0.123   0.129 -0.4288  0.0965  0.6893
  924TIP3   OH224262   1.568   3.159  15.446 -0.3616 -0.2036 -0.1077
  924TIP3    H124263   1.558   3.143  15.540 -0.6254 -0.1016 -0.1183
  924TIP3    H224264   1.657   3.195  15.438 -0.2993 -0.3120  0.0885
  925TIP3   OH224265   6.001   5.066  13.265  0.2861 -0.4987  0.6867
  925TIP3    H124266   6.094   5.083  13.256 -0.1605  1.4421 -0.5255
  925TIP3    H224267   5.973   5.038  13.178 -0.2903 -0.8838  0.9955
  926TIP3   OH224268   1.672   3.415   5.616  0.3443 -0.1018 -0.5008
  926TIP3    H124269   1.710   3.376   5.695  0.0864  0.3492 -0.1567
  926TIP3    H224270   1.748   3.436   5.562  0.5945  0.9129  0.2382
  927TIP3   OH224271   2.659   6.194   1.446 -0.0855  0.0135 -0.2503
  927TIP3    H124272   2.596   6.123   1.456 -1.2437  0.9949 -0.4902
  927TIP3    H224273   2.710   6.170   1.369  0.2734 -1.1119  0.3327
  928TIP3   OH224274   5.995   6.635  15.809  0.1250  0.1121 -0.1853
  928TIP3    H124275   5.931   6.604  15.873  1.0771  0.5045  0.9812
  928TIP3    H224276   6.079   6.603  15.842  0.5887  0.0676 -1.4026
  929TIP3   OH224277   1.979   6.640   0.719 -0.0848  0.1536  0.0785
  929TIP3    H124278   1.956   6.703   0.788 -1.5577 -0.1139 -0.1353
  929TIP3    H224279   1.916   6.569   0.730  1.0805 -0.9304 -0.1676
  930TIP3   OH224280   3.872   2.110  11.757  0.6396  0.4311  0.1208
  930TIP3    H124281   3.792   2.084  11.710  0.2015 -0.2441  1.2217
  930TIP3    H224282   3.891   2.036  11.814  0.8002  1.4980  1.4804
  931TIP3   OH224283   5.690   4.489   0.097  0.3922 -0.0321 -0.1770
  931TIP3    H124284   5.710   4.400   0.067  0.8547  0.4070 -1.2033
  931TIP3    H224285   5.604   4.482   0.138  1.2838 -1.3601  1.5599
  932TIP3   OH224286   0.495   2.320   1.892 -0.1513  0.1214  0.1378
  932TIP3    H124287   0.535   2.392   1.842  0.7942 -1.1777 -1.0164
  932TIP3    H224288   0.558   2.303   1.962  0.7624 -1.0909 -0.9464
  933TIP3   OH224289   1.089   3.512   2.414 -0.6358  0.1967 -0.1641
  933TIP3    H124290   1.033   3.572   2.366  4.3259  2.6870 -3.1596
  933TIP3    H224291   1.117   3.561   2.492  1.1474  0.7753 -1.1469
  934TIP3   OH224292   1.327   5.029  17.059 -1.0030 -0.0175 -0.5758
  934TIP3    H124293   1.351   4.973  16.985  1.3118  0.1348  0.0045
  934TIP3    H224294   1.274   4.974  17.116  0.3639 -1.3111 -0.5280
  935TIP3   OH224295   0.027   4.739  13.192 -0.5688 -0.4748  0.5613
  935TIP3    H124296  -0.001   4.726  13.283 -0.2460 -1.4421  0.5306
  935TIP3    H224297  -0.048   4.710  13.140 -0.6749 -0.1203  0.5175
  936TIP3   OH224298   4.257   1.974  11.838 -0.4534 -0.1546  0.4696
  936TIP3    H124299   4.207   2.001  11.761  0.9223  0.2425 -0.3040
  936TIP3    H224300   4.209   2.011  11.912 -0.7649  1.0664 -0.3179
  937TIP3   OH224301   3.098   6.437  16.833 -0.4194 -0.6388  0.0236
  937TIP3    H124302   3.124   6.474  16.748  0.5494 -0.9152  0.1922
  937TIP3    H224303   3.069   6.348  16.813 -2.4982  0.0961 -0.3450
  938TIP3   OH224304   0.270   0.624  12.389 -0.8589 -0.3273  0.3112
  938TIP3    H124305   0.192   0.572  12.409  0.0368 -1.9298 -0.3167
  938TIP3    H224306   0.339   0.584  12.441  0.0700 -0.4485 -1.0017
  939TIP3   OH224307   6.115   3.972  16.885  0.0455 -0.5597 -0.2460
  939TIP3    H124308   6.130   4.003  16.974  1.3993 -1.2129 -0.2391
  939TIP3    H224309   6.056   4.037  16.847 -1.2074 -0.7106  1.3707
  940TIP3   OH224310   6.275   0.897   4.081 -0.0492  0.0198  0.7660
  940TIP3    H124311   6.264   0.837   4.007 -1.3969 -0.2582  1.1687
  940TIP3    H224312   6.357   0.869   4.122 -0.4680 -1.3321  0.7255
  941TIP3   OH224313   0.017   5.216   6.147 -0.2602  0.3056 -0.3040
  941TIP3    H124314   0.040   5.156   6.076 -0.6964  0.7137 -0.7936
  941TIP3    H224315   0.095   5.218   6.203 -0.0884 -0.3893 -0.5116
  942TIP3   OH224316   0.812   0.418   3.368 -0.1257 -0.0019  0.1758
  942TIP3    H124317   0.889   0.366   3.346  0.7697 -0.0397  3.2573
  942TIP3    H224318   0.776   0.443   3.283  2.3165 -1.3758 -1.3318
  943TIP3   OH224319   2.967   3.581  12.695 -0.1592  0.5163 -0.1764
  943TIP3    H124320   2.912   3.552  12.767  1.2695 -1.8040  0.0407
  943TIP3    H224321   3.056   3.553  12.719  0.7402  1.9833 -1.6415
  944TIP3   OH224322   3.946   5.250  11.825  0.2197  0.5158 -0.7597
  944TIP3    H124323   3.901   5.167  11.806  2.7872 -1.1823  0.3372
  944TIP3    H224324   3.979   5.278  11.740  1.3321 -0.8091 -0.7852
  945TIP3   OH224325   4.622   3.783   1.224  0.2892  0.0357  0.2303
  945TIP3    H124326   4.579   3.866   1.204 -0.5692 -0.5446 -0.3275
  945TIP3    H224327   4.666   3.799   1.309  1.0321  1.3843 -0.3831
  946TIP3   OH224328   1.168   2.297  15.593  0.2881  0.1692  0.0829
  946TIP3    H124329   1.074   2.301  15.577  0.6415  0.4212 -2.1409
  946TIP3    H224330   1.181   2.343  15.676 -1.5306  0.1473  0.3891
  947TIP3   OH224331   5.914   0.708  12.253 -0.4559 -0.3826  0.4945
  947TIP3    H124332   5.846   0.655  12.296 -1.5085 -0.1377 -0.8330
  947TIP3    H224333   5.966   0.644  12.204 -0.7140 -0.3760  0.2128
  948TIP3   OH224334   1.532   3.404  12.800  0.1909  0.3297  0.2237
  948TIP3    H124335   1.626   3.389  12.791  0.1550  1.3744 -2.0628
  948TIP3    H224336   1.515   3.484  12.751 -1.8008  0.5294  1.1652
  949TIP3   OH224337   1.509   3.503  16.675  0.8794  0.2172 -0.0689
  949TIP3    H124338   1.495   3.592  16.645  0.6051  0.4454  0.7132
  949TIP3    H224339   1.591   3.506  16.723  0.4242  0.2497  0.7176
  950TIP3   OH224340   0.055   0.927  16.561 -0.1897 -0.5590  0.0980
  950TIP3    H124341  -0.002   0.939  16.637  0.6927  0.1142  0.6705
  950TIP3    H224342   0.137   0.892  16.598 -0.7396 -3.0080 -0.8908
  951TIP3   OH224343   0.519   0.468   3.552  0.1662 -0.5922 -0.0513
  951TIP3    H124344   0.520   0.493   3.459 -1.8268 -0.1539  0.0136
  951TIP3    H224345   0.535   0.550   3.599  0.5634 -0.7024  0.0056
  952TIP3   OH224346   6.270   5.920  12.260 -0.4219 -0.2728 -0.3634
  952TIP3    H124347   6.354   5.923  12.307  0.4104  0.0179 -1.8430
  952TIP3    H224348   6.285   5.971  12.181 -1.8180 -0.7460 -0.9505
  953TIP3   OH224349   6.290   4.667   2.771  0.4728 -0.1995  0.2077
  953TIP3    H124350   6.274   4.607   2.843  1.8571  0.5856  1.1988
  953TIP3    H224351   6.353   4.731   2.806  1.3520  0.0508 -1.7440
  954TIP3   OH224352   5.525   2.810  14.357  0.7053 -0.3561  0.7781
  954TIP3    H124353   5.438   2.840  14.384  0.4838 -0.7302  0.4905
  954TIP3    H224354   5.584   2.881  14.383  0.5248 -0.7561  2.3443
  955TIP3   OH224355   6.477   4.480  17.176  0.0472  0.5881  0.4728
  955TIP3    H124356   6.392   4.492  17.132  0.0313 -0.6773  0.1460
  955TIP3    H224357   6.526   4.560  17.155  0.2517 -0.2083 -2.3167
  956TIP3   OH224358   3.812   5.807   5.134  0.0185 -0.3501  0.0736
  956TIP3    H124359   3.716   5.805   5.143 -0.0099  0.1345 -0.0807
  956TIP3    H224360   3.844   5.780   5.220 -0.2542 -0.9080  0.0066
  957TIP3   OH224361   4.074   2.083  16.531 -0.0455  0.3673  0.2969
  957TIP3    H124362   4.029   2.016  16.479 -0.6725  1.2430 -0.3104
  957TIP3    H224363   4.158   2.096  16.486  0.0963 -0.0406  0.4411
  958TIP3   OH224364   3.646   0.138  14.371 -0.2570 -0.4518  0.1846
  958TIP3    H124365   3.614   0.117  14.459 -0.4781 -0.0897  0.1925
  958TIP3    H224366   3.587   0.207  14.340  0.7459  0.4836  0.3410
  959TIP3   OH224367   3.973   6.598  15.387 -0.1899  0.3232 -0.3232
  959TIP3    H124368   4.004   6.682  15.422  0.1320 -0.1326  0.5000
  959TIP3    H224369   3.924   6.621  15.308 -2.2246  1.5142  1.2275
  960TIP3   OH224370   4.369   6.797   5.340  0.5177 -0.0123  0.3105
  960TIP3    H124371   4.457   6.825   5.312  0.3781  1.5453  1.3805
  960TIP3    H224372   4.381   6.707   5.368  2.1145  0.6522  1.8576
  961TIP3   OH224373   0.552   2.715   1.364  0.2975  0.1153 -0.0611
  961TIP3    H124374   0.569   2.804   1.395 -0.4950  0.3490 -0.2885
  961TIP3    H224375   0.571   2.718   1.270  0.2168  0.0659 -0.0796
  962TIP3   OH224376   1.514   3.125  12.600 -0.1755 -0.5316  0.5697
  962TIP3    H124377   1.529   3.131  12.506 -0.2796  2.1610  0.6773
  962TIP3    H224378   1.600   3.109  12.638 -0.1341 -1.6223  0.0480
  963TIP3   OH224379   6.446   2.201   1.313  0.2845  0.6023 -0.2510
  963TIP3    H124380   6.468   2.160   1.230 -3.9911 -2.5567  0.0216
  963TIP3    H224381   6.527   2.200   1.363  2.2520  0.0918 -3.3574
  964TIP3   OH224382   0.104   2.241  10.349 -0.1145 -0.2833  0.4353
  964TIP3    H124383   0.133   2.290  10.272 -2.2711 -0.2532 -0.3785
  964TIP3    H224384   0.155   2.160  10.345  0.7408  0.2717 -0.2857
  965TIP3   OH224385   0.924   3.269  15.697  0.2587  0.1415  0.0796
  965TIP3    H124386   0.877   3.338  15.651 -0.2912  0.9566  1.8251
  965TIP3    H224387   1.010   3.266  15.655  0.1284  1.5618 -0.3118
  966TIP3   OH224388   4.345   4.260   5.469  0.2627 -0.5731 -0.2365
  966TIP3    H124389   4.275   4.196   5.452 -0.6016  0.6616 -1.4260
  966TIP3    H224390   4.393   4.224   5.544 -2.0586 -1.1177  1.0353
  967TIP3   OH224391   0.030   2.146   4.724  0.0458 -0.3625 -0.1779
  967TIP3    H124392  -0.003   2.236   4.736 -0.9360 -0.9647  1.8742
  967TIP3    H224393  -0.049   2.094   4.711  0.3475 -1.4596  2.2698
  968TIP3   OH224394   3.436   2.852   5.640 -0.0705 -0.1141 -0.4950
  968TIP3    H124395   3.365   2.861   5.576  2.7880 -2.5000 -4.1889
  968TIP3    H224396   3.489   2.930   5.629 -0.3520  0.1610  0.0443
  969TIP3   OH224397   4.250   0.114   5.872 -0.1064  0.7414 -0.0983
  969TIP3    H124398   4.275   0.031   5.830  0.8098  1.1704 -0.4230
  969TIP3    H224399   4.265   0.098   5.965 -0.2018  0.4462 -0.1311
  970TIP3   OH224400   5.911   1.397   6.094  0.0974 -0.5359  0.1077
  970TIP3    H124401   5.823   1.431   6.082  0.1532 -1.0566 -1.9454
  970TIP3    H224402   5.903   1.333   6.166 -1.3480 -1.1281 -0.5637
  971TIP3   OH224403   3.325   4.312  12.823 -0.4099  0.7283 -0.2293
  971TIP3    H124404   3.284   4.227  12.809  2.0825 -0.6850  0.7035
  971TIP3    H224405   3.357   4.337  12.736 -0.0423  0.0881 -0.2862
  972TIP3   OH224406   6.262   2.597   0.001  0.2110  0.1368  0.0461
  972TIP3    H124407   6.293   2.664   0.060  0.8834  0.6810 -0.9133
  972TIP3    H224408   6.201   2.643  -0.058 -0.2303 -0.3340  0.1309
  973TIP3   OH224409   3.807   2.535   2.379 -0.6302  0.0384 -0.4214
  973TIP3    H124410   3.769   2.556   2.465  1.5942  0.4240  0.4952
  973TIP3    H224411   3.883   2.593   2.372 -1.1427  0.4734 -2.9548
  974TIP3   OH224412   3.362   4.390  15.090  0.6792  0.2118 -0.1998
  974TIP3    H124413   3.352   4.484  15.081  0.7357  0.3763  1.2180
  974TIP3    H224414   3.309   4.367  15.167 -0.5506 -1.1518 -1.4138
  975TIP3   OH224415   5.002   4.113   1.810  0.1757 -0.7172  0.3603
  975TIP3    H124416   4.960   4.098   1.726  0.2664 -0.5226  0.2799
  975TIP3    H224417   4.964   4.196   1.841  0.8243 -0.3164  0.0866
  976TIP3   OH224418   4.929   6.681  10.554  0.3515  0.8432 -0.0202
  976TIP3    H124419   4.847   6.719  10.522 -0.2788 -2.2248 -2.2304
  976TIP3    H224420   4.901   6.616  10.619  1.2008  1.5774  1.0887
  977TIP3   OH224421   2.894   0.613  13.013  0.0184  0.6532 -0.0309
  977TIP3    H124422   2.956   0.648  12.949  1.5670 -1.5237  0.2323
  977TIP3    H224423   2.939   0.620  13.097  0.1532 -1.3798  0.1024
  978TIP3   OH224424   3.541   2.296   0.537 -0.0259 -0.2381  0.2101
  978TIP3    H124425   3.453   2.262   0.554  0.1366 -0.1621  1.2421
  978TIP3    H224426   3.526   2.382   0.496 -0.4303 -0.4971 -0.1909
  979TIP3   OH224427   3.997   6.410  15.136  0.1566  1.0829  0.3804
  979TIP3    H124428   4.090   6.420  15.157  0.6568 -1.1005 -0.6685
  979TIP3    H224429   3.980   6.316  15.148 -2.1847  1.6378  1.6424
  980TIP3   OH224430   6.081   1.659  15.942 -0.0036 -0.0891 -0.0095
  980TIP3    H124431   6.153   1.637  16.001 -0.5212 -1.6767  0.0419
  980TIP3    H224432   6.068   1.754  15.954  2.3808  0.3013 -0.3904
  981TIP3   OH224433   2.023   2.879  12.611  0.3800 -0.0528 -0.2876
  981TIP3    H124434   1.940   2.853  12.650  0.2503 -0.9309 -1.1417
  981TIP3    H224435   1.999   2.930  12.534  0.6441  0.9622  0.2778
  982TIP3   OH224436   2.035   1.021  12.380  0.2729  0.2982 -0.7597
  982TIP3    H124437   1.968   1.015  12.447  0.7167  1.1520 -0.2312
  982TIP3    H224438   2.034   0.935  12.336  0.0117 -0.2726  0.3564
  983TIP3   OH224439   3.169   0.659   5.094 -0.1268  0.0022 -0.0767
  983TIP3    H124440   3.130   0.725   5.150 -0.8858  1.9281 -2.7810
  983TIP3    H224441   3.164   0.578   5.145 -0.5788  1.7051  2.6711
  984TIP3   OH224442   1.939   0.452  12.331 -0.3588  0.6592  0.4237
  984TIP3    H124443   1.906   0.372  12.372 -2.9471  1.4952  0.0341
  984TIP3    H224444   1.920   0.521  12.394 -1.7097  1.5362 -0.9281
  985TIP3   OH224445   6.725   2.279   5.744 -0.5388 -0.1483 -0.3682
  985TIP3    H124446   6.754   2.337   5.673  1.6154  0.8735  1.2932
  985TIP3    H224447   6.651   2.326   5.784 -0.5145  0.1895 -0.7164
  986TIP3   OH224448   1.187   4.153   4.646 -0.1883  0.2895 -0.6253
  986TIP3    H124449   1.110   4.170   4.700 -0.2401 -1.3922 -0.1491
  986TIP3    H224450   1.156   4.093   4.579  0.5246  0.2478 -0.9223
  987TIP3   OH224451   5.920   0.221  16.516  0.2959 -0.5836 -0.2372
  987TIP3    H124452   5.977   0.201  16.442  0.8274  0.2166 -0.0461
  987TIP3    H224453   5.853   0.152  16.514  1.4833 -1.7590 -0.2321
  988TIP3   OH224454   6.132   4.929  11.826  0.5998  0.5104  0.2051
  988TIP3    H124455   6.155   4.837  11.810 -0.2549  0.6936 -2.4339
  988TIP3    H224456   6.160   4.974  11.746 -1.4722  2.0646  0.3192
  989TIP3   OH224457   0.915   2.073  12.493  0.3983  0.4881  0.0784
  989TIP3    H124458   0.895   2.008  12.426  0.2808  0.0779  0.5020
  989TIP3    H224459   0.868   2.042  12.571  2.1171 -0.1179  0.9095
  990TIP3   OH224460   4.853   5.200   4.831 -0.0130 -0.2029  0.0432
  990TIP3    H124461   4.873   5.128   4.891  1.7377  0.8715  0.7886
  990TIP3    H224462   4.901   5.179   4.751 -0.2053 -0.3150 -0.0406
  991TIP3   OH224463   1.279   1.376  10.717 -0.7060 -0.4769  0.2560
  991TIP3    H124464   1.225   1.298  10.729  0.0802 -0.8404  1.4915
  991TIP3    H224465   1.310   1.370  10.627 -2.3820 -0.4809 -0.3335
  992TIP3   OH224466   0.512   1.300   1.804  0.5367 -0.1223 -0.7203
  992TIP3    H124467   0.428   1.270   1.771 -0.5980  2.3085 -0.1372
  992TIP3    H224468   0.501   1.303   1.899  0.7136  1.7505 -0.7341
  993TIP3   OH224469   6.428   4.283   5.038  0.3547 -0.0347 -0.0586
  993TIP3    H124470   6.444   4.189   5.032  1.4586  0.2143 -1.2360
  993TIP3    H224471   6.333   4.291   5.045  0.0922 -1.1534 -1.9865
  994TIP3   OH224472   3.089   1.088   2.990  0.1655  0.4388  0.2440
  994TIP3    H124473   3.096   1.018   2.925 -0.6205  1.3086 -0.7930
  994TIP3    H224474   3.154   1.066   3.056 -0.1532 -1.3445 -0.0129
  995TIP3   OH224475   5.474   1.157  14.424 -0.3801 -0.0979  0.2494
  995TIP3    H124476   5.404   1.210  14.463  0.8200  1.6151  0.1358
  995TIP3    H224477   5.475   1.183  14.332 -0.4319 -1.0738 -0.0332
  996TIP3   OH224478   3.442   5.504   3.132  0.3460  0.0028 -0.0740
  996TIP3    H124479   3.537   5.498   3.136  0.2546 -0.6052  1.5625
  996TIP3    H224480   3.411   5.456   3.209 -1.3021 -0.2034 -0.8325
  997TIP3   OH224481   5.838   5.834   0.922  0.0133  0.0813 -0.1981
  997TIP3    H124482   5.873   5.745   0.929  0.4095  0.2947  0.5589
  997TIP3    H224483   5.785   5.845   1.001  0.7802  0.8781  0.2109
  998TIP3   OH224484   5.727   3.176   5.511 -0.1331  0.1331  0.1188
  998TIP3    H124485   5.717   3.087   5.478 -0.1602  0.6320 -1.2282
  998TIP3    H224486   5.821   3.186   5.526  0.4311  1.2630 -3.7279
  999TIP3   OH224487   2.253   3.799  11.884 -0.1716 -0.1419 -0.5340
  999TIP3    H124488   2.334   3.826  11.928 -1.0233  1.2962  0.1617
  999TIP3    H224489   2.275   3.800  11.791  0.9979 -1.0846 -0.2895
 1000TIP3   OH224490   3.417   5.139  15.943 -0.0683 -0.6261  0.3581
 1000TIP3    H124491   3.432   5.232  15.929 -1.0019 -0.4863  0.2950
 1000TIP3    H224492   3.329   5.123  15.909  0.6168 -1.8020 -0.8885
 1001TIP3   OH224493   4.834   2.476  13.465 -0.0545 -0.4234 -0.7188
 1001TIP3    H124494   4.836   2.553  13.409 -0.5288 -0.3652 -0.6572
 1001TIP3    H224495   4.837   2.401  13.405 -0.4130 -0.3612 -0.8141
 1002TIP3   OH224496   0.183   1.228  12.773  0.5644 -0.7239 -0.2662
 1002TIP3    H124497   0.185   1.324  12.770  0.6024 -0.6227  1.9326
 1002TIP3    H224498   0.090   1.206  12.780  0.6863 -0.6860  1.9879
 1003TIP3   OH224499   3.449   1.223  10.595 -0.2534  0.1214 -0.6433
 1003TIP3    H124500   3.500   1.278  10.534  1.5738 -0.2395  0.5157
 1003TIP3    H224501   3.358   1.243  10.574  0.3633  2.6897 -1.0930
 1004TIP3   OH224502   4.225   5.245  12.731 -0.3028 -0.9537  0.2858
 1004TIP3    H124503   4.154   5.302  12.761 -0.0362 -0.3555 -0.2111
 1004TIP3    H224504   4.241   5.186  12.804 -0.2333 -0.0557  0.9963
 1005TIP3   OH224505   3.873   3.162  14.243 -0.0602  0.0603 -0.4022
 1005TIP3    H124506   3.945   3.201  14.293  0.4278 -0.4405 -0.7192
 1005TIP3    H224507   3.795   3.207  14.276  0.5409  1.6021 -1.0554
 1006TIP3   OH224508   4.334   3.586   2.007 -0.3839 -0.2571  0.3058
 1006TIP3    H124509   4.287   3.565   2.088  2.0840  1.9325  2.3972
 1006TIP3    H224510   4.409   3.526   2.007  1.2778  1.7584  1.2641
 1007TIP3   OH224511   3.607   1.090  16.982 -0.4371  0.2300  0.1888
 1007TIP3    H124512   3.552   1.103  17.060  0.3317 -1.2103  1.0139
 1007TIP3    H224513   3.664   1.017  17.006  1.9352  1.7699 -0.5993
 1008TIP3   OH224514   5.966   0.249   2.813  0.6536  0.0115 -0.6562
 1008TIP3    H124515   6.058   0.275   2.817  0.0326  2.1333  0.3087
 1008TIP3    H224516   5.931   0.298   2.738 -0.2692  1.1730  0.5209
 1009TIP3   OH224517   5.199   3.989  15.347 -0.1625 -0.3313  0.1519
 1009TIP3    H124518   5.257   4.031  15.284 -1.1577  0.7816 -0.0449
 1009TIP3    H224519   5.164   4.061  15.399 -0.4718 -1.1047  1.0312
 1010TIP3   OH224520   5.907   6.089   1.727 -0.4097 -0.2202 -0.2120
 1010TIP3    H124521   5.938   6.177   1.751 -0.6459 -0.3567  0.6178
 1010TIP3    H224522   5.858   6.059   1.804  1.3819 -1.8882  0.3315
 1011TIP3   OH224523   3.723   4.500   2.919  0.2996 -0.6072  0.0607
 1011TIP3    H124524   3.654   4.493   2.985  0.7120  0.4451  0.6182
 1011TIP3    H224525   3.782   4.567   2.954  0.7665 -0.3755 -1.1571
 1012TIP3   OH224526   5.775   1.556  15.665 -0.8293  0.0134 -0.3277
 1012TIP3    H124527   5.862   1.576  15.699 -0.0963 -1.9172 -0.9960
 1012TIP3    H224528   5.714   1.585  15.733  0.2691  2.2721 -0.2776
 1013TIP3   OH224529   6.345   2.203  11.904  0.4324  0.0254 -0.0465
 1013TIP3    H124530   6.371   2.111  11.900 -0.4029 -0.1333 -2.5129
 1013TIP3    H224531   6.257   2.202  11.940  0.6195 -0.0923  0.4120
 1014TIP3   OH224532   3.348   1.246  12.524  0.3029 -0.1383 -0.2307
 1014TIP3    H124533   3.419   1.281  12.577  0.2843  0.0784 -0.3449
 1014TIP3    H224534   3.268   1.274  12.569  0.2287  2.5606 -1.9039
 1015TIP3   OH224535   3.859   2.663   3.849  0.1954  0.1021 -0.3040
 1015TIP3    H124536   3.870   2.697   3.938 -0.2410  0.9071 -0.5457
 1015TIP3    H224537   3.887   2.735   3.792  0.3363 -0.3559 -0.8236
 1016TIP3   OH224538   1.624   3.290   0.593  0.6075  0.2393  0.0782
 1016TIP3    H124539   1.582   3.359   0.541  0.4492  0.5026  0.5541
 1016TIP3    H224540   1.552   3.247   0.639  0.8735  0.8351  1.0661
 1017TIP3   OH224541   5.027   3.727  14.100  0.0608 -0.3395 -0.2424
 1017TIP3    H124542   5.051   3.814  14.131 -0.9920 -0.6336  1.5065
 1017TIP3    H224543   5.067   3.667  14.163 -0.6989 -1.0389 -0.4136
 1018TIP3   OH224544   2.118   0.869  15.529  0.2275 -0.5220  0.0685
 1018TIP3    H124545   2.145   0.852  15.620  0.1357 -1.7422 -0.1207
 1018TIP3    H224546   2.179   0.817  15.476 -0.7732 -1.1373 -0.4895
 1019TIP3   OH224547   0.915   0.840  16.585  0.3144 -0.1313 -0.2081
 1019TIP3    H124548   0.968   0.871  16.659  0.4913 -1.0469  0.0530
 1019TIP3    H224549   0.859   0.772  16.622  0.0628 -0.2626 -0.8189
 1020TIP3   OH224550   1.742   5.720  15.464 -0.3316 -1.0573  0.1288
 1020TIP3    H124551   1.778   5.633  15.446 -1.2792 -1.3741 -0.3069
 1020TIP3    H224552   1.769   5.773  15.389  0.2443 -0.9694  0.3928
 1021TIP3   OH224553   3.335   6.426  15.591  0.0444  0.7560  0.1729
 1021TIP3    H124554   3.400   6.434  15.660  0.0172  0.5845  0.2182
 1021TIP3    H224555   3.379   6.376  15.522  0.9455  3.0787 -1.0160
 1022TIP3   OH224556   1.379   5.225   1.019  0.5155  0.0993  1.0277
 1022TIP3    H124557   1.380   5.256   0.929 -0.7387  0.4977  1.1445
 1022TIP3    H224558   1.297   5.178   1.028  0.6478  0.0337  1.9542
 1023TIP3   OH224559   0.711   3.479  16.064  0.0928 -0.1616 -0.2088
 1023TIP3    H124560   0.657   3.401  16.076 -1.7319  1.3307  1.7251
 1023TIP3    H224561   0.672   3.524  15.989 -2.0569  1.4050  1.7734
 1024TIP3   OH224562   0.404   4.025   4.448 -0.0349  0.2140  0.0988
 1024TIP3    H124563   0.361   3.940   4.439 -0.3759  0.2926  0.9150
 1024TIP3    H224564   0.332   4.088   4.449  0.1876  0.4701  0.0311
 1025TIP3   OH224565   1.961   1.578  13.537  0.4059  0.3066 -0.2603
 1025TIP3    H124566   1.953   1.483  13.536  2.7516  0.0921 -1.3311
 1025TIP3    H224567   1.974   1.603  13.446 -0.0345  1.6538  0.0249
 1026TIP3   OH224568   6.353   0.968   6.009  0.0357 -0.4411 -0.4302
 1026TIP3    H124569   6.329   0.876   6.010  2.2261 -1.0367  0.2001
 1026TIP3    H224570   6.312   1.005   6.087  0.7403 -1.3296  0.3708
 1027TIP3   OH224571   6.055   3.840  11.089 -0.6379  0.3918  0.4840
 1027TIP3    H124572   6.100   3.864  11.171 -1.3370 -1.5209  1.4678
 1027TIP3    H224573   5.967   3.816  11.117 -0.4942 -1.5578 -0.6458
 1028TIP3   OH224574   2.445   4.026   5.527  0.0299  0.1805 -0.0906
 1028TIP3    H124575   2.436   4.121   5.519  0.6825  0.1567 -1.1935
 1028TIP3    H224576   2.518   4.014   5.588  0.0417  0.3734 -0.0666
 1029TIP3   OH224577   2.186   4.193   2.888 -0.4825 -0.4170  0.0996
 1029TIP3    H124578   2.180   4.254   2.961  0.6059 -1.1652  0.8354
 1029TIP3    H224579   2.219   4.246   2.815 -1.4410  0.2990  0.1746
 1030TIP3   OH224580   2.336   1.607  17.221 -0.2519  0.2300 -0.6425
 1030TIP3    H124581   2.406   1.568  17.274 -0.9613 -1.3440 -0.8225
 1030TIP3    H224582   2.303   1.678  17.275  0.9236  0.4419 -0.1907
 1031TIP3   OH224583   0.120   2.559   2.899 -0.3558  0.4779 -0.2352
 1031TIP3    H124584   0.147   2.651   2.895  1.4202 -0.1041 -2.4825
 1031TIP3    H224585   0.126   2.536   2.991  1.1275  2.0684  0.0860
 1032TIP3   OH224586   3.994   5.005   3.053 -0.5521  0.0672 -0.3654
 1032TIP3    H124587   4.039   4.934   3.007  0.3214  1.0147 -0.9919
 1032TIP3    H224588   3.932   5.040   2.989 -0.9936 -0.1432 -0.0528
 1033TIP3   OH224589   4.342   4.299  16.641 -1.1264 -0.2015 -0.0725
 1033TIP3    H124590   4.356   4.227  16.703  1.7080 -0.0210 -0.4560
 1033TIP3    H224591   4.326   4.375  16.697 -0.0065 -0.3290  0.4402
 1034TIP3   OH224592   3.323   1.994   2.524 -0.6577 -0.4813 -0.1115
 1034TIP3    H124593   3.302   2.087   2.525  0.1245 -0.2681 -1.5477
 1034TIP3    H224594   3.401   1.987   2.468 -0.0351 -1.8637  0.8851
 1035TIP3   OH224595   0.191   5.042  14.181 -0.3398 -0.1939 -0.2314
 1035TIP3    H124596   0.278   5.080  14.167 -0.1552 -0.4598  0.1606
 1035TIP3    H224597   0.132   5.098  14.132  0.2037 -0.7328 -1.5206
 1036TIP3   OH224598   5.448   1.723   5.654 -0.3180 -0.5350 -0.1777
 1036TIP3    H124599   5.465   1.817   5.663  0.1712 -0.5261 -1.1178
 1036TIP3    H224600   5.527   1.689   5.611 -2.3678 -0.6194 -4.0865
 1037TIP3   OH224601   1.167   0.238   1.884  0.2510 -0.4204  0.3304
 1037TIP3    H124602   1.257   0.244   1.916  0.5822 -0.8379 -0.4871
 1037TIP3    H224603   1.128   0.322   1.908  0.8979 -0.1816  0.5794
 1038TIP3   OH224604   5.915   6.579  11.228 -0.3818 -0.0533  0.3668
 1038TIP3    H124605   5.903   6.588  11.134 -1.2450  0.0345  0.4804
 1038TIP3    H224606   5.832   6.607  11.266  0.5557  1.6231  1.2527
 1039TIP3   OH224607   6.652   0.805  15.777  0.2391  0.0602 -0.4679
 1039TIP3    H124608   6.567   0.797  15.821  0.1306  0.0723 -0.6723
 1039TIP3    H224609   6.637   0.768  15.690  0.4804 -0.0619 -0.4570
 1040TIP3   OH224610   5.218   4.875  15.379 -0.2720 -0.4668 -0.0366
 1040TIP3    H124611   5.293   4.932  15.365 -0.7700  1.4136  4.0053
 1040TIP3    H224612   5.142   4.931  15.364 -0.8413 -1.3182 -0.4107
 1041TIP3   OH224613   1.633   2.012   4.142 -0.0316  0.0833 -0.0028
 1041TIP3    H124614   1.618   2.081   4.077 -0.1306 -0.0250 -0.0957
 1041TIP3    H224615   1.555   1.957   4.136 -1.3474  1.6256  2.1644
 1042TIP3   OH224616   5.085   1.214  12.644  0.2958  0.1768  0.3221
 1042TIP3    H124617   5.157   1.201  12.583  2.1071  1.7794  2.0169
 1042TIP3    H224618   5.063   1.307  12.637 -1.7842 -0.3348 -0.3349
 1043TIP3   OH224619   5.589   1.735  11.355  0.2325 -0.4296  0.4989
 1043TIP3    H124620   5.502   1.747  11.317  0.7051 -0.8368 -0.7303
 1043TIP3    H224621   5.575   1.670  11.424 -0.5766  0.0873  0.8376
 1044TIP3   OH224622   0.515   1.820   1.934 -0.1649 -0.6778  0.0947
 1044TIP3    H124623   0.527   1.741   1.881  0.7592 -0.3341 -0.2225
 1044TIP3    H224624   0.540   1.892   1.876  2.9385 -0.4363  1.5975
 1045TIP3   OH224625   3.465   6.420   5.897  0.5548 -0.5367  0.0870
 1045TIP3    H124626   3.379   6.380   5.884 -0.5419  1.3759  1.1562
 1045TIP3    H224627   3.514   6.356   5.948 -0.7869 -1.0096  0.8133
 1046TIP3   OH224628   4.416   1.350   6.102  0.1990  0.5713 -0.8321
 1046TIP3    H124629   4.385   1.328   6.190 -0.6614  0.0817 -1.2508
 1046TIP3    H224630   4.511   1.346   6.108  0.1722  1.4950  0.3236
 1047TIP3   OH224631   3.739   4.449  13.188 -0.2442 -0.3330  0.1027
 1047TIP3    H124632   3.684   4.380  13.226 -0.5283  0.4061  1.0417
 1047TIP3    H224633   3.755   4.509  13.260  2.9246 -1.2175  0.2120
 1048TIP3   OH224634   3.423   6.630   0.538 -0.4230 -0.1430 -0.1892
 1048TIP3    H124635   3.457   6.544   0.565  2.1874  0.9216  0.0152
 1048TIP3    H224636   3.438   6.633   0.444 -0.3238  0.1517 -0.1651
 1049TIP3   OH224637   5.347   5.471   1.563  0.4466  0.0292  0.1862
 1049TIP3    H124638   5.356   5.391   1.616 -3.4955 -0.2596  0.5573
 1049TIP3    H224639   5.355   5.440   1.472  2.6576 -0.1570  0.4048
 1050TIP3   OH224640   3.588   0.018  10.808 -0.1466 -0.0668  0.0105
 1050TIP3    H124641   3.520   0.009  10.740 -0.8615 -2.4764  0.9608
 1050TIP3    H224642   3.618   0.108  10.800 -0.9472  0.0175 -2.8226
 1051TIP3   OH224643   3.453   1.422  13.950 -0.3946 -0.1506 -0.2374
 1051TIP3    H124644   3.442   1.345  13.895  1.8429  0.0279 -0.9867
 1051TIP3    H224645   3.506   1.392  14.024 -1.3146  0.1895  0.5737
 1052TIP3   OH224646   1.555   2.626  16.768 -0.0676  0.6966  0.1209
 1052TIP3    H124647   1.481   2.687  16.768 -0.3703  0.3583  1.3019
 1052TIP3    H224648   1.618   2.666  16.827  1.0813  1.4118 -1.5585
 1053TIP3   OH224649   1.998   1.557  13.873 -0.0806 -0.1070  0.0577
 1053TIP3    H124650   2.050   1.633  13.846 -1.7989  0.5345 -1.5935
 1053TIP3    H224651   2.005   1.496  13.800 -0.8239 -0.4166  0.2357
 1054TIP3   OH224652   1.780   5.258   2.296 -0.1082  0.1958  0.3908
 1054TIP3    H124653   1.835   5.307   2.235 -0.3271 -0.5240 -0.3908
 1054TIP3    H224654   1.696   5.249   2.251  0.1097 -1.3825  0.2847
 1055TIP3   OH224655   1.177   3.253   6.394  0.1631 -0.1801 -0.3453
 1055TIP3    H124656   1.097   3.305   6.382 -0.6524 -1.6893 -1.5942
 1055TIP3    H224657   1.160   3.201   6.473 -0.2397 -0.7381 -0.7914
 1056TIP3   OH224658   0.179   0.843   4.996 -0.3369 -0.1544  0.0692
 1056TIP3    H124659   0.147   0.932   4.983  0.6902  0.7489  3.2410
 1056TIP3    H224660   0.114   0.802   5.053 -1.1990 -1.7092 -1.9994
 1057TIP3   OH224661   2.003   2.568   1.732  0.1597 -0.3321  0.2766
 1057TIP3    H124662   1.965   2.483   1.709  0.5957 -0.2255 -0.8990
 1057TIP3    H224663   1.930   2.630   1.723 -0.1341 -0.5695  1.0359
 1058TIP3   OH224664   3.350   1.828  15.474  0.5325 -0.7692 -0.0847
 1058TIP3    H124665   3.434   1.788  15.451 -0.3219 -2.2807 -0.6199
 1058TIP3    H224666   3.313   1.856  15.390  0.6534  0.2324  0.1863
 1059TIP3   OH224667   3.909   6.256   4.311 -0.2068  0.0670 -0.0783
 1059TIP3    H124668   3.914   6.318   4.384  1.3245  0.0332 -0.1417
 1059TIP3    H224669   3.908   6.170   4.353 -2.1286  0.1039  0.0017
 1060TIP3   OH224670   3.848   3.460   2.575  0.2817 -0.2897  0.7683
 1060TIP3    H124671   3.864   3.522   2.645 -0.1685 -0.8666  1.3868
 1060TIP3    H224672   3.863   3.374   2.615  0.5913 -0.5912  0.0101
 1061TIP3   OH224673   2.770   0.928   0.898  0.3977  0.7091  1.4301
 1061TIP3    H124674   2.711   0.889   0.963 -0.7830  0.0416 -0.0025
 1061TIP3    H224675   2.807   1.004   0.943 -1.7749  1.3138  2.2987
 1062TIP3   OH224676   1.802   3.377  15.524  1.1972  0.0051  0.2325
 1062TIP3    H124677   1.785   3.470  15.517 -1.0869 -0.2836  1.6127
 1062TIP3    H224678   1.895   3.368  15.500  0.9995  2.3652 -1.6376
 1063TIP3   OH224679   4.332   5.259  12.218  0.0105 -0.0046 -0.1976
 1063TIP3    H124680   4.384   5.315  12.160 -1.3721  3.3493  1.6705
 1063TIP3    H224681   4.332   5.305  12.302 -2.6932 -1.9330  0.9213
 1064TIP3   OH224682   3.701   6.586   2.183  0.0264  0.3429 -0.4937
 1064TIP3    H124683   3.750   6.576   2.265 -0.8509  0.0863  0.0015
 1064TIP3    H224684   3.635   6.652   2.202  1.5266  2.2673 -1.7898
 1065TIP3   OH224685   5.129   1.676   4.722  0.1273 -0.1259 -0.0034
 1065TIP3    H124686   5.125   1.756   4.774  0.2421  0.8373 -1.4266
 1065TIP3    H224687   5.063   1.689   4.653  0.0027 -1.3471 -0.1258
 1066TIP3   OH224688   1.781   5.420   4.045 -0.1993 -0.0791  0.0225
 1066TIP3    H124689   1.695   5.452   4.072  0.7279  2.1652  0.4830
 1066TIP3    H224690   1.809   5.480   3.976  1.1238 -0.5990  0.0832
 1067TIP3   OH224691   0.715   2.873   4.816  0.2951 -0.6049  0.0752
 1067TIP3    H124692   0.750   2.923   4.742  0.8029 -0.4714  0.3951
 1067TIP3    H224693   0.669   2.938   4.869  0.6512 -0.5370  0.3073
 1068TIP3   OH224694   5.483   5.458  15.785 -0.3291  0.5332  0.5074
 1068TIP3    H124695   5.538   5.525  15.826 -1.4745  2.1247 -0.5152
 1068TIP3    H224696   5.394   5.483  15.808 -0.7851 -0.4701 -0.1607
 1069TIP3   OH224697   0.325   1.040  13.129  0.4649 -0.4437  0.0949
 1069TIP3    H124698   0.302   1.132  13.115 -4.6082 -1.3642  1.0571
 1069TIP3    H224699   0.359   1.037  13.218 -1.2967  0.3020  0.8307
 1070TIP3   OH224700   3.267   4.483   1.309 -0.1135  0.3870  0.5390
 1070TIP3    H124701   3.300   4.555   1.364  1.1196 -0.1656  0.5391
 1070TIP3    H224702   3.190   4.520   1.266  2.3636  2.8542 -2.0082
 1071TIP3   OH224703   0.570   0.549   2.770 -0.6107  0.1701 -0.3937
 1071TIP3    H124704   0.495   0.572   2.826 -0.5142  0.5541 -0.4180
 1071TIP3    H224705   0.633   0.509   2.830  0.0019  1.6894  0.0247
 1072TIP3   OH224706   6.024   0.002   3.364 -0.1027  0.4448  0.3032
 1072TIP3    H124707   6.000  -0.088   3.341 -0.1251  0.5169  0.0441
 1072TIP3    H224708   6.031   0.001   3.460  0.7124 -0.0371  0.2476
 1073TIP3   OH224709   0.088   5.527   4.792 -0.1371  0.2018 -0.0816
 1073TIP3    H124710   0.077   5.586   4.867  0.2618 -0.2348  0.3216
 1073TIP3    H224711   0.050   5.575   4.718 -1.8253  0.0601  0.6701
 1074TIP3   OH224712   6.133   1.299   2.747 -0.7178  0.1401 -0.2321
 1074TIP3    H124713   6.178   1.355   2.683  0.6425  1.1460  1.5631
 1074TIP3    H224714   6.144   1.210   2.713  2.5770  0.3773  0.1219
 1075TIP3   OH224715   0.108   0.502   6.207  0.0747  0.1299 -0.3928
 1075TIP3    H124716   0.129   0.506   6.114  0.1610  2.5331 -0.3129
 1075TIP3    H224717   0.046   0.574   6.221 -2.1590 -1.9705  0.8701
 1076TIP3   OH224718   0.525   1.208  16.725 -0.3614 -0.1643  0.2994
 1076TIP3    H124719   0.501   1.301  16.729  1.2087  0.1929  2.4177
 1076TIP3    H224720   0.462   1.165  16.782 -0.2218 -0.1889  0.4353
 1077TIP3   OH224721   0.634   3.190   0.113 -0.0261  0.1520  0.2152
 1077TIP3    H124722   0.606   3.206   0.203  1.4146  1.6806  0.4285
 1077TIP3    H224723   0.704   3.126   0.121 -1.1554 -1.1313 -0.0088
 1078TIP3   OH224724   0.618   2.224  12.784  0.8611  0.0552 -0.0007
 1078TIP3    H124725   0.696   2.268  12.818  0.0689  0.8844  0.7830
 1078TIP3    H224726   0.607   2.258  12.695  2.2593 -1.2138 -0.6700
 1079TIP3   OH224727   2.508   3.715   3.766  0.4892 -0.4281 -0.4663
 1079TIP3    H124728   2.475   3.663   3.840 -0.0786  0.7194  0.0919
 1079TIP3    H224729   2.533   3.649   3.701  0.7405 -1.4396  0.6354
 1080TIP3   OH224730   3.484   0.042   4.171  0.5592  0.3723 -0.6308
 1080TIP3    H124731   3.498  -0.050   4.193 -2.1398 -0.9529 -4.0654
 1080TIP3    H224732   3.569   0.073   4.139  1.4416 -0.9362  0.4290
 1081TIP3   OH224733   4.028   0.483   2.775  0.0138  0.0165 -0.2593
 1081TIP3    H124734   4.014   0.394   2.809  0.5714 -0.4483 -1.2257
 1081TIP3    H224735   3.951   0.532   2.804 -0.7552 -1.0198 -0.5009
 1082TIP3   OH224736   5.992   2.374  16.742  0.2199 -0.2798 -0.4741
 1082TIP3    H124737   6.009   2.364  16.648  0.3770  0.3651 -0.5149
 1082TIP3    H224738   6.077   2.396  16.780  0.4170 -1.8135  0.0146
 1083TIP3   OH224739   5.226   6.323  10.565 -0.3850 -0.0009  0.1375
 1083TIP3    H124740   5.144   6.291  10.604 -0.3665  0.7974  0.8377
 1083TIP3    H224741   5.202   6.406  10.525  0.1683  0.4213  0.6749
 1084TIP3   OH224742   3.460   4.709   0.444  0.2997  0.3449  0.1621
 1084TIP3    H124743   3.476   4.722   0.350 -0.1837  0.3977  0.0856
 1084TIP3    H224744   3.390   4.771   0.465 -1.2962 -1.3578  0.0124
 1085TIP3   OH224745   3.135   5.693  12.692  0.0983  0.3924  0.3718
 1085TIP3    H124746   3.144   5.761  12.625 -2.2073  0.0006 -0.3862
 1085TIP3    H224747   3.211   5.637  12.681  0.8518  1.5581 -0.4819
 1086TIP3   OH224748   4.328   1.605   4.564 -0.2002  0.3903 -0.0715
 1086TIP3    H124749   4.243   1.596   4.608 -0.1650 -0.5299 -0.1838
 1086TIP3    H224750   4.391   1.609   4.636  0.0089 -2.6255  0.0118
 1087TIP3   OH224751   5.407   0.351  15.493  0.1438 -0.4824  0.0202
 1087TIP3    H124752   5.412   0.257  15.514  2.6983  0.0211  1.9107
 1087TIP3    H224753   5.495   0.373  15.463  0.0304  1.6537  1.1647
 1088TIP3   OH224754   6.384   4.551  13.076 -0.0415 -0.4145  0.1820
 1088TIP3    H124755   6.341   4.527  13.158  0.3228 -0.7692  0.2668
 1088TIP3    H224756   6.312   4.579  13.019 -0.4006 -1.1200  0.2820
 1089TIP3   OH224757   6.068   0.987  17.142 -0.3335 -0.6298  0.2386
 1089TIP3    H124758   6.088   1.080  17.139 -0.2338 -0.6703 -0.5761
 1089TIP3    H224759   6.073   0.964  17.235  1.3122 -0.1821  0.2718
 1090TIP3   OH224760   4.326   3.711   3.540 -0.3741 -0.0667 -0.6004
 1090TIP3    H124761   4.311   3.624   3.578 -0.7648  0.0457 -0.4834
 1090TIP3    H224762   4.331   3.769   3.616  1.5222 -0.2098 -0.5959
 1091TIP3   OH224763   6.735   2.133  13.927  0.0479  0.4589 -0.1933
 1091TIP3    H124764   6.704   2.048  13.960  1.7130 -0.2798 -0.4696
 1091TIP3    H224765   6.789   2.168  13.998  0.0709  0.8907 -0.4243
 1092TIP3   OH224766   5.501   6.237  15.447  0.5625  0.2714 -0.2646
 1092TIP3    H124767   5.575   6.266  15.394 -0.8771  0.1042 -2.4059
 1092TIP3    H224768   5.460   6.167  15.396  0.2297 -1.1819  1.9230
 1093TIP3   OH224769   2.699   5.905   2.421 -0.0134 -0.0893  0.2462
 1093TIP3    H124770   2.729   5.971   2.358  0.4684 -1.0931 -0.5844
 1093TIP3    H224771   2.604   5.900   2.406  0.1483 -0.5592 -0.6209
 1094TIP3   OH224772   4.484   2.728  15.143 -0.7878 -0.3982  0.7650
 1094TIP3    H124773   4.577   2.747  15.149 -1.2143  1.7217  0.9495
 1094TIP3    H224774   4.452   2.732  15.233 -1.2924  0.2196  0.5685
 1095TIP3   OH224775   1.701   3.230  10.442  0.0876 -0.4659 -0.3425
 1095TIP3    H124776   1.746   3.271  10.516  0.8355 -1.6523 -0.1094
 1095TIP3    H224777   1.771   3.211  10.380 -0.3267 -0.7859 -0.7127
 1096TIP3   OH224778   0.098   5.136   4.398  0.0848  0.2746  0.3287
 1096TIP3    H124779   0.026   5.073   4.385  0.3627  0.5908 -3.1122
 1096TIP3    H224780   0.054   5.218   4.422 -0.6736  0.2609 -0.9746
 1097TIP3   OH224781   0.617   0.351   4.713 -0.0543  0.3869 -0.4375
 1097TIP3    H124782   0.659   0.334   4.797 -0.5516  2.2133  0.2145
 1097TIP3    H224783   0.663   0.294   4.651  2.4463  1.2846  0.4979
 1098TIP3   OH224784   6.484   4.627  16.516  0.5665 -0.1178 -0.1526
 1098TIP3    H124785   6.503   4.537  16.542  0.6057  0.3310  1.3945
 1098TIP3    H224786   6.482   4.677  16.598  1.1259  1.4009 -1.0304
 1099TIP3   OH224787   3.381   3.535  15.337  0.3957  0.4408  0.1062
 1099TIP3    H124788   3.460   3.540  15.283 -0.8786 -0.7098 -1.9366
 1099TIP3    H224789   3.397   3.596  15.409  2.8867  0.6713 -0.5972
 1100TIP3   OH224790   6.783   5.323  16.246 -0.1024  0.1964  0.3288
 1100TIP3    H124791   6.835   5.403  16.252  1.3612 -0.8425  2.3613
 1100TIP3    H224792   6.818   5.277  16.170 -0.0660  0.8909 -0.0745
 1101TIP3   OH224793   4.105   6.607   5.464 -0.6195 -0.2372 -0.1400
 1101TIP3    H124794   4.059   6.656   5.396  0.1851  1.0163  0.2097
 1101TIP3    H224795   4.192   6.590   5.426 -1.1256 -2.0423 -0.5491
 1102TIP3   OH224796   4.446   2.590  16.814  0.2730  0.4866 -0.5485
 1102TIP3    H124797   4.471   2.510  16.768 -0.3279  0.2333 -0.4475
 1102TIP3    H224798   4.502   2.594  16.891  1.0137  0.7034 -1.0976
 1103TIP3   OH224799   4.785   5.666   6.019 -0.5099  0.5995  0.3924
 1103TIP3    H124800   4.705   5.711   5.993 -0.7973  0.3994  0.9345
 1103TIP3    H224801   4.782   5.664   6.115 -0.5033 -0.6079  0.3685
 1104TIP3   OH224802   6.614   0.481  16.880 -0.3573  0.4045  0.3787
 1104TIP3    H124803   6.611   0.568  16.918  0.1228 -0.1546  1.7393
 1104TIP3    H224804   6.698   0.445  16.909 -0.9078 -0.8033  0.5128
 1105TIP3   OH224805   2.000   6.348  14.429 -0.3512 -0.6882 -0.5003
 1105TIP3    H124806   2.048   6.331  14.348  0.8631 -1.3073  0.3299
 1105TIP3    H224807   2.011   6.267  14.480 -0.7702 -0.1532  0.4384
 1106TIP3   OH224808   0.062   2.663   1.239 -0.1644 -0.3699 -0.0460
 1106TIP3    H124809   0.129   2.674   1.307 -0.0157 -1.7883  0.0533
 1106TIP3    H224810   0.008   2.590   1.270  1.5842 -2.9279 -2.7566
 1107TIP3   OH224811   5.186   0.574  14.573 -0.0912  0.2972 -0.3441
 1107TIP3    H124812   5.093   0.557  14.557 -0.1941 -0.1132  0.6533
 1107TIP3    H224813   5.231   0.501  14.528 -0.2963 -0.0051 -0.0623
 1108TIP3   OH224814   2.366   0.380   4.705  0.5917  0.7387 -0.5562
 1108TIP3    H124815   2.450   0.357   4.745 -0.8634 -1.8036  1.1450
 1108TIP3    H224816   2.344   0.465   4.742  2.6830  1.7297 -1.4945
 1109TIP3   OH224817   2.263   6.449   5.514 -0.2450 -0.2249 -0.0050
 1109TIP3    H124818   2.260   6.542   5.535  1.0297 -0.3085  0.5623
 1109TIP3    H224819   2.326   6.442   5.443 -1.0499 -0.5471 -0.7017
 1110TIP3   OH224820   5.834   5.823  12.895  0.5639 -0.0012 -0.2908
 1110TIP3    H124821   5.848   5.908  12.852  1.2854 -0.2110 -0.4916
 1110TIP3    H224822   5.880   5.831  12.978  0.6088 -0.1823 -0.2986
 1111TIP3   OH224823   2.592   1.767  11.473 -0.0478 -0.6902 -0.1436
 1111TIP3    H124824   2.594   1.675  11.501 -1.3508 -0.6015  0.2938
 1111TIP3    H224825   2.682   1.798  11.486 -0.0372 -1.3715  1.5644
 1112TIP3   OH224826   2.075   3.527   4.435 -0.7335 -0.2980 -0.1661
 1112TIP3    H124827   2.000   3.586   4.437 -0.3773  0.1545 -0.1908
 1112TIP3    H224828   2.117   3.544   4.351  0.2963  0.5709  0.5238
 1113TIP3   OH224829   0.969   4.155  15.942  0.4491 -0.1075 -0.2164
 1113TIP3    H124830   0.951   4.192  15.855  0.6770 -0.8495 -0.5770
 1113TIP3    H224831   0.927   4.069  15.941 -1.2035  0.6557  1.0861
 1114TIP3   OH224832   3.775   6.271  14.963 -0.2073 -0.0297 -0.2377
 1114TIP3    H124833   3.696   6.219  14.949 -0.3575  0.0644  0.2741
 1114TIP3    H224834   3.846   6.207  14.968 -0.3888 -0.1778  0.3789
 1115TIP3   OH224835   4.039   0.536  14.719 -0.4570  0.5200 -0.5154
 1115TIP3    H124836   4.121   0.490  14.738 -1.6319 -0.4946  2.4065
 1115TIP3    H224837   4.032   0.603  14.787 -1.6053  1.2125 -1.2910
 1116TIP3   OH224838   3.517   1.000   0.987  0.2783  0.5794  0.6744
 1116TIP3    H124839   3.557   1.017   1.072  1.0583 -0.7969  0.5778
 1116TIP3    H224840   3.590   0.987   0.927 -0.2009  3.3955 -0.6367
 1117TIP3   OH224841   3.983   6.002  14.900 -0.3473 -0.3336  0.5459
 1117TIP3    H124842   4.054   5.968  14.955 -1.4726 -2.4399  0.7734
 1117TIP3    H224843   4.008   5.979  14.811 -0.5043 -0.6615  0.5837
 1118TIP3   OH224844   4.909   2.392   2.892  0.2520  0.5216 -0.4684
 1118TIP3    H124845   4.931   2.402   2.984 -0.0908  0.9285 -0.4288
 1118TIP3    H224846   4.894   2.298   2.880 -0.6781  0.5938  0.1119
 1119TIP3   OH224847   0.042   5.692   2.411 -0.3175  0.5654  0.0871
 1119TIP3    H124848  -0.010   5.629   2.461 -1.3669  0.6059 -0.9328
 1119TIP3    H224849   0.055   5.650   2.326  2.2439  0.0977  0.6679
 1120TIP3   OH224850   3.349   3.824   2.655 -0.4646 -0.3456  0.0991
 1120TIP3    H124851   3.404   3.830   2.734 -1.6130  1.2925  0.8076
 1120TIP3    H224852   3.389   3.886   2.594 -1.3383  0.6418  0.5139
 1121TIP3   OH224853   1.654   3.137   0.992 -0.5277  0.4361 -0.3855
 1121TIP3    H124854   1.596   3.118   0.918  0.2264 -0.3713 -0.7832
 1121TIP3    H224855   1.707   3.211   0.963  1.1186 -1.1127 -1.4377
 1122TIP3   OH224856   1.034   5.318  16.545 -0.6435 -0.5050  0.0575
 1122TIP3    H124857   1.019   5.367  16.626 -1.0979  1.1242 -0.9856
 1122TIP3    H224858   1.124   5.288  16.552 -0.8158 -0.7550  1.3588
 1123TIP3   OH224859   5.648   3.712   0.850 -0.0046  0.1212  0.1577
 1123TIP3    H124860   5.602   3.636   0.815 -0.3543  0.7667 -0.7949
 1123TIP3    H224861   5.719   3.675   0.902  0.2342 -0.8480 -0.8570
 1124TIP3   OH224862   3.573   3.976   1.652 -0.6534  0.1801 -0.5506
 1124TIP3    H124863   3.580   4.008   1.742  3.6849  0.8604 -1.0106
 1124TIP3    H224864   3.568   3.881   1.661  1.3595  0.1494  0.3794
 1125TIP3   OH224865   2.132   1.455   1.711  0.3270 -0.1075  0.1351
 1125TIP3    H124866   2.068   1.501   1.764  0.8843  0.7916  0.0263
 1125TIP3    H224867   2.109   1.477   1.621 -0.0246 -0.8612  0.0299
 1126TIP3   OH224868   0.978   5.899   4.149  0.4323  0.4108 -0.1013
 1126TIP3    H124869   0.908   5.913   4.213  0.2501  0.4237 -0.2993
 1126TIP3    H224870   1.058   5.926   4.193  0.3415  0.1582  0.2164
 1127TIP3   OH224871   5.730   3.190  13.029 -0.3536 -0.6610 -0.2276
 1127TIP3    H124872   5.709   3.251  12.957  0.4927 -0.3519 -0.2149
 1127TIP3    H224873   5.646   3.176  13.073 -0.4306  1.1233  0.2513
 1128TIP3   OH224874   5.207   3.289   1.365 -0.1773  0.0839  0.2188
 1128TIP3    H124875   5.272   3.323   1.303  0.6845  0.2284  1.2038
 1128TIP3    H224876   5.130   3.345   1.352 -0.0528  0.0278 -0.8176
 1129TIP3   OH224877   1.580   3.086  10.154 -0.0986 -0.3374 -0.1944
 1129TIP3    H124878   1.560   3.025  10.083  0.2817 -2.1495  1.2191
 1129TIP3    H224879   1.673   3.105  10.143 -0.1097 -0.3844 -0.3705
 1130TIP3   OH224880   3.511   3.010   0.464  0.2192 -0.1599  0.2741
 1130TIP3    H124881   3.504   2.924   0.422 -0.1922 -0.0564  0.1345
 1130TIP3    H224882   3.581   3.055   0.415 -0.8530  0.2895 -0.8742
 1131TIP3   OH224883   1.336   3.483   4.067 -0.4931 -0.2448  0.5180
 1131TIP3    H124884   1.327   3.512   3.976 -1.0535 -0.0044  0.6458
 1131TIP3    H224885   1.374   3.558   4.113  3.0586 -1.5268 -0.1743
 1132TIP3   OH224886   2.549   0.249  16.932 -1.3371 -0.0712  0.3316
 1132TIP3    H124887   2.642   0.268  16.931 -0.8763 -2.1665 -1.5353
 1132TIP3    H224888   2.511   0.311  16.870 -0.7096 -1.1411 -1.1753
 1133TIP3   OH224889   2.556   1.851  15.325 -0.0320 -0.4678 -0.3107
 1133TIP3    H124890   2.620   1.876  15.258  1.6540 -0.1356  1.3994
 1133TIP3    H224891   2.484   1.912  15.313  1.1539  0.9273 -0.5143
 1134TIP3   OH224892   6.267   5.518   1.363  0.0634 -0.1865 -0.6828
 1134TIP3    H124893   6.297   5.559   1.282 -3.5384 -1.5428 -2.8225
 1134TIP3    H224894   6.271   5.424   1.345 -0.8309 -0.4999  0.6995
 1135TIP3   OH224895   2.388   4.425   0.067 -0.2066 -0.1972  0.1009
 1135TIP3    H124896   2.437   4.358   0.114 -1.7080  0.2275  2.3165
 1135TIP3    H224897   2.346   4.377  -0.005 -0.5416 -1.4744  1.1377
 1136TIP3   OH224898   1.034   0.138   2.514 -0.1575 -0.1836 -0.4774
 1136TIP3    H124899   1.068   0.194   2.584 -0.2114 -0.1236 -0.4989
 1136TIP3    H224900   1.111   0.118   2.460 -0.1591 -0.0328 -0.5368
 1137TIP3   OH224901   6.214   5.365  11.142 -0.1062 -0.2294 -0.2725
 1137TIP3    H124902   6.174   5.317  11.069  0.2226 -0.7993 -0.0794
 1137TIP3    H224903   6.174   5.452  11.138 -0.4692 -0.4182 -0.8213
 1138TIP3   OH224904   1.278   5.922  11.146 -0.3976  0.1867 -0.6748
 1138TIP3    H124905   1.326   5.903  11.065 -0.4122 -1.1196 -0.3809
 1138TIP3    H224906   1.295   6.015  11.161 -1.2674  0.7192 -2.7419
 1139TIP3   OH224907   5.295   1.186  14.993 -0.3431  0.3167  0.5561
 1139TIP3    H124908   5.367   1.221  14.941  0.0037 -0.6631  0.3832
 1139TIP3    H224909   5.337   1.126  15.055 -1.0586 -0.5390  0.2114
 1140TIP3   OH224910   1.730   5.291  17.190  0.1572  0.2203 -0.1341
 1140TIP3    H124911   1.756   5.209  17.148 -1.8790  0.2285 -1.4797
 1140TIP3    H224912   1.809   5.322  17.234  1.6476 -1.1039 -1.8506
 1141TIP3   OH224913   5.598   5.435  13.731  0.6182  0.1115 -0.6860
 1141TIP3    H124914   5.664   5.436  13.800 -1.2158  2.0481  1.0843
 1141TIP3    H224915   5.564   5.345  13.731 -0.5728  0.5155  2.1447
 1142TIP3   OH224916   4.660   1.624   2.768  0.1625  0.9911 -0.0597
 1142TIP3    H124917   4.613   1.648   2.689 -1.2889  2.6535  1.2496
 1142TIP3    H224918   4.717   1.700   2.785  1.2027  0.2151 -0.0673
 1143TIP3   OH224919   1.514   4.599   5.405 -0.2476  0.1497 -0.3068
 1143TIP3    H124920   1.427   4.599   5.444 -0.4174 -0.7514 -0.6702
 1143TIP3    H224921   1.521   4.513   5.363  0.6530  0.3822 -0.6346
 1144TIP3   OH224922   0.776   4.253   0.632  0.3434 -0.1222  0.2328
 1144TIP3    H124923   0.738   4.243   0.545 -0.9681 -0.2375  0.8052
 1144TIP3    H224924   0.802   4.164   0.657  0.7478 -0.0853 -0.0499
 1145TIP3   OH224925   2.186   3.486   2.423  0.5587  0.2887  0.9437
 1145TIP3    H124926   2.102   3.463   2.385 -0.4078  0.3349  2.9770
 1145TIP3    H224927   2.229   3.540   2.357 -0.6404 -0.4657 -0.4600
 1146TIP3   OH224928   1.717   5.584   3.631 -0.0188  0.0869 -0.2489
 1146TIP3    H124929   1.690   5.500   3.668  0.5415 -0.1024 -0.2661
 1146TIP3    H224930   1.646   5.608   3.571 -0.3282 -0.2156 -0.0025
 1147TIP3   OH224931   3.220   2.265   2.684 -0.0225 -0.2009 -0.2463
 1147TIP3    H124932   3.192   2.337   2.741 -1.9106 -0.7767 -0.3925
 1147TIP3    H224933   3.313   2.281   2.668 -0.8265  3.3176 -1.8858
 1148TIP3   OH224934   6.363   6.316  17.058  0.2398  0.3717 -0.2235
 1148TIP3    H124935   6.456   6.292  17.056 -0.1238 -1.1735  0.5856
 1148TIP3    H224936   6.318   6.235  17.082 -1.4251  0.8210 -1.6986
 1149TIP3   OH224937   6.649   5.281  14.463 -0.3085  0.4717  0.1716
 1149TIP3    H124938   6.742   5.265  14.482 -0.8407 -0.8700  1.7128
 1149TIP3    H224939   6.614   5.318  14.544 -1.2768  0.3723 -0.2019
 1150TIP3   OH224940   1.780   2.285   1.068  0.3122  0.0946 -0.3542
 1150TIP3    H124941   1.806   2.377   1.070  0.2691  0.0967  1.5754
 1150TIP3    H224942   1.861   2.237   1.083  0.1146 -0.1220  0.0214
 1151TIP3   OH224943   2.686   5.663   4.783 -0.3073  0.5593  0.1062
 1151TIP3    H124944   2.674   5.706   4.698 -1.4579  1.0337  0.5064
 1151TIP3    H224945   2.655   5.726   4.847 -0.3934 -0.1998  0.8218
 1152TIP3   OH224946   0.488   2.813   3.478  0.2848 -0.2743 -0.1571
 1152TIP3    H124947   0.492   2.759   3.400  1.9023 -0.6761  0.1983
 1152TIP3    H224948   0.516   2.900   3.449 -1.3750  0.1566 -0.5169
 1153TIP3   OH224949   5.258   0.032  17.198 -0.3599 -0.4750 -0.3047
 1153TIP3    H124950   5.264   0.021  17.103 -0.8225 -0.8481 -0.2881
 1153TIP3    H224951   5.165   0.030  17.217 -0.2331 -1.2793  0.2597
 1154TIP3   OH224952   0.839   3.146   6.201 -0.7168 -0.0689 -0.0686
 1154TIP3    H124953   0.792   3.192   6.270  2.0112  1.7214  0.6595
 1154TIP3    H224954   0.884   3.074   6.246  1.6278  1.5175  0.1917
 1155TIP3   OH224955   5.073   4.288  14.292  0.6978 -0.2267 -0.3781
 1155TIP3    H124956   5.126   4.214  14.262  0.5101 -0.1112 -0.9915
 1155TIP3    H224957   4.984   4.265  14.267  0.7829  0.7197 -1.5906
 1156TIP3   OH224958   6.470   5.948   3.215  0.0749  0.5951 -0.5766
 1156TIP3    H124959   6.412   5.979   3.284 -1.5100 -1.2442 -1.0426
 1156TIP3    H224960   6.454   5.854   3.210  3.4695 -0.0621 -0.3896
 1157TIP3   OH224961   2.561   5.129   0.168  0.3768  0.3033  0.3662
 1157TIP3    H124962   2.655   5.136   0.184  0.3846  1.4300 -0.0647
 1157TIP3    H224963   2.549   5.168   0.081 -0.3453 -0.8482 -0.0546
 1158TIP3   OH224964   6.616   4.427  12.348 -0.3707 -0.1103  0.2838
 1158TIP3    H124965   6.575   4.437  12.263 -0.2217 -0.9378  0.1117
 1158TIP3    H224966   6.545   4.398  12.406 -0.3459 -0.1149  0.3115
 1159TIP3   OH224967   0.998   2.987  13.784  0.1435 -0.2658  0.2779
 1159TIP3    H124968   1.072   2.926  13.775  1.4592  1.4701 -1.1297
 1159TIP3    H224969   1.010   3.049  13.713 -0.6271  2.1943  2.2295
 1160TIP3   OH224970   1.108   3.195   4.563  0.5133 -0.0529 -0.7365
 1160TIP3    H124971   1.089   3.229   4.651 -1.6051  1.3806 -1.7274
 1160TIP3    H224972   1.062   3.111   4.560 -1.4322  0.9960 -1.2800
 1161TIP3   OH224973   1.339   1.296   3.076  0.6424 -0.1559 -0.1828
 1161TIP3    H124974   1.434   1.305   3.070  0.8495 -1.7336  0.5717
 1161TIP3    H224975   1.312   1.367   3.136  1.3080  0.4186 -0.5591
 1162TIP3   OH224976   0.029   4.522   2.326  0.2695  0.0719  0.4942
 1162TIP3    H124977  -0.040   4.575   2.367 -0.2306 -0.4315  0.3168
 1162TIP3    H224978   0.037   4.446   2.383 -1.2146 -1.1785 -0.9059
 1163TIP3   OH224979   0.615   5.346  12.499 -0.7327  0.2527 -0.1630
 1163TIP3    H124980   0.689   5.317  12.553 -0.8172 -0.7812 -0.5797
 1163TIP3    H224981   0.599   5.436  12.527 -0.3113 -0.0250  1.0273
 1164TIP3   OH224982   1.587   2.565   3.951  0.2309 -0.3083 -0.2794
 1164TIP3    H124983   1.610   2.500   4.017  0.6377 -0.3175 -0.4300
 1164TIP3    H224984   1.497   2.544   3.926  0.5178 -1.0911 -0.6570
 1165TIP3   OH224985   2.465   2.601   4.109 -0.3226 -0.5847  0.0344
 1165TIP3    H124986   2.421   2.674   4.066 -1.2700 -1.5675 -0.6770
 1165TIP3    H224987   2.499   2.548   4.038  1.5650 -0.1288  0.5700
 1166TIP3   OH224988   6.472   2.887   2.731 -0.0774  0.3581 -0.1451
 1166TIP3    H124989   6.548   2.881   2.673 -0.2536  0.2342 -0.3619
 1166TIP3    H224990   6.508   2.915   2.816  0.0656  1.4454 -0.5553
 1167TIP3   OH224991   5.778   5.771   1.197 -0.6688  0.1471 -0.7546
 1167TIP3    H124992   5.712   5.840   1.209 -2.9106 -1.4763 -3.0327
 1167TIP3    H224993   5.727   5.690   1.194  1.5078 -1.2339 -1.9593
 1168TIP3   OH224994   4.901   5.187  11.993  0.0087  0.1998 -0.1772
 1168TIP3    H124995   4.938   5.275  11.996  1.0199 -0.2114 -0.2890
 1168TIP3    H224996   4.928   5.147  12.076 -0.4206 -0.0156 -0.1432
 1169TIP3   OH224997   0.073   1.247  16.957 -0.0190  0.5304  0.5011
 1169TIP3    H124998   0.090   1.306  17.031  0.4147  0.8034  0.1817
 1169TIP3    H224999   0.049   1.304  16.885 -0.6361  0.2489  0.4815
 1170TIP3   OH225000   4.115   3.255   1.165 -0.0423 -0.1556 -0.5076
 1170TIP3    H125001   4.094   3.175   1.117  0.3407 -0.7972  0.3759
 1170TIP3    H225002   4.035   3.277   1.213 -0.6076  0.8007 -1.8515
 1171TIP3   OH225003   1.008   0.717  16.179 -0.1270  0.4085 -0.4593
 1171TIP3    H125004   1.031   0.653  16.112  0.7975  1.9018 -1.5838
 1171TIP3    H225005   1.071   0.702  16.250 -0.2934 -0.3160 -0.4607
 1172TIP3   OH225006   1.794   3.679  14.773 -0.0099 -0.2797 -0.3104
 1172TIP3    H125007   1.713   3.690  14.823  0.0642 -0.0169 -0.2511
 1172TIP3    H225008   1.837   3.603  14.813  0.3278  0.2835  0.3834
 1173TIP3   OH225009   2.590   2.813  15.972  0.0919 -0.5611 -0.1179
 1173TIP3    H125010   2.529   2.885  15.956 -0.1660 -0.5675  0.7858
 1173TIP3    H225011   2.538   2.733  15.959 -0.1831 -0.5647  0.9569
 1174TIP3   OH225012   5.341   1.536  15.965 -0.1463  0.2945 -0.5055
 1174TIP3    H125013   5.374   1.454  15.930  0.7507  0.3997  0.0772
 1174TIP3    H225014   5.248   1.519  15.982  0.3396 -1.0560  0.9433
 1175TIP3   OH225015   6.147   6.068  16.026  0.4103 -0.6596 -0.5989
 1175TIP3    H125016   6.163   6.143  15.968  0.5271 -1.0982 -1.1404
 1175TIP3    H225017   6.052   6.053  16.019  0.1234  0.4708  0.7954
 1176TIP3   OH225018   4.021   1.913   3.659 -0.3756 -0.2771  0.2446
 1176TIP3    H125019   3.965   1.951   3.726  0.1239  1.5444 -0.3465
 1176TIP3    H225020   4.096   1.878   3.707 -1.2565 -1.3213  0.8750
 1177TIP3   OH225021   5.719   6.296  14.316  0.3519  0.0605  0.1184
 1177TIP3    H125022   5.755   6.384  14.304  0.0062 -0.0186 -1.6195
 1177TIP3    H225023   5.675   6.299  14.401 -0.6302  1.9116 -0.4352
 1178TIP3   OH225024   3.122   6.063   0.532 -0.1358  0.0871  0.3070
 1178TIP3    H125025   3.172   6.025   0.605 -0.7572 -0.9543  0.2010
 1178TIP3    H225026   3.184   6.122   0.489  1.0786 -1.3455  0.0436
 1179TIP3   OH225027   2.030   1.131  15.586 -0.0023  0.1045  0.4331
 1179TIP3    H125028   2.050   1.110  15.677 -0.4325  0.5934  0.6395
 1179TIP3    H225029   2.073   1.062  15.535 -0.3023 -0.5362  1.0437
 1180TIP3   OH225030   1.659   6.102   3.774 -0.1556  0.6977  0.3784
 1180TIP3    H125031   1.642   6.024   3.720  0.7695  1.1812 -0.6289
 1180TIP3    H225032   1.747   6.130   3.748 -1.0693  2.9769 -0.3972
 1181TIP3   OH225033   4.862   1.073   1.037  0.0640  0.5828 -0.1112
 1181TIP3    H125034   4.795   1.123   1.083  1.3559  1.0908  1.2294
 1181TIP3    H225035   4.941   1.082   1.091  0.8263 -1.2435 -0.8929
 1182TIP3   OH225036   3.006   0.112  16.404 -0.2662  0.2347  0.9141
 1182TIP3    H125037   3.041   0.053  16.337 -0.5853 -0.6276  1.4927
 1182TIP3    H225038   2.928   0.151  16.363  0.1375  0.5102  0.4043
 1183TIP3   OH225039   0.754   2.903   6.375  0.0174 -0.3455 -0.0589
 1183TIP3    H125040   0.736   2.903   6.281 -0.0294 -0.5912 -0.0493
 1183TIP3    H225041   0.770   2.811   6.396  0.3555 -0.2468  0.1115
 1184TIP3   OH225042   4.325   4.807  14.781  0.3477 -0.2808 -0.3758
 1184TIP3    H125043   4.417   4.800  14.807  0.2107 -1.7852 -0.2406
 1184TIP3    H225044   4.304   4.721  14.745 -1.2377 -0.1948  0.3022
 1185TIP3   OH225045   5.556   2.209  12.866  0.1174 -0.4450  0.7973
 1185TIP3    H125046   5.496   2.216  12.941 -0.7017  1.5120 -0.0006
 1185TIP3    H225047   5.498   2.205  12.790  0.9475 -2.3579  0.2454
 1186TIP3   OH225048   4.572   1.025  16.155  0.0540  0.2949  0.5983
 1186TIP3    H125049   4.523   0.949  16.123 -1.6765  1.3603  0.6941
 1186TIP3    H225050   4.591   1.077  16.077  2.1418 -0.7048  0.3899
 1187TIP3   OH225051   3.411   5.977   0.434  0.2158  0.1042 -0.3545
 1187TIP3    H125052   3.413   6.067   0.466 -0.5815  0.3877 -1.0836
 1187TIP3    H225053   3.468   5.979   0.357  0.6253 -0.1457 -0.0618
 1188TIP3   OH225054   2.041   1.740  16.482 -0.1949 -0.4340 -0.0002
 1188TIP3    H125055   2.121   1.789  16.463  0.0748 -1.7597 -2.6320
 1188TIP3    H225056   1.970   1.797  16.451  0.0216 -0.9467 -1.5154
 1189TIP3   OH225057   3.384   2.438   4.130 -0.2993 -0.3798 -0.1381
 1189TIP3    H125058   3.454   2.446   4.065 -1.5716 -1.5896 -1.7037
 1189TIP3    H225059   3.361   2.528   4.153  1.1877  0.0375 -0.2144
 1190TIP3   OH225060   2.018   1.433   3.642  0.1325  0.0495  0.4386
 1190TIP3    H125061   2.004   1.450   3.735 -0.6349 -1.1006  0.5511
 1190TIP3    H225062   1.965   1.498   3.596  0.1038  0.2828  0.8062
 1191TIP3   OH225063   3.099   2.818   4.344 -0.2322 -0.2763 -0.0305
 1191TIP3    H125064   3.069   2.821   4.435  0.1627 -0.2935  0.1022
 1191TIP3    H225065   3.190   2.787   4.350 -0.6023 -1.5090 -0.5259
 1192TIP3   OH225066   5.090   6.146  15.119  0.4118  0.7204  0.1048
 1192TIP3    H125067   5.053   6.146  15.031  2.1580  1.5461 -0.6557
 1192TIP3    H225068   5.032   6.090  15.170  0.5656 -1.5218 -2.1013
 1193TIP3   OH225069   2.815   6.596   0.034 -0.0885 -0.2865 -0.2503
 1193TIP3    H125070   2.753   6.525   0.021  0.6218 -0.6094 -2.0695
 1193TIP3    H225071   2.883   6.581  -0.033  0.6703  1.4249  0.1076
 1194TIP3   OH225072   4.062   1.023  11.232 -0.6474  0.0674 -0.4045
 1194TIP3    H125073   4.094   1.098  11.183 -0.6427 -0.7031 -1.6079
 1194TIP3    H225074   4.083   1.042  11.323  0.4382  0.9713 -0.8438
 1195TIP3   OH225075   0.482   1.414   0.361 -0.1502 -0.2249  0.2569
 1195TIP3    H125076   0.426   1.344   0.397  0.0869 -0.8300 -0.5413
 1195TIP3    H225077   0.507   1.465   0.438 -1.6392 -0.0640  0.6559
 1196TIP3   OH225078   5.020   3.080   1.073  0.0338  0.3878 -0.0402
 1196TIP3    H125079   5.092   3.069   1.136  0.7561  0.8856 -0.7742
 1196TIP3    H225080   5.059   3.129   1.001 -0.3194 -1.7649 -1.7241
 1197TIP3   OH225081   2.280   6.041   1.894  1.1093  0.2793 -0.2645
 1197TIP3    H125082   2.267   5.950   1.869 -0.1277  0.4246 -0.1575
 1197TIP3    H225083   2.271   6.090   1.812  1.5521  0.3242 -0.2860
 1198TIP3   OH225084   4.248   6.370   2.384 -0.0758 -0.0729  0.0638
 1198TIP3    H125085   4.206   6.299   2.432  0.8020 -0.6401  0.0021
 1198TIP3    H225086   4.176   6.415   2.341 -0.7007 -0.5674  0.5796
 1199TIP3   OH225087   0.613   1.413   2.413 -0.0664  0.5183 -0.5273
 1199TIP3    H125088   0.601   1.329   2.369  1.2365 -0.8402  1.6298
 1199TIP3    H225089   0.613   1.392   2.506 -0.5266  3.0360  0.0939
 1200TIP3   OH225090   0.121   0.339   1.492  0.8787  0.2842 -0.4973
 1200TIP3    H125091   0.196   0.282   1.507  0.9490  0.4559 -0.2062
 1200TIP3    H225092   0.088   0.312   1.406  0.3660 -0.8131  0.0338
 1201TIP3   OH225093   1.180   1.554   1.411 -0.5071 -0.2712 -0.6796
 1201TIP3    H125094   1.207   1.544   1.320  1.2591 -0.5623 -0.1404
 1201TIP3    H225095   1.223   1.482   1.457  0.9594  1.5349  0.8556
 1202TIP3   OH225096   0.831   4.182   2.058  0.2365 -0.2110  0.3704
 1202TIP3    H125097   0.895   4.187   2.129 -0.8014 -1.5214  1.4162
 1202TIP3    H225098   0.883   4.193   1.978  1.3039  2.0950  1.3445
 1203TIP3   OH225099   5.398   1.378  12.882  0.4040  0.0876  0.0416
 1203TIP3    H125100   5.462   1.377  12.811 -0.2137  1.0876 -0.5358
 1203TIP3    H225101   5.449   1.357  12.961  1.1413 -0.7410 -0.6436
 1204TIP3   OH225102   2.060   1.877   5.012  0.0405  0.0804 -0.4802
 1204TIP3    H125103   2.051   1.971   5.022  0.6397  0.2424 -1.4449
 1204TIP3    H225104   1.984   1.841   5.058 -1.1355  1.1044 -1.5949
 1205TIP3   OH225105   2.295   0.542   4.434 -0.4166 -0.5123 -0.1138
 1205TIP3    H125106   2.296   0.543   4.339 -1.3900 -0.1801 -0.1206
 1205TIP3    H225107   2.335   0.458   4.458 -0.2497 -0.6312 -0.8055
 1206TIP3   OH225108   0.744   0.142  11.385  0.1981  0.3029  0.0125
 1206TIP3    H125109   0.750   0.096  11.302  0.8236  0.1676  0.1267
 1206TIP3    H225110   0.818   0.203  11.384 -0.1706  0.7574  0.1901
 1207TIP3   OH225111   4.526   5.633   5.208 -0.1351 -0.5392  0.7041
 1207TIP3    H125112   4.504   5.581   5.285  1.0329 -1.7370  0.2366
 1207TIP3    H225113   4.466   5.601   5.140 -0.7963  0.1424  0.9601
 1208TIP3   OH225114   3.161   6.664  11.965  0.6458  0.8803 -0.0729
 1208TIP3    H125115   3.084   6.673  11.910  0.6851 -2.0392 -0.6936
 1208TIP3    H225116   3.127   6.653  12.054  0.3862  0.6116 -0.2072
 1209TIP3   OH225117   6.797   1.260   0.679  0.1909 -0.1384 -0.2502
 1209TIP3    H125118   6.716   1.301   0.649 -0.5974 -1.7094 -0.3274
 1209TIP3    H225119   6.821   1.201   0.608  0.9971 -0.2293  0.0983
 1210TIP3   OH225120   4.419   4.734   2.987  0.0163 -0.6040 -0.4608
 1210TIP3    H125121   4.506   4.717   3.023 -0.2403 -1.0812 -0.0543
 1210TIP3    H225122   4.419   4.828   2.966  0.5254 -0.5428 -0.1856
 1211TIP3   OH225123   1.717   6.490   5.449  0.2157 -0.5805 -0.0841
 1211TIP3    H125124   1.754   6.528   5.369  0.7956  0.0312  0.4735
 1211TIP3    H225125   1.656   6.424   5.417  0.5262 -0.4209 -1.0385
 1212TIP3   OH225126   5.526   0.607  16.153  0.0942  0.3525  0.1878
 1212TIP3    H125127   5.480   0.528  16.123  0.8043  0.4131 -1.1118
 1212TIP3    H225128   5.457   0.668  16.176 -0.4793 -0.9814  2.1592
 1213TIP3   OH225129   2.911   4.458  16.043 -0.6083 -0.4740 -0.1782
 1213TIP3    H125130   2.851   4.512  15.992 -1.5776  0.6066  2.0273
 1213TIP3    H225131   2.866   4.374  16.054 -0.9314 -0.2848 -0.0664
 1214TIP3   OH225132   5.513   5.525   1.775  0.2559  0.6173 -0.6445
 1214TIP3    H125133   5.494   5.605   1.824 -0.6330 -0.3200  0.5759
 1214TIP3    H225134   5.460   5.533   1.696 -2.3493 -0.1649  0.9350
 1215TIP3   OH225135   3.353   4.201  13.435 -0.1312 -0.2793 -0.5125
 1215TIP3    H125136   3.376   4.137  13.503  0.7790  0.2135 -0.3457
 1215TIP3    H225137   3.298   4.265  13.481  1.8540  0.9583  0.1784
 1216TIP3   OH225138   3.187   1.696  14.121  0.1147 -0.1177  0.2078
 1216TIP3    H125139   3.228   1.742  14.047 -1.0349 -1.3688 -1.2437
 1216TIP3    H225140   3.097   1.728  14.121 -0.8546 -2.7198 -1.1623
 1217TIP3   OH225141   4.261   1.078   1.552  0.7267 -0.3614  0.2747
 1217TIP3    H125142   4.227   1.071   1.462 -0.8455  2.8775  0.5425
 1217TIP3    H225143   4.188   1.052   1.607  1.1873 -0.8460  0.6518
 1218TIP3   OH225144   6.071   0.503   5.347 -0.1366  0.1735 -0.3326
 1218TIP3    H125145   6.056   0.471   5.436 -0.1041  1.5346  0.1689
 1218TIP3    H225146   6.018   0.445   5.292  1.7479 -2.2420  0.3089
 1219TIP3   OH225147   2.045   5.066  14.052  0.2249 -0.0110  0.1317
 1219TIP3    H125148   2.012   5.094  14.138 -0.0186  1.4408 -0.4163
 1219TIP3    H225149   1.970   5.027  14.009  0.0431  0.3282  0.1384
 1220TIP3   OH225150   6.251   2.200   2.118  0.3437  0.4994 -0.8022
 1220TIP3    H125151   6.331   2.222   2.165  0.0585  2.7126 -1.3149
 1220TIP3    H225152   6.183   2.255   2.157 -0.9485 -1.3199 -0.3947
 1221TIP3   OH225153   1.169   5.609   5.332 -0.1194  0.2949  0.2630
 1221TIP3    H125154   1.100   5.600   5.397 -0.1454 -0.0473  0.1876
 1221TIP3    H225155   1.246   5.568   5.373 -1.1304 -3.4908 -1.4848
 1222TIP3   OH225156   1.126   5.605   4.382  0.0378 -0.0658 -1.0137
 1222TIP3    H125157   1.175   5.590   4.301  0.8541 -0.4102 -0.4696
 1222TIP3    H225158   1.041   5.637   4.354 -0.0157 -1.1023 -2.0339
 1223TIP3   OH225159   4.102   0.384  15.940  0.0570  0.2574 -0.4546
 1223TIP3    H125160   4.024   0.377  15.885  1.4361  0.6694 -2.5114
 1223TIP3    H225161   4.152   0.304  15.921  1.0516  0.9126 -0.5873
 1224TIP3   OH225162   1.133   2.209   0.649 -0.0444  0.5990  0.0574
 1224TIP3    H125163   1.205   2.249   0.698 -0.1100 -1.9981  2.3748
 1224TIP3    H225164   1.176   2.147   0.590 -0.1856  1.3203 -0.8053
 1225TIP3   OH225165   1.572   5.233  15.998  0.0815 -0.0318  0.1237
 1225TIP3    H125166   1.490   5.184  16.001  0.8803 -1.3408  1.7828
 1225TIP3    H225167   1.626   5.184  15.936  0.2134 -0.1771  0.3511
 1226TIP3   OH225168   5.227   1.915  17.242  0.0843  0.1894  0.4507
 1226TIP3    H125169   5.261   2.004  17.231  2.2804 -0.6679 -0.0031
 1226TIP3    H225170   5.190   1.893  17.157  1.8213 -0.2423 -0.2082
 1227TIP3   OH225171   0.172   5.197  11.025 -0.1513  0.7454  0.2004
 1227TIP3    H125172   0.209   5.146  11.097  1.3180  0.3966 -0.7762
 1227TIP3    H225173   0.177   5.288  11.056  1.0610  0.6586  0.3072
 1228TIP3   OH225174   6.042   0.396   6.925  0.1374 -0.1651  0.0486
 1228TIP3    H125175   6.036   0.443   6.842 -0.4501  1.4753  0.9938
 1228TIP3    H225176   6.136   0.392   6.944  0.3081 -1.0182 -0.9430
 1229TIP3   OH225177   1.791   2.331  12.491 -0.0067  0.2559  0.3723
 1229TIP3    H125178   1.814   2.424  12.490  0.2944  0.1718 -1.3892
 1229TIP3    H225179   1.840   2.293  12.418 -0.6632 -1.1625  0.6463
 1230TIP3   OH225180   4.210   3.473  16.369  0.2160  0.3587  0.0489
 1230TIP3    H125181   4.301   3.473  16.400  0.5657  1.6954 -0.9396
 1230TIP3    H225182   4.204   3.396  16.313  0.5464 -0.1299  0.6802
 1231TIP3   OH225183   4.350   2.017  16.628  0.0366 -0.1448  0.4062
 1231TIP3    H125184   4.430   2.031  16.679 -0.7073  1.8145  1.1110
 1231TIP3    H225185   4.365   2.063  16.545 -0.0219 -0.5047  0.1935
 1232TIP3   OH225186   3.471   4.355  16.848  0.1654  0.8003 -0.0859
 1232TIP3    H125187   3.555   4.383  16.811  0.4830 -0.1300 -0.0804
 1232TIP3    H225188   3.472   4.259  16.840 -1.0494  0.8060 -0.4228
 1233TIP3   OH225189   6.146   5.583   2.450  0.8046 -0.2314  1.0441
 1233TIP3    H125190   6.216   5.647   2.433  0.5735  0.1613  1.5584
 1233TIP3    H225191   6.108   5.610   2.533 -0.5521  0.0868  0.3436
 1234TIP3   OH225192   3.870   5.800   3.979  0.0656 -1.2773 -0.8338
 1234TIP3    H125193   3.869   5.790   4.074  2.4655  0.4445 -0.6138
 1234TIP3    H225194   3.779   5.821   3.957 -0.2949 -0.5514  1.2017
 1235TIP3   OH225195   4.889   2.252   5.074  0.3186 -0.0196  0.4614
 1235TIP3    H125196   4.794   2.241   5.080  0.4017 -0.8118  0.2967
 1235TIP3    H225197   4.922   2.165   5.053  1.1660  0.0684  1.4063
 1236TIP3   OH225198   4.594   5.561  11.083 -0.3643  0.1301 -0.8454
 1236TIP3    H125199   4.655   5.540  11.012  0.9260  3.5064 -0.8028
 1236TIP3    H225200   4.510   5.575  11.039 -0.7442 -2.6156 -1.1064
 1237TIP3   OH225201   6.403   1.693   2.556 -0.0485  0.1772  0.1625
 1237TIP3    H125202   6.484   1.698   2.606  0.6707  0.2850 -0.9866
 1237TIP3    H225203   6.351   1.768   2.585 -0.0258 -0.2665  1.3835
 1238TIP3   OH225204   5.515   0.419   1.871  0.3224 -0.0312  0.1006
 1238TIP3    H125205   5.570   0.481   1.920  2.1497  0.2517 -2.2065
 1238TIP3    H225206   5.505   0.344   1.929  1.3719  0.8311  1.4199
 1239TIP3   OH225207   5.914   2.568   1.024 -0.0670  0.4520  0.4147
 1239TIP3    H125208   5.978   2.569   1.095  0.2324  1.9300  0.1334
 1239TIP3    H225209   5.966   2.561   0.944 -0.3607 -0.3537  0.2893
 1240TIP3   OH225210   0.689   2.842   0.176  0.5694 -0.4174  0.1484
 1240TIP3    H125211   0.737   2.918   0.208 -0.5484 -0.0480  1.0065
 1240TIP3    H225212   0.651   2.802   0.255 -1.0741 -0.3003 -0.5552
 1241TIP3   OH225213   1.859   2.159  12.681  0.2357  0.5365  0.0922
 1241TIP3    H125214   1.915   2.095  12.637 -1.1131 -0.6632  0.0692
 1241TIP3    H225215   1.834   2.220  12.612  0.5765  0.4177 -0.1424
 1242TIP3   OH225216   4.845   0.590   0.504  0.5495  0.1489 -0.3629
 1242TIP3    H125217   4.849   0.650   0.578  0.9763 -0.1655 -0.1318
 1242TIP3    H225218   4.926   0.539   0.509  2.2156  2.3594 -2.9280
 1243TIP3   OH225219   0.634   6.680  16.651 -0.2810 -0.5231 -0.4197
 1243TIP3    H125220   0.694   6.681  16.577 -0.8724 -0.1822 -0.9000
 1243TIP3    H225221   0.690   6.688  16.728  0.1752  1.5036 -0.9264
 1244TIP3   OH225222   4.496   6.282   5.233  0.1898 -0.9563 -0.0713
 1244TIP3    H125223   4.422   6.262   5.289  0.0203 -0.6471 -0.1789
 1244TIP3    H225224   4.568   6.298   5.293 -0.2603  0.4710  0.1161
 1245TIP3   OH225225   4.365   4.282   2.518 -0.2830  0.0758  0.1571
 1245TIP3    H125226   4.444   4.312   2.473 -0.9540 -0.7919 -1.6511
 1245TIP3    H225227   4.301   4.351   2.502 -0.3427  0.0461  0.2691
 1246TIP3   OH225228   6.238   0.149  15.960  0.6485  0.1270 -0.3438
 1246TIP3    H125229   6.263   0.070  16.007  0.2086 -0.1290 -0.5321
 1246TIP3    H225230   6.180   0.195  16.020 -0.2554 -0.4089 -0.7865
 1247TIP3   OH225231   3.361   1.435  14.840 -0.4929  0.0209 -0.2188
 1247TIP3    H125232   3.294   1.502  14.832  2.0187  3.1332  3.0115
 1247TIP3    H225233   3.392   1.421  14.750 -4.1362 -0.2413 -1.5142
 1248TIP3   OH225234   1.212   2.335   4.810  0.5366  0.0034 -0.0035
 1248TIP3    H125235   1.246   2.376   4.730 -1.9763 -1.3950 -1.8637
 1248TIP3    H225236   1.251   2.247   4.809  0.1902 -0.1492  0.1184
 1249TIP3   OH225237   4.188   4.168  12.346  0.7283  0.1982  0.1834
 1249TIP3    H125238   4.176   4.085  12.393  1.6823  0.4069  0.8104
 1249TIP3    H225239   4.153   4.151  12.259 -0.4399 -0.4051  0.7569
 1250TIP3   OH225240   4.785   3.663  11.700  0.0454 -0.1674  0.2131
 1250TIP3    H125241   4.752   3.574  11.712  0.6894 -0.6463 -1.3227
 1250TIP3    H225242   4.707   3.716  11.686 -0.2078 -1.0796 -2.1608
 1251TIP3   OH225243   6.392   6.024  16.623  0.3048  0.4943 -0.6233
 1251TIP3    H125244   6.425   6.055  16.707 -2.8764 -0.1856  0.9627
 1251TIP3    H225245   6.392   6.102  16.567 -0.9955  1.8431  1.1729
 1252TIP3   OH225246   3.385   3.708   3.426 -0.0028  0.1645 -0.4469
 1252TIP3    H125247   3.307   3.653   3.434  0.5811 -0.8841 -1.7520
 1252TIP3    H225248   3.357   3.784   3.375 -0.1818 -0.2046 -0.8992
 1253TIP3   OH225249   3.448   1.134  16.485 -0.0402 -0.1955  0.1342
 1253TIP3    H125250   3.430   1.161  16.395  0.3487 -3.2783 -0.8976
 1253TIP3    H225251   3.516   1.196  16.515 -1.0599  1.6247 -1.2268
 1254TIP3   OH225252   0.042   5.161  12.540  0.4606 -0.5167  0.2040
 1254TIP3    H125253   0.044   5.115  12.624 -0.0569 -0.0463  0.4766
 1254TIP3    H225254   0.107   5.116  12.486 -0.7632 -2.2245  0.1295
 1255TIP3   OH225255   6.490   1.143  13.686 -0.2504 -0.1972  0.2934
 1255TIP3    H125256   6.452   1.197  13.617  1.8482  1.3317  0.2575
 1255TIP3    H225257   6.508   1.059  13.644  1.5527  0.9099 -1.2255
 1256TIP3   OH225258   0.092   4.051   5.600  0.4923 -0.1461 -0.3262
 1256TIP3    H125259   0.039   3.977   5.570  0.9636 -0.5464 -0.1834
 1256TIP3    H225260   0.081   4.118   5.533 -1.0299  0.1689  0.2206
 1257TIP3   OH225261   5.887   0.406  15.253 -0.2112  0.5111  0.7864
 1257TIP3    H125262   5.884   0.488  15.204  0.3417 -0.0391 -0.1674
 1257TIP3    H225263   5.953   0.421  15.321 -0.6440  1.1071  1.0825
 1258TIP3   OH225264   1.559   0.064   5.732 -0.2053 -0.5842 -0.1921
 1258TIP3    H125265   1.515   0.015   5.662  1.6163 -2.5039 -0.0561
 1258TIP3    H225266   1.652   0.048   5.717  0.2700  0.3008  1.7227
 1259TIP3   OH225267   2.676   6.618   2.671 -0.0342  0.0298  0.7505
 1259TIP3    H125268   2.610   6.582   2.613  0.7347 -1.5708  0.8566
 1259TIP3    H225269   2.645   6.707   2.691 -2.0275 -0.6379  0.6548
 1260TIP3   OH225270   2.775   0.266   1.646 -0.2314 -0.5075  0.5706
 1260TIP3    H125271   2.759   0.175   1.622 -0.0013 -0.7954  1.4980
 1260TIP3    H225272   2.842   0.296   1.585 -1.4799 -0.4591 -0.8153
 1261TIP3   OH225273   6.334   0.063   1.512  0.6305  0.1467  0.0848
 1261TIP3    H125274   6.256   0.017   1.483  0.6508 -0.1950  0.5701
 1261TIP3    H225275   6.306   0.154   1.521  0.0545 -0.1283  1.1302
 1262TIP3   OH225276   3.610   0.402  15.837  0.5642 -0.3070 -0.3677
 1262TIP3    H125277   3.635   0.383  15.927  0.7423 -1.2825 -0.6158
 1262TIP3    H225278   3.583   0.318  15.801 -0.4436  0.2434 -0.9404
 1263TIP3   OH225279   2.978   3.305   4.522 -0.2334  0.6814  0.1027
 1263TIP3    H125280   2.961   3.268   4.436  0.0082 -1.0701  0.7909
 1263TIP3    H225281   3.073   3.305   4.531 -0.2967 -0.4164  0.9003
 1264TIP3   OH225282   4.948   1.528   1.813 -0.0596 -0.0200 -0.3098
 1264TIP3    H125283   4.973   1.467   1.744 -1.9421 -1.1886 -0.0022
 1264TIP3    H225284   5.014   1.597   1.810  0.0471 -0.1971 -3.0887
 1265TIP3   OH225285   6.693   4.353  11.120  0.5040  0.3716 -0.0827
 1265TIP3    H125286   6.659   4.400  11.196  2.5840 -0.6132  1.5267
 1265TIP3    H225287   6.626   4.363  11.053 -0.5328  2.8534  1.2753
 1266TIP3   OH225288   2.273   0.145  16.797  0.0147  0.0378  0.5139
 1266TIP3    H125289   2.359   0.137  16.839  1.0254 -0.0643 -1.5292
 1266TIP3    H225290   2.285   0.215  16.733 -1.1254 -0.7162 -0.5263
 1267TIP3   OH225291   2.932   3.707  12.455 -0.3647  0.7933  0.1588
 1267TIP3    H125292   2.976   3.672  12.533  0.8689  3.1380  0.5672
 1267TIP3    H225293   2.839   3.696  12.473 -0.0164 -2.7920 -0.0187
 1268TIP3   OH225294   5.441   4.501   0.235 -0.1796 -0.5562  0.1635
 1268TIP3    H125295   5.357   4.456   0.245 -1.1487  1.0010 -0.7379
 1268TIP3    H225296   5.461   4.536   0.322 -1.7583  1.2523 -0.1644
 1269TIP3   OH225297   2.737   3.687  10.911  0.0996  0.4581 -0.6820
 1269TIP3    H125298   2.683   3.711  10.835  0.6325 -1.5328 -1.7336
 1269TIP3    H225299   2.690   3.614  10.951  0.3371  0.8631  0.3355
 1270TIP3   OH225300   5.252   6.518  16.716 -0.3203  0.3426  0.1159
 1270TIP3    H125301   5.327   6.459  16.706 -0.5769  0.1783 -0.8472
 1270TIP3    H225302   5.291   6.605  16.718 -0.0996  0.2583 -0.3910
 1271TIP3   OH225303   1.971   6.745  11.811  0.0481 -0.0221 -0.4112
 1271TIP3    H125304   1.921   6.715  11.887 -1.6092  3.0563 -0.2232
 1271TIP3    H225305   1.922   6.713  11.736 -1.0126  1.0637 -0.2013
 1272TIP3   OH225306   2.281   2.378  13.078  0.0081 -0.1012 -0.6508
 1272TIP3    H125307   2.280   2.388  12.983 -0.0925 -3.1308 -0.9932
 1272TIP3    H225308   2.191   2.358  13.102  0.4435 -1.5660 -0.1866
 1273TIP3   OH225309   5.097   6.772   4.976  0.1123  0.0907 -0.1818
 1273TIP3    H125310   5.151   6.772   5.055 -0.7957  0.7568  0.4477
 1273TIP3    H225311   5.128   6.696   4.927  0.3771 -0.6048  1.0324
 1274TIP3   OH225312   5.254   5.730   3.692 -0.0485  0.5069 -0.7313
 1274TIP3    H125313   5.220   5.724   3.603 -0.5941  0.9476 -0.5589
 1274TIP3    H225314   5.246   5.640   3.726  1.2805  0.0828 -1.5116
 1275TIP3   OH225315   2.144   0.658   3.928  0.3996  0.4319 -0.5623
 1275TIP3    H125316   2.145   0.576   3.878 -1.3700 -0.8854  1.4361
 1275TIP3    H225317   2.200   0.640   4.004  0.2854  1.1867 -0.2974
 1276TIP3   OH225318   5.595   5.693  16.702  1.0394  0.1157 -0.2059
 1276TIP3    H125319   5.571   5.641  16.626  0.8660 -0.7617  0.4391
 1276TIP3    H225320   5.686   5.720  16.685  1.0657 -0.2373 -0.6287
 1277TIP3   OH225321   6.188   1.747  11.604  0.4349  0.0328 -0.2730
 1277TIP3    H125322   6.246   1.670  11.602  2.1090  1.2906 -1.2868
 1277TIP3    H225323   6.100   1.710  11.598  1.0408 -1.9923  2.4286
 1278TIP3   OH225324   4.338   0.841   0.361 -0.2789  0.4109  0.3366
 1278TIP3    H125325   4.248   0.869   0.342 -0.5764 -1.4473 -1.2751
 1278TIP3    H225326   4.334   0.808   0.451 -1.9199 -2.1502 -0.5929
 1279TIP3   OH225327   5.596   6.029  16.143 -0.0901 -0.2037  0.6055
 1279TIP3    H125328   5.674   6.040  16.089 -1.0555  1.6362 -0.4278
 1279TIP3    H225329   5.630   5.998  16.227  1.9511  2.3215  0.7633
 1280TIP3   OH225330   1.798   6.013  16.537  0.3395  0.2532 -0.4513
 1280TIP3    H125331   1.742   6.089  16.521 -2.0833 -0.7981  2.5879
 1280TIP3    H225332   1.861   6.044  16.603 -0.8298 -0.4517  1.0007
 1281TIP3   OH225333   1.520   6.767  16.275 -0.2388  0.5954  0.2383
 1281TIP3    H125334   1.511   6.674  16.252  0.8922  0.7908 -1.0849
 1281TIP3    H225335   1.431   6.796  16.294 -0.6048 -0.7629  0.6819
 1282TIP3   OH225336   2.700   3.590   3.615 -0.0421 -0.0652 -0.0378
 1282TIP3    H125337   2.788   3.620   3.635 -0.2054  1.2058 -1.1704
 1282TIP3    H225338   2.702   3.570   3.521 -0.8473 -0.3998  0.0125
 1283TIP3   OH225339   2.333   4.202   5.786  0.2428  0.2640 -0.3381
 1283TIP3    H125340   2.400   4.248   5.837 -0.6294  1.2521 -0.0439
 1283TIP3    H225341   2.292   4.271   5.734  1.3879 -0.8066 -2.6991
 1284TIP3   OH225342   0.062   1.419   3.460 -0.1244 -0.0754 -0.0032
 1284TIP3    H125343  -0.008   1.424   3.395 -1.9892 -1.9867  1.7368
 1284TIP3    H225344   0.019   1.441   3.543  1.3317 -1.1907  1.0906
 1285TIP3   OH225345   5.418   0.318   5.857 -0.6409  0.0285  0.2462
 1285TIP3    H125346   5.339   0.295   5.905 -1.7859 -0.3811 -1.7507
 1285TIP3    H225347   5.424   0.252   5.788 -0.7163  2.2583 -1.9757
 1286TIP3   OH225348   0.988   1.144  14.928 -0.6052  0.2571 -0.0607
 1286TIP3    H125349   0.936   1.091  14.868  0.8124 -0.8516 -0.3371
 1286TIP3    H225350   1.076   1.145  14.890  0.4832 -1.0317  2.3193
 1287TIP3   OH225351   3.279   5.096  11.706  0.5859 -0.3401 -0.3234
 1287TIP3    H125352   3.352   5.036  11.693  0.0871 -0.8338 -0.8847
 1287TIP3    H225353   3.207   5.041  11.737 -0.0660 -0.1595 -1.4552
 1288TIP3   OH225354   2.779   1.888   0.299 -0.1983 -0.1254 -0.2930
 1288TIP3    H125355   2.771   1.817   0.235 -0.6031  0.1828 -0.5838
 1288TIP3    H225356   2.790   1.843   0.383 -0.2362 -0.5306 -0.5009
 1289TIP3   OH225357   5.635   2.147   3.875 -0.2369 -0.1776 -0.0631
 1289TIP3    H125358   5.587   2.084   3.928  1.2465 -1.0794  0.2384
 1289TIP3    H225359   5.579   2.224   3.871 -2.1244 -1.5547 -0.5123
 1290TIP3   OH225360   4.288   5.888   0.973  0.3697 -0.1436 -0.5628
 1290TIP3    H125361   4.283   5.817   1.038  0.9000  1.1069  0.8750
 1290TIP3    H225362   4.376   5.881   0.937  0.5634  0.0304 -0.1284
 1291TIP3   OH225363   5.804   6.399  13.461 -0.3202 -0.3003  0.4471
 1291TIP3    H125364   5.728   6.415  13.517 -0.5568 -1.4798  0.4777
 1291TIP3    H225365   5.782   6.441  13.377 -0.2520  0.8721  0.9971
 1292TIP3   OH225366   4.809   3.505  14.528  0.3451 -0.0011  0.3145
 1292TIP3    H125367   4.889   3.555  14.510  0.8705 -0.6807  0.7285
 1292TIP3    H225368   4.840   3.420  14.559 -0.4719  1.1533  4.7030
 1293TIP3   OH225369   3.257   0.737  12.288  0.1156 -0.3175  0.0024
 1293TIP3    H125370   3.256   0.812  12.347  2.2856  0.3095 -0.7130
 1293TIP3    H225371   3.168   0.701  12.293 -1.1301  2.6129 -0.0483
 1294TIP3   OH225372   5.228   2.541   6.570  0.4127  0.2241  0.3081
 1294TIP3    H125373   5.213   2.632   6.597 -1.9937  0.0103 -0.1230
 1294TIP3    H225374   5.275   2.548   6.487  0.1547  1.1011  0.2247
 1295TIP3   OH225375   3.961   0.321  13.757 -0.0573 -0.0383  0.1915
 1295TIP3    H125376   3.995   0.264  13.688 -2.7471  0.6581 -1.7738
 1295TIP3    H225377   3.898   0.267  13.804  1.1106 -0.2274  1.5659
 1296TIP3   OH225378   2.149   6.114   2.887 -0.1875 -0.0264  0.2158
 1296TIP3    H125379   2.166   6.119   2.793 -0.8711 -3.4976 -0.1525
 1296TIP3    H225380   2.232   6.085   2.925  0.3463  2.1920  0.8555
 1297TIP3   OH225381   0.521   6.040  12.187 -0.3625  0.0698 -0.2398
 1297TIP3    H125382   0.479   5.966  12.230  0.6838  0.9406  2.4052
 1297TIP3    H225383   0.605   6.049  12.232 -1.1272  3.7978  0.6197
 1298TIP3   OH225384   4.127   2.930   4.059  0.0288 -0.3208 -0.5294
 1298TIP3    H125385   4.144   2.903   3.969 -0.3468 -0.5227 -0.5398
 1298TIP3    H225386   4.214   2.935   4.099  0.1253 -1.3817 -0.5811
 1299TIP3   OH225387   3.820   4.366  11.313 -1.0779  0.0785  0.1604
 1299TIP3    H125388   3.770   4.285  11.316  2.5278 -2.2342  3.2684
 1299TIP3    H225389   3.773   4.426  11.370 -3.7193  0.2040 -2.0715
 1300TIP3   OH225390   6.399   0.457   4.689  0.5102 -0.3795 -0.0106
 1300TIP3    H125391   6.466   0.454   4.757  1.2185 -0.6240 -0.7217
 1300TIP3    H225392   6.439   0.505   4.617 -0.7704  1.2135  0.3130
 1301TIP3   OH225393   6.816   6.521  11.886  0.2147  0.3189  0.7466
 1301TIP3    H125394   6.872   6.514  11.963 -0.4945  1.5169  1.3792
 1301TIP3    H225395   6.731   6.548  11.920  0.0395  1.4016 -0.5085
 1302TIP3   OH225396   0.664   1.551  12.674  0.0052 -0.2546  0.3905
 1302TIP3    H125397   0.630   1.483  12.732  0.0329 -0.4033  0.2332
 1302TIP3    H225398   0.744   1.582  12.717 -0.0143 -0.3119  0.4665
 1303TIP3   OH225399   5.055   2.127   3.688 -1.2964  0.5235 -0.1688
 1303TIP3    H125400   5.147   2.104   3.676 -1.4978 -0.0752 -0.5852
 1303TIP3    H225401   5.018   2.127   3.599 -1.4042  2.0084 -0.1391
 1304TIP3   OH225402   4.146   3.345  13.819 -0.2199  0.7355 -0.2331
 1304TIP3    H125403   4.126   3.326  13.911 -0.0376 -0.7189 -0.4807
 1304TIP3    H225404   4.241   3.332  13.813 -0.5049 -1.0384 -1.0487
 1305TIP3   OH225405   1.223   6.282  15.146  0.6409 -0.0088  0.5703
 1305TIP3    H125406   1.241   6.366  15.104  0.3942  0.2784  1.0394
 1305TIP3    H225407   1.129   6.282  15.160  0.7779  0.0695  1.5005
 1306TIP3   OH225408   0.842   4.482   1.140  0.2057  0.0920  0.2771
 1306TIP3    H125409   0.793   4.558   1.172  0.5132  0.7873 -0.8760
 1306TIP3    H225410   0.878   4.442   1.219 -2.9087 -0.9287  1.2592
 1307TIP3   OH225411   3.633   1.673  13.237 -0.0757 -0.3513 -0.3781
 1307TIP3    H125412   3.602   1.682  13.147 -1.1483  0.8510  0.0981
 1307TIP3    H225413   3.633   1.762  13.272  1.6837 -0.6341  0.3756
 1308TIP3   OH225414   3.842   3.762   5.094  0.6177  0.6522 -0.1286
 1308TIP3    H125415   3.899   3.816   5.039  1.4229  1.2352  1.2420
 1308TIP3    H225416   3.891   3.752   5.176 -1.1276  0.9127  0.9622
 1309TIP3   OH225417   6.732   1.564  14.060 -0.1303  0.1414 -0.3405
 1309TIP3    H125418   6.756   1.635  14.001  2.0115  1.0280  1.5362
 1309TIP3    H225419   6.811   1.546  14.110 -1.1368 -2.4203  0.4071
 1310TIP3   OH225420   6.674   3.523   1.368  0.3010 -0.2254  0.3265
 1310TIP3    H125421   6.716   3.567   1.295  1.3662 -2.9395 -0.7801
 1310TIP3    H225422   6.731   3.539   1.443  0.2728  0.8554  0.1236
 1311TIP3   OH225423   3.329   2.356  16.125 -0.2275 -0.2790 -0.6316
 1311TIP3    H125424   3.249   2.353  16.177  1.0594  1.4403  1.5424
 1311TIP3    H225425   3.399   2.345  16.189  1.3622  0.5287 -2.1984
 1312TIP3   OH225426   3.520   4.364   4.933  0.1504 -0.0399  0.1981
 1312TIP3    H125427   3.536   4.458   4.938 -0.3881  0.1615 -1.6591
 1312TIP3    H225428   3.485   4.350   4.845  0.7806 -2.0528  0.2380
 1313TIP3   OH225429   1.548   0.258  15.496 -0.1230  0.2386 -0.2264
 1313TIP3    H125430   1.622   0.219  15.448 -0.0552 -2.6371  2.1130
 1313TIP3    H225431   1.471   0.216  15.460 -0.2846  0.1620  0.2039
 1314TIP3   OH225432   0.404   0.298  12.835  0.7028  0.3411  0.7279
 1314TIP3    H125433   0.433   0.238  12.767  0.7125 -0.8194  1.7416
 1314TIP3    H225434   0.455   0.273  12.912 -1.4212 -0.3151  1.9631
 1315TIP3   OH225435   4.810   4.610   0.548 -0.4127 -0.9887 -0.0244
 1315TIP3    H125436   4.755   4.591   0.624  0.6215 -1.4610  0.6154
 1315TIP3    H225437   4.753   4.661   0.490 -1.3978 -1.1219  0.7986
 1316TIP3   OH225438   1.084   0.662  17.094  0.7497  0.8076  0.1292
 1316TIP3    H125439   1.134   0.741  17.118  1.6793  0.2352  0.1014
 1316TIP3    H225440   1.106   0.598  17.162  1.4681 -0.0275 -0.8767
 1317TIP3   OH225441   5.921   5.911   2.542 -0.0551 -0.0755 -0.0009
 1317TIP3    H125442   5.931   5.884   2.450 -0.9586 -1.5026  0.3070
 1317TIP3    H225443   5.855   5.980   2.540 -0.0949 -0.1237 -0.4233
 1318TIP3   OH225444   2.661   2.894  14.221  0.3060  0.2387  1.0664
 1318TIP3    H125445   2.744   2.892  14.174 -0.3548 -0.2264 -0.1315
 1318TIP3    H225446   2.654   2.807  14.260  0.2494  0.1665  0.8998
 1319TIP3   OH225447   1.913   4.843   5.440 -0.3255 -0.3535  0.4825
 1319TIP3    H125448   1.914   4.897   5.361 -0.9767 -0.1004  0.6413
 1319TIP3    H225449   1.820   4.837   5.463 -0.2206 -1.2677  0.6533
 1320TIP3   OH225450   1.334   0.276  13.857 -0.2371 -0.6473  0.0245
 1320TIP3    H125451   1.339   0.302  13.949 -0.7662  2.5384 -0.7724
 1320TIP3    H225452   1.422   0.292  13.823 -0.1239 -1.5169 -0.0775
 1321TIP3   OH225453   4.607   6.392  15.606 -0.4987 -0.3608 -0.3898
 1321TIP3    H125454   4.594   6.328  15.536 -2.5595 -0.6994  0.2570
 1321TIP3    H225455   4.520   6.403  15.644  0.6947 -0.7644  2.6015
 1322TIP3   OH225456   0.347   1.452   0.927 -0.5770  0.2035 -0.8061
 1322TIP3    H125457   0.372   1.526   0.982 -2.5726 -0.5708  1.2026
 1322TIP3    H225458   0.426   1.398   0.923  0.4753  1.7169 -1.1712
 1323TIP3   OH225459   5.196   5.201  17.181  0.4932  0.0405  0.1593
 1323TIP3    H125460   5.131   5.257  17.138  1.3060  0.2630 -0.7820
 1323TIP3    H225461   5.279   5.224  17.140  0.9235 -1.4570  0.1489
 1324TIP3   OH225462   0.039   3.996   0.850  0.5684 -0.6651  0.1356
 1324TIP3    H125463   0.089   4.062   0.803  0.6666  0.0320  1.2072
 1324TIP3    H225464   0.043   3.918   0.794  1.5276 -0.1505 -0.5221
 1325TIP3   OH225465   5.222   0.649   1.484  0.0271  0.2312 -0.1909
 1325TIP3    H125466   5.286   0.647   1.555 -0.1571  0.4896 -0.0196
 1325TIP3    H225467   5.270   0.618   1.407 -0.2843 -2.0142  0.4611
 1326TIP3   OH225468   5.500   6.140  12.530 -0.4743 -0.0314 -0.7082
 1326TIP3    H125469   5.459   6.097  12.604 -0.5107  0.9781 -0.1313
 1326TIP3    H225470   5.581   6.091  12.514 -0.5999 -0.4053 -0.1731
 1327TIP3   OH225471   0.737   5.709   2.532  0.2875  0.2394 -0.0302
 1327TIP3    H125472   0.702   5.670   2.452  1.4081  0.3839 -0.5943
 1327TIP3    H225473   0.660   5.748   2.575 -0.2123  0.7244 -1.3520
 1328TIP3   OH225474   3.454   2.401   2.483  0.2157  0.0075  0.2485
 1328TIP3    H125475   3.403   2.481   2.479  0.8114  0.5516  2.5190
 1328TIP3    H225476   3.406   2.339   2.428 -0.7624  1.6206 -0.7693
 1329TIP3   OH225477   5.670   3.008   3.464 -0.0288  0.0459  0.0989
 1329TIP3    H125478   5.681   2.950   3.539 -1.3488 -0.3521  0.0009
 1329TIP3    H225479   5.615   2.959   3.403  0.2961  0.7145 -0.7436
 1330TIP3   OH225480   5.477   0.889  11.158  0.5170 -0.2463  0.4961
 1330TIP3    H125481   5.439   0.856  11.240 -0.2718  0.5465  0.4496
 1330TIP3    H225482   5.461   0.983  11.159  0.2580 -0.2656 -0.6995
 1331TIP3   OH225483   1.185   6.421  12.230  0.1341 -0.3782  0.0753
 1331TIP3    H125484   1.114   6.428  12.293 -1.3376 -1.8448 -1.3573
 1331TIP3    H225485   1.165   6.487  12.164 -0.4944 -1.4900 -0.8653
 1332TIP3   OH225486   0.217   5.090  16.801  0.4404  0.1002  0.3586
 1332TIP3    H125487   0.191   5.127  16.716  1.9426 -1.7429 -0.9320
 1332TIP3    H225488   0.144   5.112  16.859 -0.5887  1.4724 -1.3736
 1333TIP3   OH225489   3.811   2.416  11.760 -0.5182  0.2657  0.3075
 1333TIP3    H125490   3.880   2.461  11.711 -1.9786  1.8591 -0.3458
 1333TIP3    H225491   3.835   2.323  11.755  0.8792  0.6717 -1.0015
 1334TIP3   OH225492   6.767   5.440   1.805  0.4297  0.3946 -0.0879
 1334TIP3    H125493   6.765   5.350   1.773  0.8919 -0.2880  1.7245
 1334TIP3    H225494   6.676   5.459   1.829  0.3866  0.2726 -0.1547
 1335TIP3   OH225495   2.526   1.994   5.304 -0.2299  0.3043 -0.1636
 1335TIP3    H125496   2.555   2.008   5.213  0.8015 -0.5529  0.0207
 1335TIP3    H225497   2.450   1.937   5.296 -0.0162  0.0612 -0.4794
 1336TIP3   OH225498   1.104   2.863  16.131  0.1264  0.4028  0.2138
 1336TIP3    H125499   1.161   2.907  16.194 -1.9554  0.2680  2.2727
 1336TIP3    H225500   1.106   2.919  16.054  1.6351  1.3091  0.8799
 1337TIP3   OH225501   2.147   6.593   1.671 -0.5099 -0.9377 -0.4189
 1337TIP3    H125502   2.158   6.536   1.747 -0.2540 -0.4132 -0.0620
 1337TIP3    H225503   2.055   6.620   1.673 -0.5429 -1.0531 -0.3910
 1338TIP3   OH225504   5.507   5.246   4.401 -0.5883 -0.2571  1.0100
 1338TIP3    H125505   5.462   5.283   4.325  1.1609  1.3687  0.7163
 1338TIP3    H225506   5.561   5.175   4.364  1.8762  1.8935  0.3509
 1339TIP3   OH225507   4.603   5.381   2.275  0.0441 -0.5081 -0.0535
 1339TIP3    H125508   4.537   5.312   2.280  0.0535 -0.4979  0.2207
 1339TIP3    H225509   4.556   5.457   2.241 -0.2816 -0.2643  0.9012
 1340TIP3   OH225510   6.438   1.738   4.380 -0.3999 -0.0619  0.0981
 1340TIP3    H125511   6.478   1.667   4.330 -0.8998 -0.7728  0.6995
 1340TIP3    H225512   6.397   1.794   4.314  1.7120  0.7700 -0.5464
 1341TIP3   OH225513   4.909   3.938   1.338  0.2293  0.2221 -0.2249
 1341TIP3    H125514   4.874   3.895   1.416 -4.1401 -1.8943 -3.1319
 1341TIP3    H225515   4.847   4.009   1.321  0.3182 -0.2021 -2.4850
 1342TIP3   OH225516   4.387   3.292  13.086 -0.4591 -0.3122  0.2857
 1342TIP3    H125517   4.392   3.386  13.103  0.1971 -0.6028  1.7915
 1342TIP3    H225518   4.323   3.259  13.148 -1.0879 -0.7845 -0.6062
 1343TIP3   OH225519   2.514   3.126  12.322  1.1197 -0.9547 -0.3524
 1343TIP3    H125520   2.505   3.080  12.405  0.0192 -1.3812 -0.7007
 1343TIP3    H225521   2.539   3.215  12.347 -1.9509 -0.3114  0.5974
 1344TIP3   OH225522   6.242   2.329   4.268 -0.0305 -0.1737 -0.2753
 1344TIP3    H125523   6.260   2.277   4.346  0.0918  0.6009  0.2174
 1344TIP3    H225524   6.327   2.361   4.240 -0.0724 -0.4620 -0.7462
 1345TIP3   OH225525   2.610   1.269   1.322  0.1920  0.2260 -0.4597
 1345TIP3    H125526   2.553   1.197   1.349 -1.2884  1.2691 -0.6938
 1345TIP3    H225527   2.568   1.305   1.243  0.3163  1.9861  0.2388
 1346TIP3   OH225528   1.360   3.613  16.990  0.4137  0.8799 -0.8820
 1346TIP3    H125529   1.287   3.664  17.025  1.6384  1.8643  0.2789
 1346TIP3    H225530   1.321   3.530  16.964 -1.0546  1.2572  0.0745
 1347TIP3   OH225531   3.722   1.074  12.221  0.2682 -0.7962 -0.8690
 1347TIP3    H125532   3.654   1.044  12.281  0.4027  1.8674  0.7153
 1347TIP3    H225533   3.676   1.089  12.139 -1.5820  2.6917  0.6460
 1348TIP3   OH225534   1.611   2.186   1.283  0.0841 -0.3536 -0.0668
 1348TIP3    H125535   1.664   2.231   1.217  0.3720 -1.7370 -0.8111
 1348TIP3    H225536   1.523   2.223   1.273  0.9647  2.2487  1.4504
 1349TIP3   OH225537   2.351   4.185  13.924  0.2269  0.1019  0.1246
 1349TIP3    H125538   2.359   4.209  14.016 -0.0376  0.9684 -0.0739
 1349TIP3    H225539   2.437   4.150  13.900  0.0373 -0.9623  0.9284
 1350TIP3   OH225540   2.924   0.424  16.536  0.0329 -0.0582  0.0156
 1350TIP3    H125541   2.942   0.493  16.599  0.9909 -0.4517  0.1930
 1350TIP3    H225542   2.909   0.346  16.589 -0.1631 -0.1760 -0.2069
 1351TIP3   OH225543   1.057   3.166  15.080  0.9574 -0.2928  0.1109
 1351TIP3    H125544   1.025   3.093  15.026  0.6179  0.8878 -1.3226
 1351TIP3    H225545   1.127   3.205  15.029  0.7237  0.7719  0.5842
 1352TIP3   OH225546   1.944   0.640  13.560 -0.3969  0.0341  0.1698
 1352TIP3    H125547   1.955   0.735  13.548  0.0729  0.0467  0.6504
 1352TIP3    H225548   1.939   0.605  13.471  2.7681  0.1454 -0.1233
 1353TIP3   OH225549   1.054   0.556   2.000  0.2543  0.5293 -0.2460
 1353TIP3    H125550   1.085   0.563   1.909 -0.7977 -0.0553 -0.6524
 1353TIP3    H225551   1.133   0.569   2.053  1.0112  0.1028 -1.2589
 1354TIP3   OH225552   0.642   2.293   1.158 -0.4829  0.3083 -0.2805
 1354TIP3    H125553   0.647   2.292   1.254  0.4856 -1.9153 -0.3149
 1354TIP3    H225554   0.551   2.271   1.139  0.1804 -3.1038  0.1510
 1355TIP3   OH225555   3.624   1.126   5.640  0.1661 -0.3255 -0.1378
 1355TIP3    H125556   3.674   1.084   5.709 -0.3819 -0.7665 -0.0077
 1355TIP3    H225557   3.572   1.193   5.685 -0.4137 -0.8123 -0.0806
 1356TIP3   OH225558   0.931   0.454   1.211  0.5689 -0.2968  0.1607
 1356TIP3    H125559   0.993   0.380   1.217  1.6320  0.5162 -0.6070
 1356TIP3    H225560   0.845   0.413   1.217  1.1595 -1.5311  0.5249
 1357TIP3   OH225561   5.135   5.892  14.815 -0.4377 -0.1312 -0.1211
 1357TIP3    H125562   5.119   5.799  14.829 -2.3230 -0.2807 -2.9137
 1357TIP3    H225563   5.193   5.895  14.740  0.8627  0.9404  0.9001
 1358TIP3   OH225564   2.747   6.343   1.806  0.1253 -0.1888  0.5453
 1358TIP3    H125565   2.692   6.309   1.735  0.5056 -0.8561  0.5608
 1358TIP3    H225566   2.793   6.266   1.839  1.0396  0.3491  0.5633
 1359TIP3   OH225567   5.657   2.761  13.227 -0.7942 -0.4069 -0.1434
 1359TIP3    H125568   5.715   2.747  13.302  3.7969  0.8440 -3.2235
 1359TIP3    H225569   5.642   2.673  13.191  0.9279 -0.5791 -0.4816
 1360TIP3   OH225570   4.321   1.064  12.911  0.3223 -0.3093  0.2692
 1360TIP3    H125571   4.345   1.129  12.845 -0.7326 -1.2103 -1.0448
 1360TIP3    H225572   4.383   1.078  12.982 -1.2275  3.5838  0.9894
 1361TIP3   OH225573   3.622   5.121  13.862 -0.2235 -0.2164 -0.0673
 1361TIP3    H125574   3.553   5.123  13.795  0.3286 -2.4080 -0.7356
 1361TIP3    H225575   3.575   5.114  13.945 -0.7947 -2.8481 -0.5970
 1362TIP3   OH225576   0.079   0.318  15.142 -0.1832 -0.2318  0.0162
 1362TIP3    H125577   0.074   0.223  15.130  1.8775 -0.0675 -2.7257
 1362TIP3    H225578   0.062   0.332  15.235 -3.8757 -2.9697 -0.1509
 1363TIP3   OH225579   6.524   1.701  13.758 -0.4766  0.2755 -0.0278
 1363TIP3    H125580   6.545   1.771  13.696 -1.9636  0.1644 -0.7010
 1363TIP3    H225581   6.444   1.731  13.801  0.4264  0.2455  1.6959
 1364TIP3   OH225582   1.345   2.629   6.076  0.1155 -0.1093  0.0016
 1364TIP3    H125583   1.382   2.605   5.991 -1.0812 -0.3675 -0.4564
 1364TIP3    H225584   1.327   2.723   6.068  2.4322  0.4336  0.9003
 1365TIP3   OH225585   0.663   3.401   5.770 -0.0586 -0.3707 -0.1198
 1365TIP3    H125586   0.626   3.323   5.811  0.6860 -0.9462 -0.5248
 1365TIP3    H225587   0.640   3.393   5.678  0.8421 -0.5995 -0.3259
 1366TIP3   OH225588   2.637   5.427   5.263 -0.0960  0.1256  0.2734
 1366TIP3    H125589   2.629   5.478   5.343 -1.1900 -0.8952  0.8280
 1366TIP3    H225590   2.578   5.470   5.201  0.9405  1.0648 -0.0732
 1367TIP3   OH225591   5.852   5.768   0.623  0.3221  0.1419 -0.1046
 1367TIP3    H125592   5.767   5.810   0.634  1.0684  1.4309  0.8458
 1367TIP3    H225593   5.912   5.819   0.678  1.3313 -1.9556  0.7980
 1368TIP3   OH225594   2.761   2.224   5.642  0.0182  0.5471  0.0890
 1368TIP3    H125595   2.769   2.316   5.668  1.7054  0.9456 -1.6834
 1368TIP3    H225596   2.669   2.202   5.657  0.1000  1.8510  2.6261
 1369TIP3   OH225597   0.375   5.252  16.319 -0.0850  0.0657  0.2505
 1369TIP3    H125598   0.350   5.340  16.289  2.2562  0.9047  0.6846
 1369TIP3    H225599   0.343   5.248  16.409 -2.4006 -0.4929 -0.5473
 1370TIP3   OH225600   4.975   6.819  14.022 -0.2434 -0.2519 -0.0712
 1370TIP3    H125601   4.957   6.793  13.931 -1.7835 -0.1919  0.1998
 1370TIP3    H225602   4.914   6.766  14.074  0.0204  0.3486  0.8533
 1371TIP3   OH225603   5.111   1.637   0.257  0.4502 -0.6207  0.2784
 1371TIP3    H125604   5.142   1.661   0.170  3.1069 -2.6568  0.5948
 1371TIP3    H225605   5.016   1.648   0.252  0.6232  0.0937 -2.5950
 1372TIP3   OH225606   4.056   1.466  11.589 -0.0367  0.0859 -0.6687
 1372TIP3    H125607   4.068   1.465  11.684  2.7213 -1.1136 -0.9772
 1372TIP3    H225608   4.052   1.558  11.566 -2.3623  0.4002  0.7517
 1373TIP3   OH225609   0.488   1.745  12.073 -0.0587 -0.1293 -0.4713
 1373TIP3    H125610   0.525   1.731  12.160  0.9288 -1.8526 -1.1450
 1373TIP3    H225611   0.535   1.683  12.016 -0.1934  1.4466 -2.3659
 1374TIP3   OH225612   4.271   5.739   0.458 -0.2180  0.1540  0.2627
 1374TIP3    H125613   4.315   5.754   0.373 -0.0978  0.6020  0.4040
 1374TIP3    H225614   4.337   5.762   0.523 -0.5010  0.3603  0.4787
 1375TIP3   OH225615   0.141   5.472  16.537  0.2960  0.4858 -0.4237
 1375TIP3    H125616   0.233   5.493  16.550  0.5049 -1.0624  0.7890
 1375TIP3    H225617   0.138   5.376  16.540 -1.2993  0.5117 -0.8264
 1376TIP3   OH225618   1.325   3.340  12.529 -0.0479 -0.3665  0.3363
 1376TIP3    H125619   1.400   3.365  12.476 -0.1196 -0.0611  0.3775
 1376TIP3    H225620   1.343   3.250  12.556 -0.5181 -0.9088 -1.0967
 1377TIP3   OH225621   6.494   3.737  14.291 -0.5342  0.6557 -0.0118
 1377TIP3    H125622   6.421   3.791  14.322  0.1584  0.8587  1.2945
 1377TIP3    H225623   6.452   3.662  14.248 -1.5033  1.7137 -0.9462
 1378TIP3   OH225624   2.143   0.262  13.214  0.5541 -0.1538  0.2971
 1378TIP3    H125625   2.202   0.187  13.202  1.2879  0.6073 -0.8999
 1378TIP3    H225626   2.064   0.238  13.166 -0.5563 -1.6267  2.7621
 1379TIP3   OH225627   1.784   1.992   2.676 -0.1112  0.2222 -0.4452
 1379TIP3    H125628   1.811   1.901   2.663  0.4057  0.5599 -1.8000
 1379TIP3    H225629   1.776   2.027   2.587  0.9087  1.8484  0.0924
 1380TIP3   OH225630   5.257   1.386   4.715 -0.1519  0.0431  0.2583
 1380TIP3    H125631   5.189   1.425   4.660  1.0600  2.8016  0.6572
 1380TIP3    H225632   5.337   1.432   4.691  0.7772 -0.0988  2.8774
 1381TIP3   OH225633   1.074   4.341  14.413 -0.5604  0.1260  0.6951
 1381TIP3    H125634   1.093   4.368  14.323  0.3065  2.0238  1.4202
 1381TIP3    H225635   1.038   4.252  14.404 -0.0186  0.0852 -1.4709
 1382TIP3   OH225636   3.328   1.901   4.241  0.0244  0.4474 -0.7694
 1382TIP3    H125637   3.371   1.886   4.156  0.3546 -1.0141 -0.3583
 1382TIP3    H225638   3.338   1.995   4.256  2.3660  0.2955 -1.0953
 1383TIP3   OH225639   4.224   6.626  11.606  0.0493 -0.4874 -0.3034
 1383TIP3    H125640   4.232   6.714  11.643  0.5985 -0.6846  0.0603
 1383TIP3    H225641   4.242   6.567  11.680 -0.3546 -0.9060 -0.5327
 1384TIP3   OH225642   3.591   6.579   4.027  0.2964 -0.3781  0.1435
 1384TIP3    H125643   3.637   6.502   3.994 -0.0403  0.1332 -1.5386
 1384TIP3    H225644   3.498   6.561   4.008 -0.0688 -0.6574  2.0146
 1385TIP3   OH225645   3.547   1.290   6.049  0.7469  0.3262  0.1732
 1385TIP3    H125646   3.481   1.290   6.119  0.9281  1.1919  0.3443
 1385TIP3    H225647   3.576   1.199   6.043 -0.3487 -0.0307  0.2094
 1386TIP3   OH225648   4.629   5.143  16.232  0.4048 -0.1899 -0.9233
 1386TIP3    H125649   4.663   5.101  16.153 -0.9215 -2.3516 -0.3835
 1386TIP3    H225650   4.585   5.072  16.280  1.1457  1.0770  1.7292
 1387TIP3   OH225651   3.039   5.281  12.504 -0.2398 -0.3114  0.2730
 1387TIP3    H125652   3.090   5.321  12.575  1.7579 -1.2714 -0.5874
 1387TIP3    H225653   3.073   5.321  12.424 -2.0362  0.2937 -0.2227
 1388TIP3   OH225654   0.027   5.704   6.455 -0.4028 -0.0157  0.7202
 1388TIP3    H125655   0.120   5.687   6.436 -0.3726  1.0757 -0.1550
 1388TIP3    H225656   0.026   5.732   6.546  0.0224 -0.9089  1.0042
 1389TIP3   OH225657   4.826   2.161   1.768  0.4063 -0.6286 -0.4850
 1389TIP3    H125658   4.747   2.198   1.807 -0.1593 -0.7894 -1.4482
 1389TIP3    H225659   4.808   2.067   1.763  0.3155 -0.5623 -1.4715
 1390TIP3   OH225660   1.023   1.223   5.333 -0.1684  0.2115  0.0195
 1390TIP3    H125661   0.958   1.217   5.403 -0.4752  1.3354 -0.1687
 1390TIP3    H225662   1.000   1.152   5.273  1.1506 -1.9152  1.9183
 1391TIP3   OH225663   6.813   1.212   0.929 -0.2773 -0.3218  0.0177
 1391TIP3    H125664   6.831   1.246   0.841  0.2401 -0.5704  0.0271
 1391TIP3    H225665   6.884   1.246   0.983 -0.2894 -0.6251  0.2265
 1392TIP3   OH225666   2.421   4.592  15.299 -0.4577 -0.8545  0.8195
 1392TIP3    H125667   2.442   4.675  15.257 -0.7855 -0.8340  0.6937
 1392TIP3    H225668   2.499   4.570  15.349 -0.4456 -0.3700  1.0160
 1393TIP3   OH225669   0.309   5.035   2.934 -0.1219  0.2642 -0.3346
 1393TIP3    H125670   0.297   5.072   2.847  1.2705  0.8033 -0.3194
 1393TIP3    H225671   0.336   5.109   2.988 -0.5033 -0.1578  0.4444
 1394TIP3   OH225672   0.957   4.037  16.830  0.0468  0.0855 -0.8235
 1394TIP3    H125673   1.038   4.052  16.879  1.7315 -1.1427 -3.1254
 1394TIP3    H225674   0.941   4.120  16.784  0.2588  0.1917 -0.7076
 1395TIP3   OH225675   2.191   0.166  12.366  0.2965  0.0673 -0.0350
 1395TIP3    H125676   2.243   0.155  12.446 -0.9364 -1.2711  0.5906
 1395TIP3    H225677   2.101   0.176  12.397 -0.3741 -1.8285 -1.3256
 1396TIP3   OH225678   2.858   4.723  10.769  0.0662  0.1244 -0.2496
 1396TIP3    H125679   2.878   4.681  10.685  3.3142  0.2627  0.3951
 1396TIP3    H225680   2.821   4.808  10.745 -0.0964 -0.2859 -1.5314
 1397TIP3   OH225681   0.689   4.965   1.359 -0.2736  0.3711  0.4076
 1397TIP3    H125682   0.616   4.993   1.304 -0.6258 -1.1761  0.0505
 1397TIP3    H225683   0.758   5.028   1.342 -1.0663  1.0540 -0.3052
 1398TIP3   OH225684   6.769   3.025  15.024 -0.3517  0.0887  0.5042
 1398TIP3    H125685   6.694   3.002  15.078  0.4043 -0.1951  1.4417
 1398TIP3    H225686   6.731   3.043  14.937 -1.5472  0.4299  1.0830
 1399TIP3   OH225687   1.541   6.600  12.313  0.0474 -0.3428 -0.2521
 1399TIP3    H125688   1.466   6.568  12.363 -0.2388 -1.9002 -1.6603
 1399TIP3    H225689   1.616   6.556  12.351  0.0825  0.0397  0.1347
 1400TIP3   OH225690   1.791   5.437   5.470 -0.3924 -0.0328  0.4184
 1400TIP3    H125691   1.779   5.518   5.421  2.7890  0.0486 -0.2977
 1400TIP3    H225692   1.724   5.440   5.538 -1.8566  2.0405 -1.0455
 1401TIP3   OH225693   0.257   5.084   2.660 -0.0952  0.0415 -0.2382
 1401TIP3    H125694   0.195   5.025   2.704  1.4092 -0.5767  1.0964
 1401TIP3    H225695   0.312   5.026   2.608 -0.5164  0.5736 -1.2863
 1402TIP3   OH225696   2.700   0.748  13.174 -0.3276 -0.4940  0.1914
 1402TIP3    H125697   2.725   0.729  13.265 -1.1249  2.3827  1.0596
 1402TIP3    H225698   2.756   0.690  13.122  2.1036 -0.2844  2.4154
 1403TIP3   OH225699   1.257   2.417   5.131  0.3769 -0.6428  0.2068
 1403TIP3    H125700   1.289   2.344   5.078  0.2566 -1.2034  0.8900
 1403TIP3    H225701   1.191   2.378   5.188  0.1390  0.0524  0.4171
 1404TIP3   OH225702   6.760   1.923   0.596 -0.2033 -0.2297 -0.6136
 1404TIP3    H125703   6.771   1.966   0.511  0.0252  0.0676 -0.4354
 1404TIP3    H225704   6.711   1.987   0.648 -1.1558 -0.7862 -0.8136
 1405TIP3   OH225705   2.954   1.848   3.283 -0.3585 -0.0125 -1.1578
 1405TIP3    H125706   2.879   1.890   3.325 -0.2835 -0.2461 -0.7937
 1405TIP3    H225707   2.995   1.797   3.352  2.0205  2.6189 -0.5648
 1406TIP3   OH225708   1.499   0.287   0.012  0.2515 -0.2606  0.2397
 1406TIP3    H125709   1.440   0.348   0.058  0.6490 -0.7234  1.3956
 1406TIP3    H225710   1.566   0.344  -0.028  0.6469  0.0775  1.3509
 1407TIP3   OH225711   1.779   5.126  14.755 -0.2085 -0.4556  0.3860
 1407TIP3    H125712   1.815   5.187  14.690  0.1117  0.2113  1.1769
 1407TIP3    H225713   1.687   5.116  14.730 -0.0990 -0.1635 -0.1441
 1408TIP3   OH225714   5.632   3.141   1.165  0.1527 -0.3700  0.4788
 1408TIP3    H125715   5.585   3.221   1.141  0.9533  0.1013  0.4745
 1408TIP3    H225716   5.567   3.089   1.212  0.1045  1.0312  2.0148
 1409TIP3   OH225717   3.789   5.827  10.773  0.3769  0.6821 -0.1617
 1409TIP3    H125718   3.694   5.818  10.773  0.4039  0.2183  1.2872
 1409TIP3    H225719   3.813   5.835  10.681 -1.1396  1.6250 -0.4856
 1410TIP3   OH225720   4.766   4.860  14.635 -0.4556  0.4688 -0.1138
 1410TIP3    H125721   4.767   4.886  14.543 -1.5745  0.1953 -0.2057
 1410TIP3    H225722   4.708   4.923  14.677  0.0671  0.6039  0.4178
 1411TIP3   OH225723   6.028   6.454   2.715 -0.2059 -1.3299 -0.6061
 1411TIP3    H125724   5.996   6.417   2.797  0.7035 -1.2501 -0.2152
 1411TIP3    H225725   5.953   6.502   2.680 -0.9139 -2.2445 -0.3541
 1412TIP3   OH225726   1.257   5.055   6.121  0.0784 -0.5156 -0.6352
 1412TIP3    H125727   1.325   5.116   6.148  1.2283 -1.4211 -1.4226
 1412TIP3    H225728   1.194   5.055   6.193  0.2154  1.3512 -0.4959
 1413TIP3   OH225729   5.805   4.321  11.664  0.0543  0.3115  0.5037
 1413TIP3    H125730   5.784   4.392  11.603 -0.9285 -0.5069 -0.1328
 1413TIP3    H225731   5.722   4.274  11.675  0.7838 -0.9551  0.6237
 1414TIP3   OH225732   5.542   4.159  14.048  0.5188  0.0806 -0.0193
 1414TIP3    H125733   5.484   4.198  13.983 -0.4208 -0.7558  0.3174
 1414TIP3    H225734   5.501   4.179  14.132  0.0627 -1.5806  0.1596
 1415TIP3   OH225735   2.423   2.553  13.834  0.3784  0.2750  0.4077
 1415TIP3    H125736   2.519   2.548  13.826  0.5693  1.8447  1.4738
 1415TIP3    H225737   2.393   2.465  13.811  2.0071  0.0151 -0.8405
 1416TIP3   OH225738   4.168   4.658   2.947 -0.1544 -0.3837  0.1399
 1416TIP3    H125739   4.263   4.672   2.951 -0.0541 -1.0655  0.2993
 1416TIP3    H225740   4.156   4.569   2.982 -0.8934 -0.1342  0.5225
 1417TIP3   OH225741   6.264   2.470   1.832 -0.1519  0.1582 -0.0999
 1417TIP3    H125742   6.233   2.514   1.911  0.3476  0.7937 -0.2529
 1417TIP3    H225743   6.291   2.541   1.773  2.7970 -0.3561  0.5254
 1418TIP3   OH225744   1.002   0.392  12.257  0.3107 -0.3064 -0.0634
 1418TIP3    H125745   1.064   0.323  12.280  1.1655  0.8878  1.3489
 1418TIP3    H225746   0.988   0.440  12.339 -2.8881 -0.8463 -0.2301
 1419TIP3   OH225747   2.747   6.708  11.339  0.5544 -0.8904 -0.0835
 1419TIP3    H125748   2.787   6.645  11.280  1.4739 -0.9006  0.5276
 1419TIP3    H225749   2.656   6.680  11.348 -0.2533  0.4674 -3.3439
 1420TIP3   OH225750   0.467   1.657  13.421 -0.4639  0.7318  0.6920
 1420TIP3    H125751   0.411   1.696  13.487 -3.4332 -0.7539 -0.8225
 1420TIP3    H225752   0.419   1.669  13.339  0.3923 -2.4585 -0.3639
 1421TIP3   OH225753   1.790   0.256   3.304  0.2852 -0.6834  0.1294
 1421TIP3    H125754   1.774   0.198   3.229 -0.4468 -1.3120  0.7616
 1421TIP3    H225755   1.737   0.333   3.286 -2.2905 -2.0837  1.4296
 1422TIP3   OH225756   4.100   3.580   0.210 -0.0203 -0.0167 -0.4451
 1422TIP3    H125757   4.129   3.539   0.292  0.2310  1.0956  0.0353
 1422TIP3    H225758   4.006   3.565   0.207 -0.2284  1.0473  0.6872
 1423TIP3   OH225759   3.817   5.888   2.077 -0.0914  0.3465 -0.0037
 1423TIP3    H125760   3.735   5.904   2.030 -0.1294  1.4596  0.4187
 1423TIP3    H225761   3.797   5.817   2.137 -0.1933 -0.7348 -1.2910
 1424TIP3   OH225762   5.228   3.190  15.729  0.3466  0.0156  0.1215
 1424TIP3    H125763   5.241   3.276  15.690 -1.5898 -0.0567 -0.6985
 1424TIP3    H225764   5.262   3.199  15.818  0.9691  1.3624 -0.2448
 1425TIP3   OH225765   4.149   3.073  14.906  0.4755  0.8191 -0.5387
 1425TIP3    H125766   4.207   3.002  14.936  0.1225  0.9141  0.3866
 1425TIP3    H225767   4.081   3.029  14.855 -0.0209  0.4309  0.4483
 1426TIP3   OH225768   0.631   4.312   3.602  0.1833 -0.1901  0.2392
 1426TIP3    H125769   0.560   4.268   3.650 -0.6260 -0.0814 -0.8461
 1426TIP3    H225770   0.666   4.376   3.665  0.4054 -1.3742  1.3300
 1427TIP3   OH225771   1.665   0.118   2.083  0.2215 -0.3315 -0.4189
 1427TIP3    H125772   1.739   0.132   2.023 -0.0524  0.4138 -0.5903
 1427TIP3    H225773   1.623   0.039   2.050  0.5797 -0.4097 -0.6960
 1428TIP3   OH225774   2.569   5.254  16.733  0.1581 -0.2982  0.3177
 1428TIP3    H125775   2.567   5.164  16.699  1.2286  0.1796 -1.0385
 1428TIP3    H225776   2.517   5.304  16.670  0.2435  0.1835  0.6281
 1429TIP3   OH225777   4.482   1.056   2.198  0.5535 -0.0039  0.6636
 1429TIP3    H125778   4.528   0.999   2.260  0.3102  1.5071  2.2795
 1429TIP3    H225779   4.508   1.144   2.224 -1.1383  0.7360 -0.1185
 1430TIP3   OH225780   5.337   5.365  10.771  0.1921  0.4231  0.0628
 1430TIP3    H125781   5.372   5.450  10.799 -1.0824  1.2836 -0.8548
 1430TIP3    H225782   5.274   5.388  10.702  0.8839 -1.3749 -1.1925
 1431TIP3   OH225783   0.820   0.830   1.979  0.0958  0.0919 -0.0105
 1431TIP3    H125784   0.738   0.804   1.937  0.6255 -0.8101 -0.4874
 1431TIP3    H225785   0.849   0.752   2.025  1.4409 -0.0347 -1.0461
 1432TIP3   OH225786   2.953   0.577   0.652  0.2747 -0.3613  0.2264
 1432TIP3    H125787   2.991   0.664   0.646  0.1815 -0.3175  0.2622
 1432TIP3    H225788   3.028   0.518   0.655  0.3505 -0.2368  0.8627
 1433TIP3   OH225789   4.596   4.229   1.413 -0.4791 -0.3303 -0.4591
 1433TIP3    H125790   4.582   4.323   1.422 -0.2974 -0.3182 -0.2939
 1433TIP3    H225791   4.509   4.194   1.394 -1.1151 -0.4696  2.4141
 1434TIP3   OH225792   2.326   5.194   2.779 -0.0526  0.2738 -0.0650
 1434TIP3    H125793   2.291   5.244   2.705 -1.6613 -1.0004 -0.1756
 1434TIP3    H225794   2.405   5.242   2.804 -1.5494  2.8787 -0.1571
 1435TIP3   OH225795   1.369   1.580  12.283 -0.8677 -0.2055  0.0735
 1435TIP3    H125796   1.289   1.615  12.244 -0.1375  1.4783  0.0230
 1435TIP3    H225797   1.439   1.624  12.235  0.0769 -1.3249  0.4265
 1436TIP3   OH225798   6.665   2.878  10.608  0.5172  0.1115 -0.0065
 1436TIP3    H125799   6.678   2.835  10.523 -1.4936  0.6174 -0.6162
 1436TIP3    H225800   6.616   2.814  10.660 -0.0914  0.6009  0.0312
 1437TIP3   OH225801   6.117   6.452   5.682 -0.6236 -0.3990  0.2055
 1437TIP3    H125802   6.104   6.367   5.640  1.7946 -1.2176  1.0243
 1437TIP3    H225803   6.159   6.432   5.766 -2.0119  1.4604  1.3926
 1438TIP3   OH225804   5.304   6.043   4.577  0.3582  0.3607  0.5799
 1438TIP3    H125805   5.315   5.971   4.639  0.6641 -0.1462 -0.0642
 1438TIP3    H225806   5.228   6.019   4.525 -0.0749  0.9260  0.9416
 1439TIP3   OH225807   0.691   1.225   3.238 -0.0596  0.3982  0.2832
 1439TIP3    H125808   0.600   1.255   3.233 -0.5648 -0.8794  1.4308
 1439TIP3    H225809   0.706   1.181   3.155 -0.0697  1.7115 -0.4346
 1440TIP3   OH225810   3.601   0.247  13.529  0.5939 -0.5696  0.1567
 1440TIP3    H125811   3.525   0.225  13.475  0.3499  0.6988 -0.0198
 1440TIP3    H225812   3.573   0.226  13.619 -1.3089  3.2638  0.5589
 1441TIP3   OH225813   5.115   6.189  16.110 -0.4820  0.3764 -0.2931
 1441TIP3    H125814   5.032   6.145  16.129  0.1574 -0.6028  0.2980
 1441TIP3    H225815   5.182   6.126  16.138  0.4738  0.3584 -2.5483
 1442TIP3   OH225816   6.028   5.874   5.537 -0.7276 -0.5750  0.4490
 1442TIP3    H125817   5.953   5.898   5.484 -0.1744 -2.1944 -1.1297
 1442TIP3    H225818   5.994   5.810   5.600 -1.4938  1.7353  2.4555
 1443TIP3   OH225819   6.638   3.886  16.591  0.7372 -0.0400 -0.6796
 1443TIP3    H125820   6.677   3.920  16.511  1.3563  1.3076  0.1740
 1443TIP3    H225821   6.607   3.799  16.568  1.7380 -0.0226 -2.1393
 1444TIP3   OH225822   0.967   2.472   4.657 -0.1999 -0.0406 -0.0919
 1444TIP3    H125823   0.902   2.431   4.714 -0.8121  1.0164 -0.0009
 1444TIP3    H225824   1.029   2.403   4.636 -0.2189 -0.5509  1.5068
 1445TIP3   OH225825   0.449   6.194  14.214 -0.0414  0.0634 -0.5802
 1445TIP3    H125826   0.415   6.283  14.219 -0.5200 -0.0933 -1.0053
 1445TIP3    H225827   0.523   6.193  14.275 -2.2238 -0.2455  2.1983
 1446TIP3   OH225828   4.250   5.395   0.419  0.3211  0.5352 -0.0716
 1446TIP3    H125829   4.175   5.364   0.469  0.6680 -2.0243 -1.0920
 1446TIP3    H225830   4.220   5.399   0.329  1.0290  0.7489 -0.3031
 1447TIP3   OH225831   4.895   3.260   0.862 -0.1422  0.3083  0.8582
 1447TIP3    H125832   4.925   3.349   0.846 -0.8487  0.0944 -1.7901
 1447TIP3    H225833   4.801   3.268   0.876  0.1144  0.2114  2.7502
 1448TIP3   OH225834   2.780   3.776   4.597 -0.5492 -0.2083  0.1713
 1448TIP3    H125835   2.865   3.822   4.593 -0.6789  0.0347  0.1973
 1448TIP3    H225836   2.745   3.783   4.508 -0.7331  0.0562  0.2638
 1449TIP3   OH225837   4.506   5.586  17.286  0.1944  0.1436  0.2229
 1449TIP3    H125838   4.444   5.655  17.308 -0.1477  0.0022 -0.2899
 1449TIP3    H225839   4.591   5.618  17.317 -0.1061  0.4147  0.7653
 1450TIP3   OH225840   4.215   5.879  12.313  0.2463 -0.2040 -0.0672
 1450TIP3    H125841   4.180   5.832  12.389  1.4429 -0.7224  0.1613
 1450TIP3    H225842   4.162   5.847  12.240  0.9262 -1.7996  0.1136
 1451TIP3   OH225843   1.449   0.853  11.885 -0.6109  0.3606 -0.1230
 1451TIP3    H125844   1.477   0.926  11.941  0.3778  1.3745 -1.9213
 1451TIP3    H225845   1.444   0.778  11.945 -0.4767  1.6258  1.5116
 1452TIP3   OH225846   2.010   5.225   0.584 -0.6951  0.1207  0.0078
 1452TIP3    H125847   1.976   5.239   0.672 -0.6830  2.9867 -0.4044
 1452TIP3    H225848   1.932   5.230   0.527 -1.0367 -3.9190 -0.0011
 1453TIP3   OH225849   6.249   4.719   3.177 -0.3116  0.3167 -0.1224
 1453TIP3    H125850   6.308   4.762   3.114  0.8100 -2.3788 -0.9958
 1453TIP3    H225851   6.221   4.639   3.132 -1.1228 -0.6312  2.0213
 1454TIP3   OH225852   6.675   2.046   5.500  0.3918  0.4493  0.1616
 1454TIP3    H125853   6.682   2.133   5.459 -1.6495 -0.0834 -1.3703
 1454TIP3    H225854   6.584   2.040   5.529  0.3363 -1.4439 -0.3518
 1455TIP3   OH225855   0.706   2.366  16.598 -0.1106  0.1945 -0.1506
 1455TIP3    H125856   0.709   2.417  16.517  0.8124  0.0863 -0.2004
 1455TIP3    H225857   0.772   2.297  16.585 -0.1993 -0.0325  0.5552
 1456TIP3   OH225858   1.964   2.856   4.869  0.3383  0.1761 -0.9028
 1456TIP3    H125859   2.044   2.876   4.917  0.0993 -1.2305  0.1129
 1456TIP3    H225860   1.894   2.890   4.924  0.1175 -0.6286 -0.6779
 1457TIP3   OH225861   5.154   5.633  12.239 -0.7291 -0.2925  0.0258
 1457TIP3    H125862   5.103   5.553  12.229 -0.4389 -0.5581  0.6737
 1457TIP3    H225863   5.241   5.602  12.264 -0.2164  0.1494 -1.1861
 1458TIP3   OH225864   5.287   4.058   2.112  0.0581  0.2074  0.6749
 1458TIP3    H125865   5.196   4.045   2.085 -0.1450 -1.0042  1.8771
 1458TIP3    H225866   5.285   4.048   2.207  1.6147 -0.8610  0.6206
 1459TIP3   OH225867   5.005   5.895  16.195 -0.4217  0.0800 -0.3429
 1459TIP3    H125868   4.951   5.922  16.270 -0.4757 -0.7580 -0.0759
 1459TIP3    H225869   4.961   5.817  16.161 -0.5347  0.6087 -1.4010
 1460TIP3   OH225870   3.092   6.724  14.983  0.0670  0.5209 -0.1353
 1460TIP3    H125871   3.181   6.749  15.007  0.2158 -0.3696  0.2952
 1460TIP3    H225872   3.051   6.701  15.067 -0.2575 -0.0081 -0.4355
 1461TIP3   OH225873   6.414   0.030  14.974  0.5766  0.1128  0.5064
 1461TIP3    H125874   6.433  -0.064  14.976  0.3528  0.0488 -0.3096
 1461TIP3    H225875   6.323   0.036  14.945  0.6587  0.5924  0.3411
 1462TIP3   OH225876   0.700   5.540  13.268 -0.5974 -0.2210  0.0140
 1462TIP3    H125877   0.677   5.465  13.213 -1.2756  1.5483 -2.2244
 1462TIP3    H225878   0.636   5.537  13.339  0.0507 -2.3375  0.5519
 1463TIP3   OH225879   4.911   3.809   4.539 -0.5882  0.1177  0.3166
 1463TIP3    H125880   4.974   3.872   4.505 -1.2439 -0.3463 -1.8130
 1463TIP3    H225881   4.955   3.724   4.530 -0.7176  0.0020  0.7609
 1464TIP3   OH225882   4.868   6.388   2.993 -0.2963 -0.1900  0.2550
 1464TIP3    H125883   4.825   6.469   3.019 -0.4327 -0.3508  0.5401
 1464TIP3    H225884   4.862   6.332   3.071 -1.0779 -0.8248 -0.2466
 1465TIP3   OH225885   6.473   3.287  11.037 -0.1300  0.1160 -0.8696
 1465TIP3    H125886   6.404   3.343  11.001 -0.0992 -0.6665 -2.2062
 1465TIP3    H225887   6.530   3.348  11.084  0.3348  1.3759 -2.9545
 1466TIP3   OH225888   0.055   0.963   2.474  0.1288 -0.3893 -0.3826
 1466TIP3    H125889   0.050   0.914   2.556 -0.8653  1.3384  0.6175
 1466TIP3    H225890   0.101   0.904   2.414 -0.5181 -2.2981  0.9451
 1467TIP3   OH225891   5.628   5.674  15.876  0.0689 -0.2659 -0.3650
 1467TIP3    H125892   5.564   5.743  15.894 -2.7316 -3.8222  4.2925
 1467TIP3    H225893   5.693   5.683  15.946 -0.0894 -2.0984  0.0261
 1468TIP3   OH225894   3.556   5.853   5.743 -0.1376  0.0262  0.6608
 1468TIP3    H125895   3.475   5.834   5.694  0.1354 -0.2151  0.2956
 1468TIP3    H225896   3.564   5.948   5.739  0.3869 -0.0590 -0.5949
 1469TIP3   OH225897   2.892   5.083  14.495 -0.2534  0.2078  0.5383
 1469TIP3    H125898   2.975   5.069  14.450 -0.5539  2.1164 -0.6856
 1469TIP3    H225899   2.840   5.005  14.475 -1.0610  1.7499 -4.0796
 1470TIP3   OH225900   3.161   5.730   2.089  0.1061 -0.2554 -0.1205
 1470TIP3    H125901   3.138   5.702   2.001  2.4640 -1.8099 -0.2733
 1470TIP3    H225902   3.108   5.674   2.146 -1.1748  0.5301 -0.5118
 1471TIP3   OH225903   5.899   5.526   2.161  0.9662 -0.9277 -0.0076
 1471TIP3    H125904   5.964   5.552   2.095 -0.3813 -2.9557 -2.2627
 1471TIP3    H225905   5.815   5.531   2.114 -0.5992  1.9699  2.9388
 1472TIP3   OH225906   3.793   2.775  15.971  0.7115  0.5027 -0.0871
 1472TIP3    H125907   3.874   2.739  16.008 -0.9020 -2.5107  0.6017
 1472TIP3    H225908   3.787   2.738  15.884 -0.0541  0.5177 -0.0465
 1473TIP3   OH225909   1.304   3.394  16.281 -0.1070 -0.5290  0.2250
 1473TIP3    H125910   1.383   3.431  16.319 -0.3048  0.5859 -0.4225
 1473TIP3    H225911   1.329   3.374  16.190 -1.5404  3.1081 -1.0511
 1474TIP3   OH225912   0.165   2.329  14.891  0.3451 -0.3591 -0.5923
 1474TIP3    H125913   0.126   2.353  14.974  2.4416  2.5328 -0.3701
 1474TIP3    H225914   0.146   2.235  14.882 -1.3838 -0.3494  2.2770
 1475TIP3   OH225915   4.475   1.838   6.849  0.1854 -0.1811 -0.0979
 1475TIP3    H125916   4.424   1.904   6.895  0.3782 -0.1858  0.1199
 1475TIP3    H225917   4.558   1.881   6.831 -0.1179  0.0416 -1.0051
 1476TIP3   OH225918   4.961   6.099   0.262  0.1093 -0.1476 -0.0113
 1476TIP3    H125919   4.925   6.071   0.178  0.8880 -1.2891  0.0297
 1476TIP3    H225920   5.037   6.043   0.276  0.9928  1.1807  0.6533
 1477TIP3   OH225921   6.628   5.920   5.957 -0.0408  0.4364  0.2179
 1477TIP3    H125922   6.713   5.963   5.955 -0.0708  0.4415 -2.8042
 1477TIP3    H225923   6.637   5.846   5.897 -1.8319 -0.2146  0.7166
 1478TIP3   OH225924   2.610   0.949  16.143  0.8098  0.4764  0.0238
 1478TIP3    H125925   2.695   0.957  16.186  0.7943 -0.6430  0.2597
 1478TIP3    H225926   2.629   0.902  16.062  0.4049  0.1860  0.0964
 1479TIP3   OH225927   6.500   5.656   6.259 -0.1845  0.0776  0.0569
 1479TIP3    H125928   6.499   5.611   6.175  1.4610 -0.9039  0.5332
 1479TIP3    H225929   6.411   5.648   6.293 -0.2755 -1.5486 -0.5449
 1480TIP3   OH225930   5.652   1.686   0.845 -0.2584  0.4064  0.1090
 1480TIP3    H125931   5.708   1.609   0.845 -1.4255 -0.4568 -0.0557
 1480TIP3    H225932   5.672   1.730   0.928  0.5162  0.0024  0.1396
 1481TIP3   OH225933   2.222   0.268   1.065  0.0170  0.0066 -0.2699
 1481TIP3    H125934   2.304   0.219   1.065  0.0091 -0.0428  1.4103
 1481TIP3    H225935   2.225   0.321   0.986  1.4844 -0.3096 -0.4319
 1482TIP3   OH225936   0.321   2.971  15.460 -0.4086 -0.3593  0.5028
 1482TIP3    H125937   0.330   3.050  15.406  2.3260 -1.2590 -0.4234
 1482TIP3    H225938   0.227   2.953  15.460 -0.9507  2.1639 -0.3081
 1483TIP3   OH225939   5.396   1.375   2.194 -0.1655  0.7439 -0.0072
 1483TIP3    H125940   5.443   1.316   2.253 -0.7608 -0.9324 -1.1947
 1483TIP3    H225941   5.446   1.373   2.113 -2.4209 -1.2965 -1.3859
 1484TIP3   OH225942   5.463   1.081   3.693  0.4152  0.2427  0.4197
 1484TIP3    H125943   5.387   1.040   3.733  0.4769 -0.7127 -0.4248
 1484TIP3    H225944   5.523   1.099   3.766 -0.5281  0.8275  1.0591
 1485TIP3   OH225945   0.335   3.271  14.707 -0.2097 -0.3879 -0.1647
 1485TIP3    H125946   0.329   3.359  14.671  1.6882  0.1695  0.8373
 1485TIP3    H225947   0.258   3.263  14.764 -0.7120  0.3791 -0.7149
 1486TIP3   OH225948   1.919   5.113  15.446 -0.1352  0.4723 -0.0430
 1486TIP3    H125949   1.872   5.116  15.363 -0.9014  1.1796  0.4121
 1486TIP3    H225950   2.009   5.091  15.421 -0.8245 -1.6163 -0.8538
 1487TIP3   OH225951   6.470   1.633   2.897 -0.6380 -0.2457 -0.2479
 1487TIP3    H125952   6.494   1.541   2.902  0.2521 -0.0593 -0.8935
 1487TIP3    H225953   6.376   1.634   2.882 -0.6347 -1.0538 -0.2990
 1488TIP3   OH225954   0.107   6.171  13.001  0.4587  0.0331 -0.1883
 1488TIP3    H125955   0.088   6.258  12.966 -1.4198 -0.2339  0.1012
 1488TIP3    H225956   0.191   6.180  13.044 -0.0243  1.8686  0.4136
 1489TIP3   OH225957   3.173   6.053  11.597 -0.4402  0.2543 -0.0297
 1489TIP3    H125958   3.198   5.969  11.559 -0.3253  0.8758 -1.3520
 1489TIP3    H225959   3.085   6.038  11.633 -0.6951 -0.2519 -0.8434
 1490TIP3   OH225960   4.116   1.853   3.383 -0.0232 -0.9204  0.0367
 1490TIP3    H125961   4.101   1.882   3.473 -0.8236 -0.4765 -0.2303
 1490TIP3    H225962   4.046   1.895   3.333  0.5465 -0.9899 -0.8258
 1491TIP3   OH225963   3.147   2.732  16.885 -0.2038  0.6525  0.3913
 1491TIP3    H125964   3.226   2.737  16.831  0.2604  1.7148  1.1543
 1491TIP3    H225965   3.143   2.641  16.914 -0.5541  0.0138 -1.5577
 1492TIP3   OH225966   2.791   2.285   0.165 -0.0313  0.3644  0.1191
 1492TIP3    H125967   2.844   2.219   0.209  0.4543  0.7438  0.1122
 1492TIP3    H225968   2.855   2.339   0.118 -0.2602  1.8867  1.5275
 1493TIP3   OH225969   2.322   5.035  11.334  0.3690  0.0321 -0.6073
 1493TIP3    H125970   2.248   4.974  11.336  0.2327  0.2135 -0.0987
 1493TIP3    H225971   2.330   5.060  11.241 -0.5784  0.4585 -0.5794
 1494TIP3   OH225972   6.140   2.218  10.886 -0.2237 -0.3222 -0.3938
 1494TIP3    H125973   6.077   2.200  10.817 -0.6296 -1.5636  0.2846
 1494TIP3    H225974   6.186   2.134  10.899 -0.1936 -0.1279  0.8693
 1495TIP3   OH225975   5.512   2.339  16.218 -0.3222  0.1696  0.1745
 1495TIP3    H125976   5.511   2.313  16.126 -1.7890  1.2663 -0.1315
 1495TIP3    H225977   5.556   2.423  16.219  0.0310 -0.0173  0.5287
 1496TIP3   OH225978   1.851   2.896  15.393  0.0916 -0.4860 -0.2513
 1496TIP3    H125979   1.864   2.814  15.440 -0.5411 -0.2342  0.3815
 1496TIP3    H225980   1.825   2.958  15.461  0.5760  0.2428 -0.7204
 1497TIP3   OH225981   0.329   0.230  16.307  0.0261 -0.0444  0.5267
 1497TIP3    H125982   0.405   0.195  16.352 -0.4866 -0.6131  0.9589
 1497TIP3    H225983   0.254   0.191  16.352 -0.5117  0.0578 -0.2647
 1498TIP3   OH225984   4.631   1.882  16.957 -0.8243 -0.2947  0.2097
 1498TIP3    H125985   4.574   1.953  16.985 -0.9688 -0.6878  0.9323
 1498TIP3    H225986   4.592   1.803  16.997  0.3669 -0.5310  0.9285
 1499TIP3   OH225987   6.806   6.642  15.633 -0.2388 -0.2472  0.0111
 1499TIP3    H125988   6.851   6.604  15.709 -1.0258  0.9912  1.1175
 1499TIP3    H225989   6.720   6.667  15.666  0.3627  2.8143 -0.5734
 1500TIP3   OH225990   0.331   3.245   5.184  0.4581 -0.4949  0.0561
 1500TIP3    H125991   0.313   3.213   5.096 -0.6424  0.6102 -0.1390
 1500TIP3    H225992   0.425   3.235   5.195  0.6745 -0.1319 -1.4406
 1501TIP3   OH225993   0.705   6.318   5.503  0.3817  0.0023  0.0638
 1501TIP3    H125994   0.760   6.268   5.443  0.2912 -1.1007  0.8889
 1501TIP3    H225995   0.739   6.299   5.590 -1.2044 -0.5782  0.5742
 1502TIP3   OH225996   6.230   6.633   3.830 -0.0038 -0.4201  0.0722
 1502TIP3    H125997   6.323   6.608   3.826  0.6505  1.8048  0.6373
 1502TIP3    H225998   6.220   6.696   3.759 -0.7508  0.4355  0.9446
 1503TIP3   OH225999   3.357   5.583  13.354  0.3439 -0.1084 -0.5250
 1503TIP3    H126000   3.417   5.558  13.284 -0.8433 -1.4911 -1.0819
 1503TIP3    H226001   3.284   5.522  13.345 -0.6309  0.8440  0.8239
 1504TIP3   OH226002   0.701   3.302  15.036  0.0997 -0.2711 -0.1333
 1504TIP3    H126003   0.678   3.251  14.959  0.6859 -0.3639 -0.2483
 1504TIP3    H226004   0.782   3.347  15.012 -1.2857  2.0582 -0.6605
 1505TIP3   OH226005   6.250   2.244   5.026  0.8187  0.2075 -0.1994
 1505TIP3    H126006   6.216   2.165   5.068  0.7966  1.2634  1.7730
 1505TIP3    H226007   6.221   2.236   4.935  0.1076 -1.6397  0.1612
 1506TIP3   OH226008   4.334   1.115   2.825  0.0850 -0.1004  0.2807
 1506TIP3    H126009   4.241   1.090   2.822  0.0200  0.2907 -0.9240
 1506TIP3    H226010   4.362   1.115   2.734  1.0033  0.8048  0.5630
 1507TIP3   OH226011   5.063   2.016  13.830  0.2953  0.0499  0.1041
 1507TIP3    H126012   5.158   2.025  13.820  0.2303 -1.0815 -1.8771
 1507TIP3    H226013   5.052   1.979  13.918  1.7813 -0.9278 -0.0991
 1508TIP3   OH226014   6.064   0.357  12.325  0.5331  0.2328 -0.5409
 1508TIP3    H126015   6.121   0.294  12.369 -0.1606  0.4153  0.6548
 1508TIP3    H226016   6.110   0.379  12.244  1.3911 -0.8269 -0.3476
 1509TIP3   OH226017   5.751   4.877   2.549 -0.4989 -0.0258 -0.4105
 1509TIP3    H126018   5.669   4.834   2.526 -0.0014 -0.4169 -1.4882
 1509TIP3    H226019   5.782   4.829   2.626 -0.5531 -0.8436 -0.8842
 1510TIP3   OH226020   1.928   3.087   1.287  0.5402 -0.5337  0.4567
 1510TIP3    H126021   1.902   3.012   1.235 -2.3547  1.1483 -0.6143
 1510TIP3    H226022   1.846   3.131   1.309  2.0684  1.5458  2.2465
 1511TIP3   OH226023   2.829   3.596  13.469  0.0507  0.3227 -0.0388
 1511TIP3    H126024   2.878   3.588  13.552 -2.1265 -0.8906  1.1682
 1511TIP3    H226025   2.848   3.685  13.439  1.3026  0.6044  1.4731
 1512TIP3   OH226026   5.772   5.810  13.333  0.5586 -0.2048 -0.6812
 1512TIP3    H126027   5.857   5.841  13.305  0.2571  0.2066 -1.1553
 1512TIP3    H226028   5.735   5.768  13.255  0.4326 -0.6022 -0.4101
 1513TIP3   OH226029   0.019   5.921   0.273 -0.2977 -1.1038  0.3973
 1513TIP3    H126030   0.078   5.850   0.299 -0.1950 -0.8372  0.9015
 1513TIP3    H226031  -0.037   5.935   0.350 -0.8053 -1.1371  0.0371
 1514TIP3   OH226032   0.927   6.540   1.474 -0.4269 -0.6088  0.2411
 1514TIP3    H126033   0.924   6.461   1.420 -1.9430  0.5524 -1.4200
 1514TIP3    H226034   1.002   6.589   1.440 -1.4332  0.1631 -0.9078
 1515TIP3   OH226035   0.736   0.796  16.215  0.2062  0.1257  0.0699
 1515TIP3    H126036   0.827   0.765  16.219  0.4064  0.7611  0.6170
 1515TIP3    H226037   0.742   0.889  16.239 -0.5269  0.2933 -0.3757
 1516TIP3   OH226038   0.967   1.249   0.353  0.0315 -0.4194 -0.0509
 1516TIP3    H126039   0.913   1.268   0.276  1.3904  1.4242 -0.5732
 1516TIP3    H226040   0.915   1.279   0.427  0.4415  1.6614 -0.5735
 1517TIP3   OH226041   3.752   0.427  13.299 -0.1166  0.1554 -0.2119
 1517TIP3    H126042   3.789   0.487  13.234  0.8709 -0.3569 -0.1387
 1517TIP3    H226043   3.770   0.340  13.264 -0.3854 -0.1131  0.3110
 1518TIP3   OH226044   5.222   1.073  16.283 -0.0108  1.0521  0.0593
 1518TIP3    H126045   5.273   1.148  16.253  0.1540  0.9758  0.1478
 1518TIP3    H226046   5.286   1.002  16.289 -0.1229  0.9632  0.1924
 1519TIP3   OH226047   1.613   3.834   1.761 -0.3194 -0.0410 -0.0937
 1519TIP3    H126048   1.696   3.789   1.746 -0.3968 -0.3190  0.3212
 1519TIP3    H226049   1.552   3.796   1.697 -0.6417 -1.2091  0.9020
 1520TIP3   OH226050   0.852   0.684   4.114  0.2022  0.8354 -0.3686
 1520TIP3    H126051   0.885   0.658   4.028  1.1264  0.0199  0.2259
 1520TIP3    H226052   0.903   0.633   4.176 -0.9245  0.9154  0.6495
 1521TIP3   OH226053   3.966   5.464  13.310  0.1392  0.2844 -0.0980
 1521TIP3    H126054   4.041   5.467  13.369  0.4188 -0.0588 -0.4345
 1521TIP3    H226055   3.890   5.482  13.366  0.3579 -0.4389  0.4456
 1522TIP3   OH226056   5.173   4.940   0.428 -0.5934 -0.5053  0.3089
 1522TIP3    H126057   5.085   4.977   0.426 -0.5780 -0.3995  1.1813
 1522TIP3    H226058   5.227   5.001   0.378 -1.3491 -1.4854 -1.7285
 1523TIP3   OH226059   5.268   1.860   1.039 -0.3680  0.0077 -0.2380
 1523TIP3    H126060   5.248   1.954   1.040 -2.5065 -0.3959 -1.4121
 1523TIP3    H226061   5.285   1.840   0.947  2.4030 -0.3201  0.3249
 1524TIP3   OH226062   2.213   5.747  14.305  0.0276  0.3300  0.5001
 1524TIP3    H126063   2.271   5.709  14.240 -1.4429  0.7065 -1.0774
 1524TIP3    H226064   2.152   5.801  14.254 -1.5462  0.1333  2.1099
 1525TIP3   OH226065   5.591   5.555   5.049  0.1562  0.1365  0.6879
 1525TIP3    H126066   5.501   5.582   5.029  0.6612  2.5097  1.4893
 1525TIP3    H226067   5.633   5.545   4.963  0.1839  2.7992  0.3553
 1526TIP3   OH226068   0.827   1.284  16.388 -0.3932 -0.0108  0.4693
 1526TIP3    H126069   0.912   1.317  16.358 -0.4286  0.7703  1.1962
 1526TIP3    H226070   0.763   1.340  16.346 -0.4738  0.5585  1.3324
 1527TIP3   OH226071   2.200   6.261   3.678 -0.3943  0.4399  0.4979
 1527TIP3    H126072   2.203   6.230   3.768  2.0933  2.0042  0.9735
 1527TIP3    H226073   2.228   6.352   3.682 -1.4385  0.9027 -1.7153
 1528TIP3   OH226074   6.563   4.565   3.771  0.4356  0.0706  0.1194
 1528TIP3    H126075   6.586   4.476   3.747 -1.5503 -0.3817 -0.1902
 1528TIP3    H226076   6.478   4.580   3.730  0.8727  2.2088 -0.0743
 1529TIP3   OH226077   1.554   0.827  16.077  0.0881  0.1783  0.0194
 1529TIP3    H126078   1.469   0.870  16.087  0.5047  0.9892  0.0464
 1529TIP3    H226079   1.558   0.805  15.984 -0.4210 -0.4305  0.1343
 1530TIP3   OH226080   3.807   2.813   4.076 -0.4016  0.2656 -0.2424
 1530TIP3    H126081   3.829   2.771   4.160 -1.8190 -1.7989 -0.8550
 1530TIP3    H226082   3.788   2.904   4.099 -0.7183 -0.2573  1.6836
 1531TIP3   OH226083   2.477   1.282  13.943 -0.0790  0.6439 -0.1752
 1531TIP3    H126084   2.404   1.230  13.976  2.1557 -2.1865  0.6271
 1531TIP3    H226085   2.444   1.325  13.864 -2.3261 -1.2478 -0.3073
 1532TIP3   OH226086   3.668   1.846   3.604  0.2311 -0.4322  0.0503
 1532TIP3    H126087   3.682   1.939   3.618  2.1824 -0.6906 -0.0702
 1532TIP3    H226088   3.709   1.804   3.680  1.3417 -1.3029 -1.0214
 1533TIP3   OH226089   3.890   0.421  15.765 -0.8492  0.2442  0.3635
 1533TIP3    H126090   3.794   0.416  15.765 -0.8720  0.6422 -0.1605
 1533TIP3    H226091   3.909   0.503  15.720 -0.2435 -0.1973 -0.1800
 1534TIP3   OH226092   1.696   2.433   4.818  0.1365 -0.1964  0.3714
 1534TIP3    H126093   1.600   2.429   4.820  0.1160  0.0160 -0.2897
 1534TIP3    H226094   1.724   2.347   4.850 -0.2627  0.1915  1.8118
 1535TIP3   OH226095   2.405   0.185   3.761 -0.2770 -0.5414 -0.0100
 1535TIP3    H126096   2.310   0.190   3.770 -0.5272 -1.2985 -1.9284
 1535TIP3    H226097   2.423   0.219   3.673  1.1065 -1.5322 -0.1279
 1536TIP3   OH226098   1.763   6.531   4.591 -0.1494 -0.0146 -0.3069
 1536TIP3    H126099   1.685   6.481   4.615 -0.2853 -0.2692 -1.2640
 1536TIP3    H226100   1.761   6.607   4.649 -0.8493 -0.2719  0.0107
 1537TIP3   OH226101   4.863   2.928   2.999  0.2501  0.4019  0.4920
 1537TIP3    H126102   4.829   2.881   2.923 -0.0669 -0.1884  1.0015
 1537TIP3    H226103   4.836   2.876   3.074  0.3560  1.1159  1.0287
 1538TIP3   OH226104   3.035   0.410   4.166  0.2054 -0.2070  0.1249
 1538TIP3    H126105   3.058   0.461   4.089  0.8951  0.0933  0.5252
 1538TIP3    H226106   3.008   0.474   4.231 -1.7870 -0.5513 -0.3217
 1539TIP3   OH226107   2.535   0.545   3.145 -0.9139  0.0185  0.0417
 1539TIP3    H126108   2.457   0.600   3.137 -1.1721 -0.4964 -1.0918
 1539TIP3    H226109   2.564   0.558   3.235 -1.7597  0.9515  0.1919
 1540TIP3   OH226110   3.837   2.962   2.350  0.1860 -0.1987  0.2287
 1540TIP3    H126111   3.800   2.985   2.436 -3.1582  0.5749 -1.3197
 1540TIP3    H226112   3.910   3.023   2.338 -1.0149  1.5093  1.3911
 1541TIP3   OH226113   5.256   0.478  16.030 -0.9033  0.0848  0.5384
 1541TIP3    H126114   5.218   0.536  16.096 -0.4349  0.5091  0.4395
 1541TIP3    H226115   5.263   0.533  15.952 -0.1249 -0.0028  0.5439
 1542TIP3   OH226116   4.606   3.464  11.705 -0.2632 -0.6761 -0.3309
 1542TIP3    H126117   4.560   3.441  11.785 -0.0016 -1.8895 -0.5292
 1542TIP3    H226118   4.547   3.439  11.635  0.6346 -2.1150 -0.5837
 1543TIP3   OH226119   5.634   3.526  14.052 -0.1691  0.6274 -0.3526
 1543TIP3    H126120   5.576   3.474  14.109 -2.6183  0.7329 -2.6274
 1543TIP3    H226121   5.711   3.471  14.040 -0.0667  0.1410  2.1466
 1544TIP3   OH226122   1.993   0.474  12.041  0.6855 -0.0741 -0.3857
 1544TIP3    H126123   1.957   0.458  12.128 -0.9632 -1.0163 -1.2351
 1544TIP3    H226124   1.963   0.400  11.988 -0.2263  1.6707 -2.3330
 1545TIP3   OH226125   3.520   2.012   5.558 -0.4259 -0.1572  0.0674
 1545TIP3    H126126   3.603   1.964   5.566 -0.7690 -0.8063 -0.2624
 1545TIP3    H226127   3.504   2.016   5.464 -0.7500 -0.0003  0.1302
 1546TIP3   OH226128   3.130   0.128  11.400 -0.0917  0.0272  0.1921
 1546TIP3    H126129   3.179   0.161  11.325 -0.3653 -0.3719 -0.1592
 1546TIP3    H226130   3.196   0.113  11.468  0.2838 -0.6092 -0.3153
 1547TIP3   OH226131   4.048   3.317   2.977  0.4695 -0.1983  0.1869
 1547TIP3    H126132   3.979   3.280   3.032  1.5904 -2.7997 -0.0591
 1547TIP3    H226133   4.129   3.280   3.014  1.6927  2.3091  0.1121
 1548TIP3   OH226134   0.437   0.151  13.944 -0.6215  0.0972 -0.2576
 1548TIP3    H126135   0.508   0.101  13.905 -0.7014 -0.5314  0.3971
 1548TIP3    H226136   0.359   0.098  13.929 -0.8183  0.3570 -0.1690
 1549TIP3   OH226137   2.327   6.558   4.069 -0.0635  0.0537  0.1631
 1549TIP3    H126138   2.321   6.544   4.164 -2.5980  1.3042  0.2170
 1549TIP3    H226139   2.388   6.631   4.059  0.8985 -0.6518  0.7571
 1550TIP3   OH226140   2.474   3.087   5.335  0.1729 -0.2876 -0.3241
 1550TIP3    H126141   2.506   3.149   5.402 -2.4797  0.7872  0.0166
 1550TIP3    H226142   2.436   3.143   5.267  0.4365 -1.4671 -1.4600
 1551TIP3   OH226143   0.724   1.776  14.571 -0.1703 -0.7962  0.0073
 1551TIP3    H126144   0.758   1.799  14.485 -0.7882 -1.6502 -0.4829
 1551TIP3    H226145   0.638   1.738  14.553  0.9445 -3.8431  0.6766
 1552TIP3   OH226146   4.677   5.048   5.606 -0.7861  0.2317 -0.2261
 1552TIP3    H126147   4.669   5.138   5.576  1.9605  0.2910 -0.8839
 1552TIP3    H226148   4.722   5.054   5.690 -1.9324 -0.4343  0.4491
 1553TIP3   OH226149   3.150   1.339  16.495  0.9396  0.0326  0.3151
 1553TIP3    H126150   3.145   1.294  16.410 -0.0487 -0.9186  0.8739
 1553TIP3    H226151   3.226   1.300  16.538 -0.1477 -1.4194  0.9598
 1554TIP3   OH226152   6.727   2.107   3.919  0.2131  0.2471  0.0613
 1554TIP3    H126153   6.706   2.160   3.997 -3.5222 -1.7304  0.4861
 1554TIP3    H226154   6.749   2.021   3.954 -0.0175 -0.2468 -1.0018
 1555TIP3   OH226155   1.687   2.532   4.238 -0.2141  0.8056  0.1993
 1555TIP3    H126156   1.781   2.536   4.257 -0.2461  1.1746  0.2920
 1555TIP3    H226157   1.662   2.624   4.224  0.0594  0.4480 -2.8986
 1556TIP3   OH226158   0.080   5.589   2.115 -0.0718 -0.1827 -0.2821
 1556TIP3    H126159   0.175   5.590   2.124 -0.0681 -0.5370 -0.2567
 1556TIP3    H226160   0.059   5.497   2.098 -0.4565 -0.1832  0.1999
 1557TIP3   OH226161   6.117   4.168  16.507 -0.2354 -0.5229  0.7274
 1557TIP3    H126162   6.083   4.244  16.555  1.0593 -1.2782  2.9128
 1557TIP3    H226163   6.053   4.099  16.524 -0.8819 -0.2130 -0.4164
 1558TIP3   OH226164   2.978   5.034  13.908 -0.0964  0.4428  0.3534
 1558TIP3    H126165   2.963   5.023  14.002 -1.2170 -1.8616 -0.0658
 1558TIP3    H226166   2.918   5.105  13.882 -0.4636  0.4439  1.1954
 1559TIP3   OH226167   0.499   3.708  16.689 -0.9817 -0.0451 -0.3291
 1559TIP3    H126168   0.577   3.655  16.673  0.2625  1.4527  0.6325
 1559TIP3    H226169   0.481   3.696  16.782  0.2135  2.3943  0.2410
 1560TIP3   OH226170   3.871   1.148   1.580  0.3976 -0.1529  0.0720
 1560TIP3    H126171   3.901   1.235   1.607  0.6804 -0.5849  1.1990
 1560TIP3    H226172   3.907   1.137   1.492 -0.6863  1.3607 -0.5818
 1561TIP3   OH226173   0.779   0.083  12.827  0.0558  0.1661 -0.2981
 1561TIP3    H126174   0.813   0.124  12.748 -0.6114 -0.0519 -0.6984
 1561TIP3    H226175   0.852   0.085  12.889  0.7867 -0.2959 -1.1541
 1562TIP3   OH226176   1.486   4.377   6.203  0.0005 -0.5165  0.2638
 1562TIP3    H126177   1.515   4.299   6.155 -1.5202 -1.4737  0.8575
 1562TIP3    H226178   1.502   4.355   6.295  0.0783  0.1061  0.3998
 1563TIP3   OH226179   2.247   5.686   2.194 -0.3356  0.1741  0.3475
 1563TIP3    H126180   2.186   5.749   2.156 -2.8286 -1.2829  1.7785
 1563TIP3    H226181   2.310   5.669   2.125 -2.3824  0.6390 -1.7100
 1564TIP3   OH226182   4.287   0.047  11.701  0.3195  0.5808 -0.3909
 1564TIP3    H126183   4.362   0.071  11.647  3.1453 -3.3311  1.5750
 1564TIP3    H226184   4.306   0.085  11.787 -0.4744  0.4647 -0.1547
 1565TIP3   OH226185   2.350   0.747  15.352  0.1858  0.2286  0.2042
 1565TIP3    H126186   2.396   0.813  15.403 -0.8186  0.4181  0.8909
 1565TIP3    H226187   2.412   0.675  15.343  2.0866  2.0907 -2.3991
 1566TIP3   OH226188   2.142   5.670   1.401  0.0651 -0.1799 -0.0139
 1566TIP3    H126189   2.176   5.593   1.356  0.6011  0.1658 -0.2084
 1566TIP3    H226190   2.113   5.637   1.486 -0.1200 -0.6734 -0.2693
 1567TIP3   OH226191   5.946   3.506   2.862  0.3351  0.3814 -0.5328
 1567TIP3    H126192   5.873   3.544   2.814  0.5452  1.4358 -0.0367
 1567TIP3    H226193   6.006   3.475   2.794  0.3365  1.2924 -0.9637
 1568TIP3   OH226194   4.856   6.796   3.974  0.3572 -0.1603 -0.1308
 1568TIP3    H126195   4.769   6.814   3.941  0.2373  0.2492  0.4020
 1568TIP3    H226196   4.865   6.852   4.051  0.2627 -1.7634  1.0951
 1569TIP3   OH226197   0.874   6.789   3.548 -0.0331  0.4309  0.0265
 1569TIP3    H126198   0.835   6.702   3.551  0.2779  0.3238  1.1173
 1569TIP3    H226199   0.966   6.776   3.571  0.3036  0.8951 -0.9856
 1570TIP3   OH226200   4.818   5.107   1.659  0.3475 -0.0698 -0.0544
 1570TIP3    H126201   4.743   5.165   1.646  2.1911  2.7283  1.2696
 1570TIP3    H226202   4.786   5.041   1.722 -1.2479  0.4885 -0.2436
 1571TIP3   OH226203   6.341   5.331  13.527  0.2925  0.4217 -0.7845
 1571TIP3    H126204   6.246   5.330  13.540  0.2985  0.0145 -0.7953
 1571TIP3    H226205   6.377   5.295  13.608  0.4765  1.3574 -0.4299
 1572TIP3   OH226206   5.359   2.383   0.257 -0.5614 -0.3132  0.1680
 1572TIP3    H126207   5.441   2.411   0.297 -0.6059  0.6946 -0.4250
 1572TIP3    H226208   5.301   2.365   0.331 -0.0751 -0.2179  0.5777
 1573TIP3   OH226209   2.930   5.819  16.199  0.1161  0.2962 -0.2974
 1573TIP3    H126210   2.969   5.767  16.129 -0.3505 -0.6012  0.1047
 1573TIP3    H226211   2.963   5.908  16.184  1.2917 -0.2014 -0.7117
 1574TIP3   OH226212   2.229   5.700   2.470  0.1807 -0.0471 -0.1430
 1574TIP3    H126213   2.135   5.716   2.477  0.1331  0.1669 -1.1709
 1574TIP3    H226214   2.243   5.681   2.377  0.8262 -2.1412  0.3584
 1575TIP3   OH226215   1.572   6.036   1.082 -0.4047  0.4234 -0.7796
 1575TIP3    H126216   1.576   5.941   1.084 -1.8858  0.3774  0.9431
 1575TIP3    H226217   1.656   6.063   1.044  0.8244 -1.4810  0.5399
 1576TIP3   OH226218   5.247   3.455  11.603  0.3903  0.0417 -0.5058
 1576TIP3    H126219   5.230   3.384  11.665 -0.6810 -0.1832 -1.0404
 1576TIP3    H226220   5.194   3.528  11.636 -1.0292 -0.4014 -1.7162
 1577TIP3   OH226221   4.317   0.674   1.543 -0.2655 -0.0567 -0.0351
 1577TIP3    H126222   4.259   0.603   1.569  1.2740 -1.4146 -0.2213
 1577TIP3    H226223   4.394   0.664   1.599  0.7682  0.2913 -1.3725
 1578TIP3   OH226224   0.369   3.713  12.260 -0.6449  0.0968 -0.3486
 1578TIP3    H126225   0.370   3.655  12.337 -0.1373  0.2544 -0.2351
 1578TIP3    H226226   0.280   3.707  12.227 -0.3890 -1.3848 -0.8147
 1579TIP3   OH226227   1.502   1.705  11.388 -0.7156 -0.4946 -0.1598
 1579TIP3    H126228   1.456   1.622  11.405 -1.5646  0.0589  0.2837
 1579TIP3    H226229   1.458   1.768  11.445 -0.7895  0.4914 -1.3060
 1580TIP3   OH226230   3.754   5.666   5.365  0.1298 -0.2548  0.1603
 1580TIP3    H126231   3.764   5.646   5.458 -0.4465 -1.0215  0.0673
 1580TIP3    H226232   3.759   5.580   5.322 -4.2762 -0.5206 -0.1081
 1581TIP3   OH226233   3.318   2.807  13.060 -0.3465 -0.1176  0.4981
 1581TIP3    H126234   3.363   2.730  13.096  0.2821  0.4076  0.8347
 1581TIP3    H226235   3.235   2.772  13.027 -0.1637 -0.9059  0.8503
 1582TIP3   OH226236   3.642   0.183  11.587  0.5303  0.1429  0.0835
 1582TIP3    H126237   3.671   0.157  11.499  0.0405  1.7265 -0.5757
 1582TIP3    H226238   3.675   0.272  11.597 -1.1248  0.6977  0.7165
 1583TIP3   OH226239   3.356   2.507   0.139 -0.5225  0.3991  0.4282
 1583TIP3    H126240   3.309   2.552   0.069 -2.9036 -1.8402  0.5024
 1583TIP3    H226241   3.377   2.421   0.102  0.2195  0.0240  1.6825
 1584TIP3   OH226242   1.357   5.103   3.370 -0.4657  0.6437 -0.3970
 1584TIP3    H126243   1.337   5.196   3.362 -0.0863  0.8574  1.0806
 1584TIP3    H226244   1.416   5.085   3.297  1.3107  2.0880  0.6577
 1585TIP3   OH226245   0.148   1.711  15.670 -0.1075  0.3647  0.1440
 1585TIP3    H126246   0.152   1.615  15.667 -0.8150  0.3800 -2.1318
 1585TIP3    H226247   0.183   1.734  15.756 -0.1713 -1.9510  0.8169
 1586TIP3   OH226248   1.977   4.515  11.332 -0.3110  0.6038 -0.0717
 1586TIP3    H126249   1.958   4.566  11.253 -1.3811  2.0634  1.1071
 1586TIP3    H226250   2.045   4.453  11.305 -0.2357  1.4912 -1.9716
 1587TIP3   OH226251   1.721   4.000  12.974 -0.1612 -0.0746  0.2937
 1587TIP3    H126252   1.678   3.923  12.936  1.5108 -0.5675 -0.6703
 1587TIP3    H226253   1.810   3.998  12.938  0.1790  1.8202  0.9620
 1588TIP3   OH226254   2.463   5.022  17.175 -0.5668  0.6906  0.4019
 1588TIP3    H126255   2.520   5.067  17.113  0.9752  0.3845  1.5835
 1588TIP3    H226256   2.474   4.929  17.155 -0.7750  0.6405  0.5177
 1589TIP3   OH226257   1.869   2.431  11.625 -0.4195  0.2291  0.5858
 1589TIP3    H126258   1.831   2.428  11.537  2.2166 -0.5467 -0.5774
 1589TIP3    H226259   1.874   2.524  11.646  0.0118  0.4842 -0.5822
 1590TIP3   OH226260   5.477   3.801   2.408  0.2839  0.3902  0.0976
 1590TIP3    H126261   5.498   3.771   2.497  0.2751  0.6092  0.1720
 1590TIP3    H226262   5.502   3.727   2.352 -1.1521 -0.3671  0.4142
 1591TIP3   OH226263   5.482   0.347  16.807 -0.0551 -0.1366  0.4011
 1591TIP3    H126264   5.577   0.347  16.812 -0.0837 -0.2531  1.0087
 1591TIP3    H226265   5.460   0.432  16.767  0.4108 -1.2142 -2.2332
 1592TIP3   OH226266   1.520   2.994   2.797  0.0797  0.2696 -0.0008
 1592TIP3    H126267   1.546   2.937   2.725 -0.8673 -0.3472  0.1351
 1592TIP3    H226268   1.469   2.937   2.855 -0.1923  1.0625  0.5437
 1593TIP3   OH226269   1.869   2.556   2.961 -0.2211  0.3870 -0.5304
 1593TIP3    H126270   1.810   2.628   2.939 -0.1133  0.0933 -1.8096
 1593TIP3    H226271   1.850   2.536   3.053 -1.0537  1.2859 -0.5060
 1594TIP3   OH226272   5.293   6.721  12.826 -0.0004 -0.0866 -0.5775
 1594TIP3    H126273   5.316   6.811  12.846  0.2807 -0.0156 -1.2131
 1594TIP3    H226274   5.265   6.684  12.910 -2.3642  1.2490 -0.7560
 1595TIP3   OH226275   6.008   5.609  12.005  0.8513 -0.4658  0.7337
 1595TIP3    H126276   6.089   5.591  12.054  2.2237  0.8063 -0.9969
 1595TIP3    H226277   6.018   5.558  11.925 -0.1777 -0.4741  0.6103
 1596TIP3   OH226278   4.424   0.789   4.938  0.7873 -0.1023 -0.2559
 1596TIP3    H126279   4.405   0.780   4.845  0.5804 -1.1151 -0.1196
 1596TIP3    H226280   4.358   0.850   4.971 -1.4288 -2.5647 -0.0427
 1597TIP3   OH226281   2.040   2.394   0.221  0.8899 -0.3928  0.0941
 1597TIP3    H126282   2.008   2.377   0.132  0.2356  2.7341 -0.3234
 1597TIP3    H226283   2.136   2.394   0.212  0.8625 -1.2552 -0.3388
 1598TIP3   OH226284   2.501   2.937   3.448  0.4318 -0.3379  0.0503
 1598TIP3    H126285   2.590   2.935   3.482  1.2369  1.1988 -1.9124
 1598TIP3    H226286   2.510   2.939   3.353 -1.7601 -2.4909 -0.2780
 1599TIP3   OH226287   0.030   1.776  15.410  0.0832 -0.4656  0.2404
 1599TIP3    H126288   0.079   1.707  15.366 -0.1852  0.4752 -1.5870
 1599TIP3    H226289   0.072   1.785  15.495  0.4205 -2.5476  0.3153
 1600TIP3   OH226290   5.487   0.521   2.518  0.1178 -0.0664 -0.5841
 1600TIP3    H126291   5.574   0.520   2.558 -0.6320 -0.7421  1.0518
 1600TIP3    H226292   5.426   0.508   2.591 -1.2881 -1.1968 -1.9278
 1601TIP3   OH226293   2.975   6.217   2.238  0.3747  0.4577 -0.1977
 1601TIP3    H126294   3.011   6.146   2.186  0.2469 -0.5452  1.0736
 1601TIP3    H226295   2.987   6.190   2.329  0.6909  2.2373  0.3136
 1602TIP3   OH226296   5.034   6.181   3.198  0.1720 -0.2336  0.1465
 1602TIP3    H126297   5.057   6.264   3.240  1.2788 -0.4075 -0.0952
 1602TIP3    H226298   5.092   6.176   3.122  0.0779 -1.2003  0.1323
 1603TIP3   OH226299   3.849   2.358  13.271  0.5100  0.6422  0.3674
 1603TIP3    H126300   3.922   2.342  13.331  0.0330 -0.7485  0.6058
 1603TIP3    H226301   3.861   2.292  13.202  0.1671  1.2138 -0.2410
 1604TIP3   OH226302   2.829   0.742  11.965  0.1265  0.0667 -0.5719
 1604TIP3    H126303   2.887   0.709  11.897 -1.7040 -0.1935 -2.0324
 1604TIP3    H226304   2.830   0.674  12.033 -0.6283 -1.2509 -1.8457
 1605TIP3   OH226305   5.225   3.217   3.979 -0.0804  0.5346  0.1874
 1605TIP3    H126306   5.242   3.309   3.959  0.2249  0.0359 -1.9672
 1605TIP3    H226307   5.139   3.200   3.939 -0.8811  0.2805  1.9533
 1606TIP3   OH226308   1.723   5.986   5.158  0.3752  0.8802  0.3517
 1606TIP3    H126309   1.632   6.017   5.163  0.3876  0.6330  3.0390
 1606TIP3    H226310   1.776   6.063   5.181  0.7523  0.5684  0.5253
 1607TIP3   OH226311   2.765   3.529  15.338  0.1674 -0.1862 -0.1002
 1607TIP3    H126312   2.724   3.505  15.255 -1.3793 -1.9165  1.1264
 1607TIP3    H226313   2.836   3.465  15.348 -1.6035 -1.9647  1.3741
 1608TIP3   OH226314   4.349   4.611  12.861  0.6573 -0.3388  0.0871
 1608TIP3    H126315   4.442   4.600  12.881  0.3856 -1.5730  0.7110
 1608TIP3    H226316   4.335   4.558  12.783  0.3222 -0.7418  0.4183
 1609TIP3   OH226317   4.946   4.513  11.107 -0.1288  0.1275  0.1818
 1609TIP3    H126318   4.946   4.476  11.018 -2.4593  1.9442 -0.6176
 1609TIP3    H226319   5.001   4.591  11.101 -1.1168  0.8190  0.0777
 1610TIP3   OH226320   4.806   0.562   2.402  0.3713 -0.0932 -0.0893
 1610TIP3    H126321   4.860   0.630   2.443  1.1802  0.7839 -2.5139
 1610TIP3    H226322   4.739   0.542   2.467 -0.1072  3.2914  0.5723
 1611TIP3   OH226323   5.286   5.661  13.415 -0.3627  0.3557 -0.0330
 1611TIP3    H126324   5.208   5.632  13.463 -0.0631  0.0221  0.2590
 1611TIP3    H226325   5.355   5.666  13.482  0.7077 -2.6221 -0.8176
 1612TIP3   OH226326   4.161   3.377   3.910  0.1430 -0.7875  0.1210
 1612TIP3    H126327   4.190   3.317   3.841 -0.3314 -1.1966  0.2767
 1612TIP3    H226328   4.104   3.324   3.966 -0.5559 -0.1001  0.0621
 1613TIP3   OH226329   5.507   6.479  10.577 -0.3134  0.1516  0.3243
 1613TIP3    H126330   5.463   6.395  10.568  0.8673 -0.8024  2.9188
 1613TIP3    H226331   5.439   6.538  10.611 -0.5006 -0.3881  0.8892
 1614TIP3   OH226332   5.584   6.626   0.250  0.9115  0.6532 -0.1973
 1614TIP3    H126333   5.494   6.640   0.282  0.8819  0.3322 -0.1351
 1614TIP3    H226334   5.636   6.693   0.295  0.8028  0.4613  0.2220
 1615TIP3   OH226335   3.351   6.436  13.793  0.2464  0.2635  0.0465
 1615TIP3    H126336   3.329   6.492  13.719 -3.0452 -0.8560  0.0956
 1615TIP3    H226337   3.317   6.349  13.769  3.2445 -1.2377  0.9136
 1616TIP3   OH226338   6.056   0.065   1.701 -0.0036 -0.5491  0.0484
 1616TIP3    H126339   6.087   0.138   1.755 -0.6137  0.2023 -0.5834
 1616TIP3    H226340   6.117  -0.006   1.718  0.2469 -0.0758  1.1465
 1617TIP3   OH226341   4.330   4.003  15.643 -0.2512  0.5603 -0.1783
 1617TIP3    H126342   4.361   4.028  15.730 -0.7548 -0.1066  0.1878
 1617TIP3    H226343   4.341   4.083  15.591  2.0897  0.3617 -0.0536
 1618TIP3   OH226344   0.734   0.102  13.881  0.2108 -0.1191 -0.2118
 1618TIP3    H126345   0.765   0.066  13.965 -0.7733  0.8141  0.5554
 1618TIP3    H226346   0.774   0.045  13.815  1.0024 -0.8617  0.8872
 1619TIP3   OH226347   4.509   4.784   0.554 -0.1297  0.3145  0.4560
 1619TIP3    H126348   4.554   4.801   0.471  0.3343  0.7666  0.7954
 1619TIP3    H226349   4.436   4.727   0.531  1.1941 -1.2703  0.0245
 1620TIP3   OH226350   2.626   6.399  12.330 -0.4278  0.1013  0.2458
 1620TIP3    H126351   2.559   6.453  12.371  0.8513  0.3846  2.0386
 1620TIP3    H226352   2.606   6.310  12.360 -1.1895 -0.1128 -0.8690
 1621TIP3   OH226353   5.051   4.578   5.748  0.3491 -0.4071 -0.2194
 1621TIP3    H126354   5.081   4.533   5.669  0.1848 -1.8603  0.5314
 1621TIP3    H226355   4.984   4.520   5.784  0.1707  0.4240  0.7963
 1622TIP3   OH226356   1.787   6.789   4.717  0.3321 -0.5925 -0.2440
 1622TIP3    H126357   1.728   6.858   4.688 -0.3199 -1.8443 -1.9610
 1622TIP3    H226358   1.869   6.835   4.739 -0.2954  0.7818 -0.7502
 1623TIP3   OH226359   2.038   3.242   3.290  0.5527 -0.4195  0.0846
 1623TIP3    H126360   2.104   3.246   3.221 -0.6387 -3.3293 -1.3158
 1623TIP3    H226361   1.980   3.316   3.272 -0.5820 -1.9627 -3.0028
 1624TIP3   OH226362   4.366   4.868   1.853 -0.0177 -0.2758  0.3137
 1624TIP3    H126363   4.400   4.786   1.818  1.8962  1.1725 -1.3667
 1624TIP3    H226364   4.395   4.869   1.945  2.3012 -0.2579 -0.3932
 1625TIP3   OH226365   1.506   4.644   6.564 -0.5692 -0.1884 -0.7259
 1625TIP3    H126366   1.442   4.705   6.527 -0.2467  0.5995  0.0049
 1625TIP3    H226367   1.590   4.689   6.556 -0.0740 -1.2784 -1.8095
 1626TIP3   OH226368   3.886   5.027  13.787  0.2827  0.5239 -0.4005
 1626TIP3    H126369   3.946   5.060  13.853  0.3521  1.9453 -1.1570
 1626TIP3    H226370   3.801   5.060  13.812 -0.0094 -0.5268  0.0278
 1627TIP3   OH226371   4.067   4.396  11.239 -0.2296  0.1723  0.0133
 1627TIP3    H126372   3.975   4.386  11.262 -0.5026  0.5409 -0.8684
 1627TIP3    H226373   4.066   4.404  11.143  0.6789  0.5543  0.0347
 1628TIP3   OH226374   2.764   6.232   5.825 -0.0598  0.5997  0.4781
 1628TIP3    H126375   2.702   6.267   5.889 -0.2503  0.5861  0.3016
 1628TIP3    H226376   2.849   6.262   5.856 -0.5036  4.1053 -1.5141
 1629TIP3   OH226377   3.466   0.431   2.210  0.2341  0.2440 -1.0769
 1629TIP3    H126378   3.461   0.388   2.125 -2.8883  0.2220 -0.9282
 1629TIP3    H226379   3.437   0.364   2.272  2.7893  0.1514  0.0733
 1630TIP3   OH226380   5.176   0.254  16.401  0.1231 -0.9363  0.3823
 1630TIP3    H126381   5.127   0.306  16.465 -0.1090 -0.1247 -0.4333
 1630TIP3    H226382   5.227   0.192  16.453  0.6434  0.3272  1.3815
 1631TIP3   OH226383   0.360   3.372   1.940  0.4992  0.4174  0.1387
 1631TIP3    H126384   0.421   3.425   1.888 -0.3716  0.5348 -0.7653
 1631TIP3    H226385   0.302   3.436   1.982  0.4678  0.2547  0.3462
 1632TIP3   OH226386   1.345   6.322   2.701 -0.3674  0.8035 -0.2809
 1632TIP3    H126387   1.250   6.314   2.697 -0.4319  0.9474  0.8839
 1632TIP3    H226388   1.378   6.236   2.675 -0.8055  0.8236 -0.9148
 1633TIP3   OH226389   4.253   2.733   6.329 -0.2708 -0.2950 -0.0964
 1633TIP3    H126390   4.321   2.781   6.283 -0.3084 -0.9980 -0.9073
 1633TIP3    H226391   4.299   2.659   6.369 -0.1298  0.6454  1.5445
 1634TIP3   OH226392   5.491   3.008  12.470  0.3728 -0.1934  0.1364
 1634TIP3    H126393   5.565   3.044  12.519  0.1550 -1.2206  1.2200
 1634TIP3    H226394   5.426   2.986  12.536 -0.4500 -0.3912 -0.7164
 1635TIP3   OH226395   5.057   4.222  15.979  0.2953 -0.4193 -0.0661
 1635TIP3    H126396   5.018   4.309  15.968 -1.3239 -1.3205 -1.7457
 1635TIP3    H226397   5.135   4.237  16.033 -0.8163  1.8434  0.9909
 1636TIP3   OH226398   1.474   0.521  15.386 -0.4568  0.4363 -0.5545
 1636TIP3    H126399   1.557   0.542  15.428 -1.6921  1.6411  1.3718
 1636TIP3    H226400   1.467   0.426  15.394  0.0142  0.4930  0.7139
 1637TIP3   OH226401   4.148   6.665   3.093  0.1591  0.3840  0.4035
 1637TIP3    H126402   4.101   6.657   3.011 -0.7226  0.0836  0.9380
 1637TIP3    H226403   4.207   6.590   3.095  0.8223  0.8779 -0.3611
 1638TIP3   OH226404   5.628   3.402   0.768 -0.6116 -0.5242 -0.2889
 1638TIP3    H126405   5.719   3.428   0.780 -0.9164  0.4848 -0.1055
 1638TIP3    H226406   5.630   3.340   0.696  0.2877 -0.8896  0.0490
 1639TIP3   OH226407   0.163   3.099  13.142 -0.2320  0.0061  0.0464
 1639TIP3    H126408   0.247   3.092  13.097  0.2768 -3.0626  1.3420
 1639TIP3    H226409   0.184   3.086  13.235 -2.1020 -0.6978  0.4003
 1640TIP3   OH226410   0.176   5.051   1.064 -0.2365 -0.0487 -0.1884
 1640TIP3    H126411   0.149   5.007   0.984  0.7675 -1.2871  0.1517
 1640TIP3    H226412   0.152   4.991   1.135  0.4937  0.2471  0.3211
 1641TIP3   OH226413   0.403   3.656   1.479 -0.1320 -0.3322  0.1489
 1641TIP3    H126414   0.430   3.722   1.416  3.7892 -0.8246  1.1557
 1641TIP3    H226415   0.467   3.585   1.468 -1.8788 -2.2182  1.8051
 1642TIP3   OH226416   4.940   4.474  15.498  0.0942  0.5285  0.1712
 1642TIP3    H126417   4.930   4.558  15.454  2.0286 -0.2953 -1.9285
 1642TIP3    H226418   4.880   4.416  15.452  0.4661  0.1927  0.1113
 1643TIP3   OH226419   2.601   1.505   4.842 -0.1170 -0.0680  0.1628
 1643TIP3    H126420   2.676   1.550   4.804 -0.3944 -0.0486 -0.3561
 1643TIP3    H226421   2.625   1.492   4.934  1.3100 -1.7521 -0.4364
 1644TIP3   OH226422   3.059   6.138   3.035 -0.1429 -0.3536 -0.0632
 1644TIP3    H126423   3.044   6.092   2.952  3.2237 -1.8237  0.0562
 1644TIP3    H226424   3.049   6.070   3.102 -0.6053  0.3326  0.5691
 1645TIP3   OH226425   5.816   2.389  11.007 -0.1668 -0.2821  0.2241
 1645TIP3    H126426   5.828   2.325  11.076  1.6481 -1.9363 -1.5658
 1645TIP3    H226427   5.818   2.474  11.052 -0.4482 -1.3704  2.3448
 1646TIP3   OH226428   4.308   2.521   4.834  0.7924 -0.5601 -0.1615
 1646TIP3    H126429   4.395   2.558   4.847  0.7369 -0.3543 -0.3499
 1646TIP3    H226430   4.319   2.427   4.845  0.5686 -0.3354  2.2637
 1647TIP3   OH226431   6.568   5.389  14.719  0.1137  0.3068 -0.1718
 1647TIP3    H126432   6.553   5.301  14.754 -1.1147  0.6724  0.2498
 1647TIP3    H226433   6.654   5.414  14.755 -0.5458  0.1682  1.5662
 1648TIP3   OH226434   0.650   0.623  11.174  0.1350  0.4737 -0.3111
 1648TIP3    H126435   0.640   0.529  11.161  1.1935  0.5559 -1.7675
 1648TIP3    H226436   0.629   0.662  11.089 -0.8044  1.6012  0.4164
 1649TIP3   OH226437   5.962   6.405   4.552 -0.3762 -0.3793  1.0764
 1649TIP3    H126438   6.043   6.363   4.521 -0.3678  0.1193  0.4269
 1649TIP3    H226439   5.990   6.462   4.623 -0.1824 -0.3779  0.9994
 1650TIP3   OH226440   6.394   0.667   1.731 -0.0744 -0.1155  0.6635
 1650TIP3    H126441   6.425   0.580   1.753 -0.6138 -0.1869  1.1839
 1650TIP3    H226442   6.421   0.681   1.641 -2.1659 -1.8277 -0.2826
 1651TIP3   OH226443   3.862   4.475   6.502 -0.0612 -0.1351  0.0653
 1651TIP3    H126444   3.894   4.506   6.587 -1.6518  0.8848  0.3052
 1651TIP3    H226445   3.769   4.456   6.517 -0.3612  0.0725 -1.4633
 1652TIP3   OH226446   4.226   2.564   1.803  0.4797  0.0536 -0.6820
 1652TIP3    H126447   4.140   2.607   1.808 -0.5050 -1.6949 -1.8095
 1652TIP3    H226448   4.270   2.608   1.730 -0.1335 -0.1409 -1.1844
 1653TIP3   OH226449   5.305   0.613  12.482  0.5117  0.5995  1.1025
 1653TIP3    H126450   5.240   0.557  12.439  2.2156 -0.3803 -0.2668
 1653TIP3    H226451   5.254   0.686  12.518 -1.3643 -0.2683  0.2604
 1654TIP3   OH226452   4.462   3.840   0.537  0.3975  0.1432 -0.8376
 1654TIP3    H126453   4.426   3.917   0.582  1.0959  1.3579 -2.3421
 1654TIP3    H226454   4.406   3.768   0.566  0.4326  1.0010  1.4905
 1655TIP3   OH226455   6.315   1.029  13.951 -0.4372  0.4393 -0.0123
 1655TIP3    H126456   6.303   0.934  13.951  0.9710  0.2462 -0.3810
 1655TIP3    H226457   6.238   1.063  13.997 -0.9349 -0.8771  0.1560
 1656TIP3   OH226458   4.937   6.650   6.024  0.1831  0.6460  0.2115
 1656TIP3    H126459   4.847   6.678   6.007  0.1018 -0.3984 -1.1615
 1656TIP3    H226460   4.991   6.715   5.979  0.0585  0.2907 -0.4667
 1657TIP3   OH226461   4.043   5.661   6.267 -0.5897  0.5330  0.1404
 1657TIP3    H126462   4.050   5.663   6.363  2.1326 -0.2950  0.0054
 1657TIP3    H226463   4.089   5.739   6.238  1.4674 -0.8856 -0.5669
 1658TIP3   OH226464   1.181   4.848  17.230  0.1552  0.2518  0.1389
 1658TIP3    H126465   1.218   4.847  17.318 -0.0077 -0.5966  0.2069
 1658TIP3    H226466   1.174   4.755  17.206 -0.4175  0.4563 -0.5035
 1659TIP3   OH226467   3.212   3.712   3.116 -0.6572  0.1417 -0.1739
 1659TIP3    H126468   3.297   3.691   3.076 -0.9722  0.1171 -0.8424
 1659TIP3    H226469   3.164   3.759   3.048 -0.9996  0.5889  0.3700
 1660TIP3   OH226470   4.384   2.427  13.742  0.0856 -0.1086 -0.2515
 1660TIP3    H126471   4.380   2.479  13.823  0.7585  1.1603 -1.0117
 1660TIP3    H226472   4.463   2.373  13.753 -1.4663 -2.1342  1.2056
 1661TIP3   OH226473   2.247   0.443  11.940  0.1467 -0.0744  0.0730
 1661TIP3    H126474   2.283   0.479  12.021 -0.0724  0.9062 -0.2655
 1661TIP3    H226475   2.161   0.409  11.964  1.3715 -2.6793  0.9505
 1662TIP3   OH226476   2.046   5.179  11.383 -0.0848  0.2242 -0.5633
 1662TIP3    H126477   2.032   5.114  11.451  1.0540 -1.5730 -2.0054
 1662TIP3    H226478   2.048   5.263  11.429  0.7369 -0.9644  1.6098
 1663TIP3   OH226479   0.473   4.843  17.153  0.3888 -0.7365 -0.4405
 1663TIP3    H126480   0.487   4.756  17.118 -0.3813 -1.6700  1.5022
 1663TIP3    H226481   0.386   4.868  17.121  1.0443 -0.2166 -1.8728
 1664TIP3   OH226482   4.044   6.023   1.954  0.0100 -0.2251  0.0445
 1664TIP3    H126483   4.113   5.966   1.987 -1.5287 -2.4973 -0.5770
 1664TIP3    H226484   3.965   5.997   2.002 -0.9517  0.5984 -1.0347
 1665TIP3   OH226485   5.561   6.339  11.770 -0.1262  0.0863 -0.0152
 1665TIP3    H126486   5.504   6.272  11.808 -0.9831  1.0204  0.3322
 1665TIP3    H226487   5.558   6.322  11.676 -1.6729  0.6749 -0.0822
 1666TIP3   OH226488   6.091   5.168   1.891 -0.0759 -0.5755  0.3929
 1666TIP3    H126489   6.053   5.232   1.951 -0.9142 -0.1718 -0.5401
 1666TIP3    H226490   6.069   5.202   1.804 -0.1607 -1.9148 -0.1113
 1667TIP3   OH226491   1.951   3.351  14.653  0.1207 -0.1996  0.3536
 1667TIP3    H126492   1.987   3.268  14.685  0.3360 -0.4028 -0.4090
 1667TIP3    H226493   1.970   3.413  14.723 -0.9586 -1.0013  1.3983
 1668TIP3   OH226494   4.587   3.737  12.030  0.2283  0.4905  0.3393
 1668TIP3    H126495   4.609   3.829  12.042  0.9980  0.4037 -0.3944
 1668TIP3    H226496   4.511   3.737  11.971  1.1221  0.6061 -0.8331
 1669TIP3   OH226497   2.448   5.416  16.422  0.1974 -0.2207  0.5508
 1669TIP3    H126498   2.453   5.493  16.479  0.6967 -0.4698  0.8508
 1669TIP3    H226499   2.366   5.426  16.374 -0.1704  0.0416  1.2395
 1670TIP3   OH226500   2.184   2.871   3.013  0.5020 -0.4944  0.7077
 1670TIP3    H126501   2.231   2.787   3.008 -0.3627 -0.9053 -1.0517
 1670TIP3    H226502   2.247   2.936   2.983 -0.0860 -1.0953 -2.0328
 1671TIP3   OH226503   6.564   1.940  14.118  0.2136 -0.0683 -0.4459
 1671TIP3    H126504   6.526   1.854  14.133 -1.3754  0.6533 -0.2227
 1671TIP3    H226505   6.583   1.974  14.205  0.9111 -0.2075 -0.5366
 1672TIP3   OH226506   1.353   3.147  16.818  0.4780 -0.5601 -0.2032
 1672TIP3    H126507   1.418   3.123  16.884  0.8008 -0.0610 -0.3394
 1672TIP3    H226508   1.290   3.202  16.865 -1.2796 -3.1427  0.5603
 1673TIP3   OH226509   4.418   0.242   2.745  0.6252 -0.1916 -0.1372
 1673TIP3    H126510   4.428   0.165   2.689  0.3215  0.8324 -1.6207
 1673TIP3    H226511   4.412   0.207   2.834  0.5533 -1.8641 -0.7959
 1674TIP3   OH226512   2.937   1.536   5.293 -0.8901  0.2025  0.3016
 1674TIP3    H126513   2.914   1.626   5.269 -3.6723 -0.8793 -1.3253
 1674TIP3    H226514   2.955   1.540   5.387 -0.5614  2.5107  0.1853
 1675TIP3   OH226515   1.888   3.308   2.720 -0.1036  0.1372  0.5010
 1675TIP3    H126516   1.973   3.350   2.732  0.1695 -0.2912  0.0962
 1675TIP3    H226517   1.834   3.342   2.791  0.3805  0.4779  0.7095
 1676TIP3   OH226518   0.054   0.365   0.918 -0.0511 -0.2532  0.9480
 1676TIP3    H126519   0.062   0.286   0.971  0.3602  0.9622  2.7357
 1676TIP3    H226520  -0.026   0.407   0.949  1.3851  1.6256  2.2198
 1677TIP3   OH226521   5.613   1.608   3.637  0.3801  0.0608  0.0393
 1677TIP3    H126522   5.592   1.611   3.543  0.1008 -0.3524  0.0869
 1677TIP3    H226523   5.673   1.534   3.646  0.0543 -0.1804  0.2528
 1678TIP3   OH226524   1.414   1.828   4.780  0.1930  0.0725  0.3981
 1678TIP3    H126525   1.445   1.739   4.768  0.2171  0.1118  0.1687
 1678TIP3    H226526   1.395   1.835   4.873  0.5126 -0.0683  0.4732
 1679TIP3   OH226527   2.498   0.020   3.538 -0.4067 -0.4719  0.8349
 1679TIP3    H126528   2.420   0.058   3.497 -0.0900 -0.2323  0.4490
 1679TIP3    H226529   2.492   0.047   3.630  0.4193  1.5264  0.3249
 1680TIP3   OH226530   6.620   2.056  16.591 -0.0766 -0.3704  0.0771
 1680TIP3    H126531   6.684   2.127  16.587 -0.0386 -0.3247  1.2749
 1680TIP3    H226532   6.660   1.991  16.649  0.0623 -1.5551 -1.3278
 1681TIP3   OH226533   0.895   0.946   0.156 -0.7585 -0.1267 -0.1026
 1681TIP3    H126534   0.860   0.863   0.124 -3.4470  0.3641  1.3940
 1681TIP3    H226535   0.832   1.011   0.125  0.2265  1.1275  0.5011
 1682TIP3   OH226536   1.604   0.433  14.026  0.0524 -0.7719 -0.4341
 1682TIP3    H126537   1.630   0.525  14.024  1.1446 -1.1037 -1.7334
 1682TIP3    H226538   1.584   0.411  13.935 -1.9772 -1.3411  0.1081
 1683TIP3   OH226539   5.086   1.500  12.551  0.0141  0.1767  0.1379
 1683TIP3    H126540   5.092   1.551  12.470 -1.8073  1.9229  1.0684
 1683TIP3    H226541   5.117   1.559  12.619  0.3016 -0.8439  0.9005
 1684TIP3   OH226542   4.684   3.966  12.614  0.4539 -0.2546  0.4730
 1684TIP3    H126543   4.654   3.878  12.638  1.4989 -0.5026  0.9141
 1684TIP3    H226544   4.779   3.957  12.606  0.6065  0.9315  0.9141
 1685TIP3   OH226545   5.098   0.054  10.639 -0.1265  0.3844  0.2658
 1685TIP3    H126546   5.183   0.011  10.641  0.1855  0.9285 -1.2385
 1685TIP3    H226547   5.036  -0.016  10.617  0.3034  0.5434 -1.5377
 1686TIP3   OH226548   2.769   0.661   5.622  0.2745 -0.1431  0.0481
 1686TIP3    H126549   2.765   0.729   5.554  1.2493 -0.8442 -0.7335
 1686TIP3    H226550   2.862   0.637   5.625  0.0046 -1.1020  0.6515
 1687TIP3   OH226551   4.004   4.010   3.122 -0.1073 -0.2099  0.2200
 1687TIP3    H126552   3.983   3.937   3.181  1.3738  0.1251  1.1897
 1687TIP3    H226553   3.969   4.087   3.165  2.9689  0.3549  1.8575
 1688TIP3   OH226554   4.407   0.851   5.446  0.1947 -0.1001  0.2093
 1688TIP3    H126555   4.476   0.791   5.473  1.8479  2.0644  0.8499
 1688TIP3    H226556   4.395   0.910   5.520 -1.3014  0.4780 -0.4670
 1689TIP3   OH226557   2.828   5.195   1.263  0.4714 -0.0467  0.0819
 1689TIP3    H126558   2.871   5.136   1.325 -0.9205  2.0297  3.1469
 1689TIP3    H226559   2.758   5.142   1.224  0.7413 -1.1160  1.0194
 1690TIP3   OH226560   4.595   5.791  16.647 -0.4270  0.4808  0.1489
 1690TIP3    H126561   4.501   5.779  16.654 -0.2626 -1.2537 -0.2281
 1690TIP3    H226562   4.631   5.747  16.724  0.1323 -0.0213 -0.3890
 1691TIP3   OH226563   2.966   2.887  11.353  0.0973 -0.1663  0.3180
 1691TIP3    H126564   3.043   2.860  11.301  1.6575 -0.9775  2.9223
 1691TIP3    H226565   2.951   2.978  11.329  1.2199 -0.3192 -1.0382
 1692TIP3   OH226566   5.259   6.693  14.704  0.3364  0.0407 -0.1646
 1692TIP3    H126567   5.194   6.758  14.731  1.9795  1.4361  0.5105
 1692TIP3    H226568   5.319   6.687  14.778  1.3248 -0.7950 -1.0193
 1693TIP3   OH226569   4.140   5.121  12.961 -0.0479 -0.7508  0.3703
 1693TIP3    H126570   4.157   5.189  13.027 -0.6516  1.8240 -2.0421
 1693TIP3    H226571   4.045   5.123  12.949 -0.2299 -2.9473  1.1577
 1694TIP3   OH226572   5.038   2.638  16.372 -0.5430  0.0249  0.4850
 1694TIP3    H126573   5.102   2.572  16.344  0.7146  0.5426  2.1056
 1694TIP3    H226574   5.084   2.690  16.437 -1.4988  2.5625 -0.8067
 1695TIP3   OH226575   5.766   4.151   1.741  0.2936 -0.2639  0.0806
 1695TIP3    H126576   5.765   4.142   1.836  0.5427 -1.7643 -0.0457
 1695TIP3    H226577   5.732   4.240   1.725  1.3428  0.4382  1.6051
 1696TIP3   OH226578   6.664   0.987  10.989 -0.4040  0.0574  0.1507
 1696TIP3    H126579   6.733   1.012  10.929  0.7421 -0.6199  1.1375
 1696TIP3    H226580   6.592   0.957  10.933  0.1215  0.7157 -0.8852
 1697TIP3   OH226581   6.323   3.272   4.724  0.1388 -0.4354 -0.7342
 1697TIP3    H126582   6.241   3.315   4.700  0.6242 -0.3967 -2.3236
 1697TIP3    H226583   6.389   3.313   4.669  1.5824  0.9576  1.9495
 1698TIP3   OH226584   4.246   2.924  17.194 -0.5815  0.6393 -0.1693
 1698TIP3    H126585   4.214   2.993  17.252  0.8209  0.5682  0.7292
 1698TIP3    H226586   4.333   2.954  17.168 -0.3027 -0.4048 -0.4373
 1699TIP3   OH226587   0.214   4.423   5.623  0.7319 -0.5428 -0.0641
 1699TIP3    H126588   0.177   4.507   5.595  1.2523 -0.3763 -0.2743
 1699TIP3    H226589   0.153   4.357   5.591 -0.6001 -0.1625  1.6049
 1700TIP3   OH226590   3.261   4.040  12.451  0.1278  0.2187  0.6738
 1700TIP3    H126591   3.283   4.024  12.359  2.3489 -0.7273  1.3413
 1700TIP3    H226592   3.312   3.974  12.499  0.9503  2.3233  2.7448
 1701TIP3   OH226593   3.442   1.983  17.191 -0.1542  0.2452 -0.0860
 1701TIP3    H126594   3.496   1.908  17.166  1.4748  1.0321  0.9623
 1701TIP3    H226595   3.411   2.019  17.108  3.0008  1.2499 -0.9085
 1702TIP3   OH226596   2.973   0.860   1.407  0.7220 -0.0356  0.4513
 1702TIP3    H126597   2.972   0.773   1.446  0.9691 -0.0210  0.4871
 1702TIP3    H226598   2.880   0.882   1.398  0.6585 -0.3861  0.2492
 1703TIP3   OH226599   5.250   5.685   5.713 -0.4825 -0.4692 -0.6872
 1703TIP3    H126600   5.223   5.594   5.719 -0.4960 -0.4481 -0.4488
 1703TIP3    H226601   5.319   5.685   5.646  1.6198 -1.1391  1.3990
 1704TIP3   OH226602   5.833   1.301   2.456 -0.1595  0.3690 -0.4960
 1704TIP3    H126603   5.907   1.345   2.415  0.3326  0.6136  0.6254
 1704TIP3    H226604   5.757   1.351   2.427  0.1108  0.1691 -1.5876
 1705TIP3   OH226605   2.248   0.130  13.872  0.0406 -0.0230  0.5844
 1705TIP3    H126606   2.160   0.153  13.901 -1.3289 -3.2386 -0.6824
 1705TIP3    H226607   2.262   0.181  13.792 -0.7364  0.3645  0.6954
 1706TIP3   OH226608   0.867   4.596   3.357  0.6585 -0.2430 -0.1416
 1706TIP3    H126609   0.929   4.551   3.415 -1.4962 -2.4461  0.5439
 1706TIP3    H226610   0.799   4.629   3.416  0.8302  1.6507 -0.9505
 1707TIP3   OH226611   1.688   5.086   4.225  0.4577 -0.5630 -0.0074
 1707TIP3    H126612   1.609   5.075   4.172 -0.0115 -0.4346  0.6598
 1707TIP3    H226613   1.694   5.005   4.277 -0.6873  0.5113  1.8482
 1708TIP3   OH226614   2.786   0.489  14.454  0.4387  0.1245 -0.7299
 1708TIP3    H126615   2.758   0.400  14.471  0.7684  0.0252 -0.7016
 1708TIP3    H226616   2.817   0.521  14.539  2.6215 -0.5619 -1.2302
 1709TIP3   OH226617   3.500   0.877  14.110  0.2199 -0.3472  1.0420
 1709TIP3    H126618   3.458   0.928  14.041  0.4705 -0.0409  1.1183
 1709TIP3    H226619   3.554   0.814  14.062  3.1543  2.1365  0.9638
 1710TIP3   OH226620   0.273   3.015  13.799  0.5507 -0.0862  0.0270
 1710TIP3    H126621   0.189   3.061  13.792 -1.1255 -3.0249  0.1439
 1710TIP3    H226622   0.287   3.005  13.893  1.4117  1.0147  0.0261
 1711TIP3   OH226623   4.988   5.334  10.903 -0.3473 -0.1600 -0.8156
 1711TIP3    H126624   4.950   5.247  10.890 -1.6008  0.1204  0.9014
 1711TIP3    H226625   5.015   5.335  10.994  0.8042  0.8212 -1.1628
 1712TIP3   OH226626   2.102   1.752   1.033  0.0045  0.4370  0.1483
 1712TIP3    H126627   2.035   1.820   1.031 -1.0858 -0.5971  0.7698
 1712TIP3    H226628   2.054   1.671   1.019  1.1272 -0.3189  0.6204
 1713TIP3   OH226629   3.112   3.675   5.429 -0.6646 -0.1694  0.0535
 1713TIP3    H126630   3.146   3.632   5.350 -1.3918  1.5469 -1.2302
 1713TIP3    H226631   3.018   3.679   5.414 -0.7802  0.3353  0.9313
 1714TIP3   OH226632   3.742   3.683   0.786 -0.2980 -0.0589  0.3516
 1714TIP3    H126633   3.795   3.753   0.825  2.1814  0.1381 -3.1660
 1714TIP3    H226634   3.678   3.729   0.731 -0.5464 -0.4685  0.2935
 1715TIP3   OH226635   1.222   2.630   1.710 -0.7126 -0.0419  0.3410
 1715TIP3    H126636   1.142   2.590   1.676 -1.2263 -0.0165  1.4870
 1715TIP3    H226637   1.193   2.679   1.787 -0.0681  2.3697 -0.9047
 1716TIP3   OH226638   5.414   5.961  10.875 -0.2330  0.2722 -0.7345
 1716TIP3    H126639   5.477   5.888  10.869 -1.7094 -1.0614 -0.2947
 1716TIP3    H226640   5.420   6.005  10.791  3.4081  1.9700  0.2985
 1717TIP3   OH226641   1.322   3.722   0.243  0.0125 -0.2262  0.1166
 1717TIP3    H126642   1.246   3.777   0.225  0.0228 -0.2553 -0.0172
 1717TIP3    H226643   1.290   3.655   0.303  0.1285  0.2406  0.7026
 1718TIP3   OH226644   0.385   6.490   1.019  0.2588  0.0620  0.1963
 1718TIP3    H126645   0.393   6.397   1.041 -2.0752 -0.7878 -2.2613
 1718TIP3    H226646   0.447   6.503   0.947  2.0185  0.8929  1.8515
 1719TIP3   OH226647   6.043   6.309  12.313 -0.6105  0.0055 -0.5335
 1719TIP3    H126648   6.111   6.346  12.370  0.6621 -1.1563 -1.2682
 1719TIP3    H226649   5.978   6.273  12.373 -0.9139  1.7031  0.1821
 1720TIP3   OH226650   6.245   2.117  12.898 -0.5241  0.2918  0.1404
 1720TIP3    H126651   6.300   2.127  12.975  0.5312  1.4302 -0.7393
 1720TIP3    H226652   6.297   2.062  12.839 -1.1328 -0.1991  0.0585
 1721TIP3   OH226653   6.615   5.645   4.575 -0.1275  0.8445 -0.5689
 1721TIP3    H126654   6.649   5.713   4.633 -0.8090  2.3266 -1.8719
 1721TIP3    H226655   6.524   5.670   4.559 -0.9597 -1.4077  0.4293
 1722TIP3   OH226656   4.336   4.520  15.914  0.5000 -0.3043  0.1303
 1722TIP3    H126657   4.341   4.429  15.885 -0.4323 -0.0860 -0.7553
 1722TIP3    H226658   4.427   4.548  15.924  0.7900 -1.5127  0.9988
 1723TIP3   OH226659   2.843   6.197   5.005 -0.2139  0.4720 -0.1868
 1723TIP3    H126660   2.898   6.136   5.054 -0.1420 -0.2634 -1.1562
 1723TIP3    H226661   2.753   6.171   5.025 -0.1943  0.6499  0.1371
 1724TIP3   OH226662   2.699   3.986  16.196 -0.3443  0.0695  0.2549
 1724TIP3    H126663   2.742   4.070  16.179  0.6524 -0.3135  0.8153
 1724TIP3    H226664   2.760   3.921  16.162  0.3653 -0.5709  2.6695
 1725TIP3   OH226665   3.360   1.827  10.452 -0.4730  0.6111 -0.0389
 1725TIP3    H126666   3.428   1.890  10.429 -0.3099  0.7523  0.7937
 1725TIP3    H226667   3.348   1.774  10.373  0.2454  0.9065 -0.3517
 1726TIP3   OH226668   1.852   3.525   5.444  0.1152 -0.2331 -0.6167
 1726TIP3    H126669   1.923   3.464   5.427  0.0558 -0.0950 -1.3466
 1726TIP3    H226670   1.885   3.610   5.415 -0.0768 -0.0362 -0.2780
 1727TIP3   OH226671   2.318   0.689  10.931 -0.4473  0.2265 -0.2508
 1727TIP3    H126672   2.301   0.603  10.971 -0.5911  0.0501 -0.6878
 1727TIP3    H226673   2.232   0.718  10.899 -0.5820  0.9816  0.7732
 1728TIP3   OH226674   1.069   2.723   4.729  0.0523 -0.0412  0.1739
 1728TIP3    H126675   1.139   2.683   4.780  1.9690  1.9990 -0.7521
 1728TIP3    H226676   1.020   2.649   4.693  0.4706 -1.4963  2.5101
 1729TIP3   OH226677   2.692   3.252  14.824 -0.1013  0.2053 -0.0785
 1729TIP3    H126678   2.628   3.181  14.827  1.3240 -1.1291 -0.7525
 1729TIP3    H226679   2.639   3.331  14.814 -1.5796 -0.9876 -1.8918
 1730TIP3   OH226680   6.170   3.382  12.753  0.3511  0.0150  0.0488
 1730TIP3    H126681   6.113   3.389  12.829 -0.0444 -0.6587 -0.1784
 1730TIP3    H226682   6.259   3.388  12.788  0.1473  2.1315  0.2960
 1731TIP3   OH226683   2.858   2.713  12.659 -0.3602  0.4431  0.7651
 1731TIP3    H126684   2.847   2.751  12.747 -1.7318  0.7293  0.4838
 1731TIP3    H226685   2.889   2.786  12.606 -1.3337  0.7619  0.6113
 1732TIP3   OH226686   6.178   1.018  11.583  0.1561  0.0426 -0.2307
 1732TIP3    H126687   6.240   1.051  11.518  0.4977 -0.2640 -0.0656
 1732TIP3    H226688   6.102   0.990  11.532 -0.1318  1.0789 -0.3680
 1733TIP3   OH226689   5.710   0.673   5.608 -0.2460  0.5874 -0.5132
 1733TIP3    H126690   5.746   0.596   5.566 -0.5566  0.1876 -0.0524
 1733TIP3    H226691   5.739   0.667   5.699 -2.1561 -0.1865  0.0676
 1734TIP3   OH226692   0.666   5.958  14.045 -0.0428  0.0380 -0.0500
 1734TIP3    H126693   0.665   5.873  14.001 -1.0052  0.2889 -0.5319
 1734TIP3    H226694   0.751   5.996  14.021 -0.0005 -0.3880 -0.6096
 1735TIP3   OH226695   0.926   2.161  17.048  0.4375  0.1089  0.4915
 1735TIP3    H126696   0.935   2.256  17.045 -1.0952  0.2514  0.0544
 1735TIP3    H226697   1.003   2.132  17.096  0.2601  1.6889  1.7959
 1736TIP3   OH226698   6.327   2.538   1.035  0.0166 -0.3096 -0.0123
 1736TIP3    H126699   6.302   2.597   0.965 -0.1161 -0.0827  0.2257
 1736TIP3    H226700   6.421   2.525   1.024 -0.2775 -1.6199 -1.2694
 1737TIP3   OH226701   0.087   5.794   6.714 -0.0166  0.0516  0.4484
 1737TIP3    H126702   0.056   5.731   6.779  0.9533  0.0663  0.9424
 1737TIP3    H226703   0.027   5.868   6.722 -1.3331 -0.9357 -0.3477
 1738TIP3   OH226704   5.189   4.925   0.099 -0.3241 -0.4363 -1.2066
 1738TIP3    H126705   5.244   4.847   0.097 -1.4286 -1.3049  0.9562
 1738TIP3    H226706   5.238   4.989   0.152 -0.3811 -0.4051 -1.1905
 1739TIP3   OH226707   3.540   5.920   5.141 -0.0555  0.2856 -0.4693
 1739TIP3    H126708   3.581   5.998   5.179 -0.2403 -0.1620  0.6919
 1739TIP3    H226709   3.498   5.877   5.216 -1.2388 -0.1338 -1.3630
 1740TIP3   OH226710   3.953   2.813  14.752 -0.1303 -0.1569 -0.3435
 1740TIP3    H126711   3.968   2.841  14.662  0.8268 -0.6859 -0.3583
 1740TIP3    H226712   4.024   2.751  14.769 -2.5652 -3.1048 -0.5453
 1741TIP3   OH226713   5.819   6.138   5.142  0.5324  0.0075 -0.3578
 1741TIP3    H126714   5.883   6.159   5.074 -0.9261  0.8432 -1.4933
 1741TIP3    H226715   5.766   6.217   5.151  0.4047 -0.2532  1.4367
 1742TIP3   OH226716   0.104   4.408  17.118 -0.1159  0.0497  0.2721
 1742TIP3    H126717   0.097   4.479  17.054  0.6613  0.1810  0.3371
 1742TIP3    H226718   0.042   4.433  17.187 -1.4461 -0.4236 -0.7172
 1743TIP3   OH226719   6.520   0.738   5.590  0.0287 -0.4004  0.2329
 1743TIP3    H126720   6.472   0.792   5.653 -0.4408 -0.0694 -0.4055
 1743TIP3    H226721   6.502   0.648   5.617 -0.6829 -0.2709  0.1946
 1744TIP3   OH226722   4.664   1.583   3.376  0.5623  0.1253  0.5525
 1744TIP3    H126723   4.746   1.632   3.382  1.2180 -0.8219 -0.4816
 1744TIP3    H226724   4.624   1.613   3.295  0.3939 -0.1844  0.5205
 1745TIP3   OH226725   5.661   1.357   5.100 -0.1907  0.1765 -0.0043
 1745TIP3    H126726   5.619   1.413   5.034  0.1754  0.3491 -0.0927
 1745TIP3    H226727   5.675   1.415   5.174  1.6027  0.6041 -0.6606
 1746TIP3   OH226728   6.764   0.519   3.113 -0.3420  0.0455  0.3377
 1746TIP3    H126729   6.843   0.501   3.165  0.7707 -0.6185 -1.5378
 1746TIP3    H226730   6.765   0.614   3.101  0.0283  0.0681  0.5489
 1747TIP3   OH226731   0.214   0.715   4.322  0.2874 -0.6215  0.5829
 1747TIP3    H126732   0.121   0.725   4.341 -0.1856  0.5593 -2.1422
 1747TIP3    H226733   0.221   0.630   4.279 -0.0426  0.5494 -1.8951
 1748TIP3   OH226734   0.688   4.240  11.988 -0.0311 -0.0551  0.3312
 1748TIP3    H126735   0.638   4.260  11.909  0.7357  1.8140  0.2931
 1748TIP3    H226736   0.670   4.148  12.005 -1.1815 -0.1574 -1.3198
 1749TIP3   OH226737   3.854   4.125  12.199 -0.2031 -0.0852 -0.7941
 1749TIP3    H126738   3.936   4.134  12.151  0.8542 -1.3582  0.6982
 1749TIP3    H226739   3.878   4.079  12.280 -2.1892  0.5475  0.2123
 1750TIP3   OH226740   3.696   2.800   5.978 -0.2725 -0.1057  0.3483
 1750TIP3    H126741   3.631   2.866   6.003  0.8105  0.1905  2.4881
 1750TIP3    H226742   3.778   2.849   5.973  0.2952 -1.0267  0.5837
 1751TIP3   OH226743   2.142   0.254   1.515 -0.1242  0.1115  0.0269
 1751TIP3    H126744   2.096   0.197   1.577 -2.0907  1.6518  0.0480
 1751TIP3    H226745   2.126   0.215   1.429 -0.9031  0.2429  0.1065
 1752TIP3   OH226746   3.062   0.423  16.801 -0.2049  0.3336  0.2811
 1752TIP3    H126747   3.116   0.499  16.820 -1.5194  0.4555  4.1243
 1752TIP3    H226748   3.114   0.348  16.830 -0.8559  0.2210  1.2078
 1753TIP3   OH226749   2.142   5.238  14.581  0.2384 -0.0793  0.2554
 1753TIP3    H126750   2.183   5.214  14.497 -1.2972 -4.5912  0.6256
 1753TIP3    H226751   2.216   5.258  14.638  1.7107 -2.6897 -0.6227
 1754TIP3   OH226752   0.742   2.966  14.811  0.0780 -0.0490 -0.3174
 1754TIP3    H126753   0.747   2.969  14.715  0.0344  1.7202 -0.2827
 1754TIP3    H226754   0.658   3.007  14.832 -1.3162 -3.1362  0.3746
 1755TIP3   OH226755   4.227   0.813  10.842  1.0198  0.0229 -0.3646
 1755TIP3    H126756   4.190   0.899  10.821 -1.2611 -1.0818 -1.0302
 1755TIP3    H226757   4.266   0.824  10.929  0.1683  1.5628 -0.1638
 1756TIP3   OH226758   1.115   2.897  12.467 -0.2361 -0.0810  0.7298
 1756TIP3    H126759   1.125   2.929  12.557 -0.8109  0.4873  0.5865
 1756TIP3    H226760   1.044   2.949  12.430  0.4008  0.1013 -0.2527
 1757TIP3   OH226761   5.129   3.244   4.570  0.8259  0.5314  0.4130
 1757TIP3    H126762   5.068   3.265   4.499 -0.0352  0.0297  0.9953
 1757TIP3    H226763   5.215   3.269   4.536  0.9171 -3.0331 -2.2466
 1758TIP3   OH226764   3.823   0.316   4.249 -0.0040  0.3292 -0.0746
 1758TIP3    H126765   3.763   0.340   4.178  0.7305 -1.4410 -1.3379
 1758TIP3    H226766   3.906   0.298   4.204 -0.1359 -3.1354  0.9335
 1759TIP3   OH226767   1.419   5.652  15.972 -0.5805  0.0710  0.4765
 1759TIP3    H126768   1.348   5.630  15.911 -0.4025  1.3696 -0.2226
 1759TIP3    H226769   1.383   5.721  16.027  0.3877  1.2827 -0.3897
 1760TIP3   OH226770   2.484   0.051   2.999 -0.2905 -0.2482 -0.1499
 1760TIP3    H126771   2.444   0.092   3.076  0.6144 -1.1861  0.8442
 1760TIP3    H226772   2.423   0.069   2.928 -0.6845  1.4353  0.5907
 1761TIP3   OH226773   0.266   0.175   2.988  0.4258 -0.3068  0.1219
 1761TIP3    H126774   0.297   0.209   3.072  0.7970 -2.0956  0.7170
 1761TIP3    H226775   0.332   0.203   2.925  0.0145  1.2703  0.3514
 1762TIP3   OH226776   3.733   3.506   6.113 -0.1003  0.2229 -0.0227
 1762TIP3    H126777   3.691   3.591   6.109  1.6409  1.1264  0.2002
 1762TIP3    H226778   3.661   3.443   6.114 -1.4116  1.6990  0.1712
 1763TIP3   OH226779   1.816   6.510  12.402 -0.4016 -0.2250  0.0793
 1763TIP3    H126780   1.776   6.443  12.346 -3.9829  0.0211  2.1743
 1763TIP3    H226781   1.907   6.481  12.412 -0.9528 -2.8977 -1.8428
 1764TIP3   OH226782   5.604   4.437  15.343  0.3208 -0.1218  0.1150
 1764TIP3    H126783   5.606   4.418  15.436  0.2577  1.9687  0.5536
 1764TIP3    H226784   5.564   4.523  15.336  2.0722  0.6017 -1.6912
 1765TIP3   OH226785   5.141   4.865  16.910 -0.3345 -0.3104  0.0398
 1765TIP3    H126786   5.068   4.815  16.946 -0.4861  0.4115  0.7463
 1765TIP3    H226787   5.190   4.894  16.987 -1.1791  2.0423 -0.2898
 1766TIP3   OH226788   5.994   4.436   5.356 -0.3638  0.3866  0.2004
 1766TIP3    H126789   5.984   4.505   5.421  1.6096  0.8800  0.0012
 1766TIP3    H226790   5.961   4.474   5.275 -0.5103  0.6303  0.3754
 1767TIP3   OH226791   3.976   0.883  14.634  0.5385 -0.0288 -0.4218
 1767TIP3    H126792   3.929   0.928  14.564  0.3229 -0.0508 -0.2924
 1767TIP3    H226793   4.066   0.916  14.628  0.5196 -0.0295 -0.7067
 1768TIP3   OH226794   3.796   1.241  16.865 -0.5268 -0.4975  0.5911
 1768TIP3    H126795   3.852   1.233  16.943 -0.2752  0.6133  0.5329
 1768TIP3    H226796   3.708   1.225  16.897 -0.4308  0.0156  1.1229
 1769TIP3   OH226797   5.678   3.796  16.644 -0.2642  0.5115 -0.8571
 1769TIP3    H126798   5.602   3.745  16.671  0.8141  0.5600  2.3932
 1769TIP3    H226799   5.746   3.775  16.707  2.3800  0.7243 -3.4985
 1770TIP3   OH226800   2.509   3.783   5.098 -0.2398  0.6373 -0.5026
 1770TIP3    H126801   2.589   3.754   5.054  0.3023  0.4986  0.5454
 1770TIP3    H226802   2.540   3.835   5.173 -1.1648  2.0365 -1.0708
 1771TIP3   OH226803   3.822   2.111  16.845  0.6048  0.4139 -0.1599
 1771TIP3    H126804   3.859   2.134  16.931 -1.3857 -1.8029  1.3447
 1771TIP3    H226805   3.898   2.095  16.790  1.9263  0.3750  1.6189
 1772TIP3   OH226806   3.583   2.965   4.206 -0.2295 -0.7748 -0.0225
 1772TIP3    H126807   3.626   2.949   4.290  0.5703  2.7729  0.3158
 1772TIP3    H226808   3.499   3.005   4.229 -0.4122 -0.6367 -0.8959
 1773TIP3   OH226809   6.089   5.840  13.618  0.7445 -0.0748  0.0205
 1773TIP3    H126810   5.996   5.831  13.635  0.7558 -0.0996  0.0671
 1773TIP3    H226811   6.109   5.771  13.555  1.3099 -1.8330  2.1101
 1774TIP3   OH226812   1.012   2.881   3.595  0.3304 -0.1107 -0.2108
 1774TIP3    H126813   0.962   2.955   3.630  0.9951  0.2409 -0.0137
 1774TIP3    H226814   1.099   2.916   3.577  0.4765 -0.6956 -0.6756
 1775TIP3   OH226815   2.976   5.418  16.703  0.1335 -0.0335  0.6038
 1775TIP3    H126816   2.910   5.457  16.646  0.3768  0.9740  0.9942
 1775TIP3    H226817   2.940   5.428  16.791 -0.0852 -1.2684  0.6691
 1776TIP3   OH226818   1.675   0.047   1.140 -0.1547 -0.0912  0.2318
 1776TIP3    H126819   1.683   0.116   1.206 -2.5348  0.3432  0.1025
 1776TIP3    H226820   1.640   0.091   1.063 -0.8025 -1.2572 -0.1610
 1777TIP3   OH226821   6.091   5.339  13.006 -0.0569  0.1529  0.1865
 1777TIP3    H126822   6.180   5.333  13.041 -0.0734 -0.3934  0.1371
 1777TIP3    H226823   6.037   5.352  13.084 -0.0274 -0.4361  0.3115
 1778TIP3   OH226824   2.520   2.807  13.063  0.1128  0.2968  0.1113
 1778TIP3    H126825   2.611   2.778  13.075 -0.1660 -0.0845  1.3691
 1778TIP3    H226826   2.527   2.900  13.043  0.9130 -0.2029 -2.1106
 1779TIP3   OH226827   3.021   0.193   4.605 -0.1276  0.3449  0.5550
 1779TIP3    H126828   2.988   0.121   4.658  0.0159  1.3774  2.0896
 1779TIP3    H226829   3.071   0.247   4.666  0.6340  1.1925 -0.7878
 1780TIP3   OH226830   5.730   2.075   6.359  0.0669 -0.4031  0.1232
 1780TIP3    H126831   5.656   2.027   6.395 -0.2270 -0.4276 -0.5134
 1780TIP3    H226832   5.807   2.025   6.387 -0.2122 -0.9673 -0.1140
 1781TIP3   OH226833   2.232   1.269   3.595 -0.3008 -0.2708 -0.4321
 1781TIP3    H126834   2.271   1.274   3.508 -1.0066  0.6845 -0.7066
 1781TIP3    H226835   2.166   1.338   3.596  1.4616  1.5050  1.7448
 1782TIP3   OH226836   0.391   5.524  15.435  0.0794 -0.2002  0.2279
 1782TIP3    H126837   0.441   5.562  15.364  0.0914 -1.6293 -0.5483
 1782TIP3    H226838   0.457   5.496  15.499  0.0266  1.8539  1.2182
 1783TIP3   OH226839   4.688   6.399  12.004 -0.0237 -0.4351  0.2696
 1783TIP3    H126840   4.647   6.322  12.044 -1.4893 -0.6172 -1.4866
 1783TIP3    H226841   4.778   6.372  11.985  0.0369 -1.0532  1.4436
 1784TIP3   OH226842   6.776   2.329  16.990 -0.7391 -0.2388 -0.1658
 1784TIP3    H126843   6.835   2.258  17.016 -0.0891  0.3234 -0.0864
 1784TIP3    H226844   6.700   2.285  16.953  0.1207 -0.9628 -1.1100
 1785TIP3   OH226845   6.378   0.381  14.707 -0.2234 -0.3082  0.4762
 1785TIP3    H126846   6.412   0.451  14.762  0.4203  0.9259 -1.4405
 1785TIP3    H226847   6.426   0.303  14.735 -0.1582  0.2177  1.8659
 1786TIP3   OH226848   6.076   0.696  14.424 -0.0809 -0.1448 -0.1708
 1786TIP3    H126849   6.083   0.601  14.424 -2.3105 -0.3584  1.2013
 1786TIP3    H226850   6.121   0.723  14.505  0.2546 -0.0517 -0.3871
 1787TIP3   OH226851   5.170   5.739   3.440  0.0044  0.3777 -0.7305
 1787TIP3    H126852   5.211   5.664   3.398  1.5766  0.1848  1.0681
 1787TIP3    H226853   5.198   5.815   3.389  2.8739  0.2786  0.6201
 1788TIP3   OH226854   0.009   1.391  16.295 -0.0789  0.2863  0.1290
 1788TIP3    H126855   0.009   1.483  16.269  0.4755  0.1805 -0.2616
 1788TIP3    H226856   0.078   1.386  16.362  1.7684 -0.3633 -1.7772
 1789TIP3   OH226857   0.410   4.058   1.000 -0.5804  0.1377  0.2926
 1789TIP3    H126858   0.431   4.116   0.927 -1.6449  2.0284  1.4483
 1789TIP3    H226859   0.493   4.019   1.025 -0.0409  0.2783 -1.2417
 1790TIP3   OH226860   2.884   4.617   6.110 -0.2794 -0.0284 -0.1102
 1790TIP3    H126861   2.837   4.545   6.067  0.4055  1.1054 -2.8779
 1790TIP3    H226862   2.976   4.589   6.109 -0.0994  0.5725 -0.5860
 1791TIP3   OH226863   5.277   1.420   3.782  0.1487 -0.1298  0.1892
 1791TIP3    H126864   5.309   1.510   3.789  0.6636 -0.1655 -1.4048
 1791TIP3    H226865   5.338   1.378   3.721 -0.6718 -1.2780  0.1432
 1792TIP3   OH226866   3.087   5.245   2.528  0.2028 -0.0164  0.4376
 1792TIP3    H126867   3.038   5.185   2.585  0.2371 -1.4331 -0.9744
 1792TIP3    H226868   3.133   5.187   2.467 -1.4433  1.4864 -2.3249
 1793TIP3   OH226869   1.506   1.258   3.895 -0.0030  0.2546 -0.1499
 1793TIP3    H126870   1.512   1.237   3.802 -0.6318 -0.7733  0.0378
 1793TIP3    H226871   1.596   1.263   3.925  0.1644 -1.1593 -0.4210
 1794TIP3   OH226872   4.844   6.131   1.478 -0.0769 -0.2567  0.1878
 1794TIP3    H126873   4.900   6.208   1.486 -1.0139  0.3478  1.1496
 1794TIP3    H226874   4.899   6.065   1.435  1.2722  0.4046  0.8647
 1795TIP3   OH226875   3.786   6.666   3.462  0.2855 -0.1063 -1.1441
 1795TIP3    H126876   3.865   6.645   3.413  1.4192 -0.1141  0.6298
 1795TIP3    H226877   3.771   6.589   3.517 -1.3110 -0.3562 -1.9113
 1796TIP3   OH226878   2.589   1.235   6.425 -0.0058 -0.2812 -0.1087
 1796TIP3    H126879   2.668   1.247   6.373  0.3042 -1.0124  0.1865
 1796TIP3    H226880   2.586   1.311   6.484 -0.4844  0.6778 -1.3389
 1797TIP3   OH226881   2.344   5.883  14.547  0.1641  0.1495 -0.1822
 1797TIP3    H126882   2.281   5.895  14.619 -0.5105 -0.5176 -0.6621
 1797TIP3    H226883   2.293   5.842  14.477  1.4774 -1.7862 -0.0309
 1798TIP3   OH226884   2.601   1.026  14.831  0.0079 -0.2299 -0.1991
 1798TIP3    H126885   2.522   1.045  14.882 -0.0274  1.5787 -0.8801
 1798TIP3    H226886   2.670   1.016  14.896 -0.3106  0.6631  0.2823
 1799TIP3   OH226887   3.488   4.665  13.298 -0.9331  0.1448 -0.1198
 1799TIP3    H126888   3.456   4.639  13.211 -1.0975  1.1053 -0.3514
 1799TIP3    H226889   3.409   4.665  13.352 -1.2063  1.6600 -0.4883
 1800TIP3   OH226890   3.682   4.228   0.171 -0.4340 -0.1851 -0.2647
 1800TIP3    H126891   3.739   4.163   0.213  0.7616 -0.2945 -1.9831
 1800TIP3    H226892   3.673   4.298   0.235 -2.4047 -2.3831  1.9510
 1801TIP3   OH226893   0.949   3.497   6.313 -0.3917  0.1347  0.4301
 1801TIP3    H126894   0.863   3.463   6.290 -0.7178 -0.2953  2.2336
 1801TIP3    H226895   0.950   3.500   6.409  1.2120  1.1313  0.4137
 1802TIP3   OH226896   1.826   6.481   2.841  0.3226  0.4696 -0.3386
 1802TIP3    H126897   1.891   6.420   2.874 -2.2541 -0.7829  2.6596
 1802TIP3    H226898   1.832   6.557   2.899 -1.9890 -0.3828  1.1081
 1803TIP3   OH226899   6.791   1.439  15.152 -0.5257  0.0555  0.3540
 1803TIP3    H126900   6.746   1.418  15.234 -0.3328  1.4225  0.8352
 1803TIP3    H226901   6.780   1.534  15.142 -0.1655 -0.0249 -0.9726
 1804TIP3   OH226902   2.239   1.260  13.013  0.1407 -0.5461 -0.5698
 1804TIP3    H126903   2.297   1.188  13.035 -0.2921  0.0952  3.1147
 1804TIP3    H226904   2.272   1.334  13.065 -1.7736  0.7833 -1.1751
 1805TIP3   OH226905   4.221   2.256   0.220 -0.4554  0.3092 -0.2241
 1805TIP3    H126906   4.205   2.183   0.279  1.5586 -1.7427 -2.0970
 1805TIP3    H226907   4.264   2.322   0.274  0.5038 -1.1343  0.8090
 1806TIP3   OH226908   0.699   2.209  15.150 -0.0079 -0.2935 -0.2373
 1806TIP3    H126909   0.671   2.213  15.059 -1.6615  0.8797  0.2999
 1806TIP3    H226910   0.721   2.299  15.173 -1.3995 -0.2442  1.0441
 1807TIP3   OH226911   5.564   1.645  12.632  0.2944  0.0910 -0.7123
 1807TIP3    H126912   5.614   1.711  12.585 -1.2447  1.6856 -0.1716
 1807TIP3    H226913   5.555   1.680  12.721  0.5033 -1.4228 -0.0789
 1808TIP3   OH226914   5.161   0.505  15.477  0.2045 -0.1722  0.0685
 1808TIP3    H126915   5.253   0.490  15.453  0.3558  0.7806 -0.0051
 1808TIP3    H226916   5.154   0.473  15.567  0.4426 -0.8609 -0.1600
 1809TIP3   OH226917   3.687   4.507  15.556  0.1073 -0.3865  0.7327
 1809TIP3    H126918   3.668   4.430  15.501  0.9315 -1.4334  1.8939
 1809TIP3    H226919   3.608   4.560  15.549 -0.4568 -1.2993 -0.1455
 1810TIP3   OH226920   5.510   6.420  16.795  0.2040  0.0969 -0.0942
 1810TIP3    H126921   5.555   6.504  16.802 -1.8586  1.1709  0.8155
 1810TIP3    H226922   5.554   6.364  16.858  0.6864  0.9371  0.3247
 1811TIP3   OH226923   1.442   3.096   5.714 -0.1722  0.2437  0.3877
 1811TIP3    H126924   1.465   3.126   5.626 -2.0948  2.4086  0.5764
 1811TIP3    H226925   1.522   3.110   5.766  1.0398 -1.2572 -1.0294
 1812TIP3   OH226926   2.239   3.979  11.497  0.1664  0.2733 -0.0707
 1812TIP3    H126927   2.153   3.943  11.521 -0.4045  1.6629 -0.0138
 1812TIP3    H226928   2.298   3.946  11.564 -0.2684 -0.8749 -0.2284
 1813TIP3   OH226929   3.842   6.114   0.230 -0.2412 -0.0245 -0.3447
 1813TIP3    H126930   3.869   6.136   0.319  0.7416  0.5633 -0.7744
 1813TIP3    H226931   3.911   6.056   0.198 -0.3997  0.0618 -0.8476
 1814TIP3   OH226932   6.787   2.095   2.008  0.2270  0.5558  0.2946
 1814TIP3    H126933   6.772   2.027   1.943 -1.0613  2.1983 -1.1910
 1814TIP3    H226934   6.826   2.050   2.083  0.3428 -1.6091 -1.0539
 1815TIP3   OH226935   5.161   2.815  16.544 -0.0541  0.0266  0.2621
 1815TIP3    H126936   5.098   2.839  16.613 -1.2013  0.5180 -0.9402
 1815TIP3    H226937   5.244   2.809  16.590 -0.8707 -0.0619  1.7883
 1816TIP3   OH226938   1.354   0.480   3.259  0.0292  0.3251  0.4644
 1816TIP3    H126939   1.327   0.462   3.169  0.1532  3.0373 -0.1719
 1816TIP3    H226940   1.286   0.441   3.314 -0.5177 -0.5646 -0.8400
 1817TIP3   OH226941   4.278   6.166   0.615 -0.8000  0.1414  0.2499
 1817TIP3    H126942   4.230   6.229   0.561 -0.1790  1.3927  1.1359
 1817TIP3    H226943   4.254   6.081   0.580 -1.4524  0.8867 -1.1361
 1818TIP3   OH226944   1.109   0.115  15.540  0.3778  1.3971 -0.3015
 1818TIP3    H126945   1.200   0.139  15.525  1.3813 -0.1479  2.9351
 1818TIP3    H226946   1.084   0.164  15.619 -1.7676  2.1777 -1.4211
 1819TIP3   OH226947   6.695   0.405  11.553 -0.0786  0.3367 -0.9834
 1819TIP3    H126948   6.613   0.356  11.554  0.4223 -0.5024  0.2207
 1819TIP3    H226949   6.761   0.342  11.583  0.2785  2.3167  2.5982
 1820TIP3   OH226950   5.361   0.249  10.957  0.3096 -0.2284 -0.0061
 1820TIP3    H126951   5.306   0.207  11.024 -0.2310 -1.2591 -1.0722
 1820TIP3    H226952   5.443   0.199  10.959  0.5343  0.1546  0.3365
 1821TIP3   OH226953   5.909   1.503  13.073  0.0135  0.0626  0.0260
 1821TIP3    H126954   5.936   1.476  12.985  1.0154  0.3159  0.2513
 1821TIP3    H226955   5.980   1.560  13.103 -0.7575  0.7035  0.6432
 1822TIP3   OH226956   0.243   3.448   4.291  0.0864 -0.3618  0.1264
 1822TIP3    H126957   0.231   3.360   4.257  0.9850 -0.2125 -0.5630
 1822TIP3    H226958   0.298   3.437   4.369  0.9353 -0.3144 -0.4630
 1823TIP3   OH226959   4.054   1.518  16.618 -0.9272  0.9388 -0.3380
 1823TIP3    H126960   4.111   1.538  16.544  0.4221  0.6186  0.5835
 1823TIP3    H226961   3.973   1.565  16.599 -0.2121  1.7486 -1.4908
 1824TIP3   OH226962   4.803   3.774   2.839 -0.4853  0.4251 -0.4422
 1824TIP3    H126963   4.839   3.832   2.907  1.3271  1.4376 -2.2369
 1824TIP3    H226964   4.794   3.690   2.883  0.2788  1.1551  1.1863
 1825TIP3   OH226965   0.713   1.848  15.930 -0.2094 -0.0951 -0.4536
 1825TIP3    H126966   0.675   1.935  15.945  0.0529 -0.1487  0.5623
 1825TIP3    H226967   0.683   1.823  15.843 -0.6657  0.8195 -0.5626
 1826TIP3   OH226968   5.361   0.471   4.297 -0.2852  0.3191  0.1481
 1826TIP3    H126969   5.453   0.449   4.313 -0.0836  0.6849 -0.4933
 1826TIP3    H226970   5.336   0.525   4.372 -0.3079 -0.6981  0.8947
 1827TIP3   OH226971   4.146   1.896  17.085  0.3202 -0.0474  0.3794
 1827TIP3    H126972   4.118   1.979  17.123  0.8114 -0.5175  1.7926
 1827TIP3    H226973   4.073   1.869  17.030 -0.2697  0.7912  0.7340
 1828TIP3   OH226974   6.207   6.164  10.428  0.0279 -0.4008  0.4142
 1828TIP3    H126975   6.160   6.244  10.453 -0.7123 -0.7292  0.0920
 1828TIP3    H226976   6.138   6.098  10.419  0.4201 -0.6043 -1.1869
 1829TIP3   OH226977   0.973   4.167  10.723 -0.4934 -0.4946 -0.7610
 1829TIP3    H126978   1.054   4.157  10.673  0.7833 -1.5801  1.4644
 1829TIP3    H226979   0.977   4.257  10.756  0.5111 -1.0052  0.5289
 1830TIP3   OH226980   4.327   5.740  16.651  0.1327 -0.3790  0.2506
 1830TIP3    H126981   4.349   5.784  16.733 -1.3840  0.4821  0.2179
 1830TIP3    H226982   4.285   5.658  16.678  1.2993 -0.9776  0.3090
 1831TIP3   OH226983   1.913   5.542   5.094  0.0722 -0.0496  0.3247
 1831TIP3    H126984   1.907   5.627   5.049  0.2566  0.2453  0.8453
 1831TIP3    H226985   1.953   5.484   5.029 -0.8109  0.0461 -0.3190
 1832TIP3   OH226986   5.214   2.424  14.089  0.0795 -0.2762 -0.3268
 1832TIP3    H126987   5.135   2.371  14.077 -0.1196  0.1112 -0.7195
 1832TIP3    H226988   5.195   2.478  14.165 -0.2086  0.1472 -0.7041
 1833TIP3   OH226989   0.610   2.441   0.155 -0.2296  0.6504 -0.4733
 1833TIP3    H126990   0.641   2.459   0.067  0.3520 -0.0078 -0.4059
 1833TIP3    H226991   0.628   2.348   0.169  0.7348  1.0010  0.7457
 1834TIP3   OH226992   4.630   5.624   3.637  0.2062  0.4999 -0.5741
 1834TIP3    H126993   4.591   5.579   3.712 -1.3711 -0.6230 -2.0291
 1834TIP3    H226994   4.689   5.689   3.675  1.6328 -1.9932  1.6138
 1835TIP3   OH226995   4.965   0.646   4.957  0.3993  0.5287  0.2030
 1835TIP3    H126996   4.955   0.571   5.015 -3.7635 -0.7209 -1.9170
 1835TIP3    H226997   5.027   0.618   4.891 -0.0407 -0.5565  0.2397
 1836TIP3   OH226998   2.113   6.270  17.202 -0.2117  0.6089  0.3995
 1836TIP3    H126999   2.110   6.241  17.111 -0.7899 -0.4480  0.7475
 1836TIP3    H227000   2.201   6.248  17.232 -0.7563 -1.1282  0.7635
 1837TIP3   OH227001   0.077   4.043  11.280 -0.3528  0.1461  0.2531
 1837TIP3    H127002   0.171   4.056  11.292 -0.4164  1.2163 -0.3380
 1837TIP3    H227003   0.065   3.948  11.288  0.5280  0.1645  1.9927
 1838TIP3   OH227004   2.413   0.716   0.333 -0.1572 -0.1927  0.6717
 1838TIP3    H127005   2.475   0.684   0.267  1.8512 -0.8525  2.8591
 1838TIP3    H227006   2.329   0.717   0.286  0.5706 -4.0311 -0.9236
 1839TIP3   OH227007   4.676   2.704   5.245  0.1955 -0.3212  0.2930
 1839TIP3    H127008   4.689   2.649   5.323  1.1918 -1.0319 -0.3727
 1839TIP3    H227009   4.722   2.658   5.175 -3.0478 -1.2013 -1.3993
 1840TIP3   OH227010   0.149   4.992  10.855 -0.1468  0.0720 -0.2157
 1840TIP3    H127011   0.126   5.018  10.766  0.7352 -0.3590 -0.5664
 1840TIP3    H227012   0.176   5.074  10.897  0.7060  0.0623 -0.7353
 1841TIP3   OH227013   5.984   1.947  16.941  0.0589  0.0834 -0.3291
 1841TIP3    H127014   6.030   2.021  16.982 -0.1702 -0.6468  1.2696
 1841TIP3    H227015   5.961   1.979  16.854  1.3744  1.3430 -0.2401
 1842TIP3   OH227016   2.144   2.148  16.299 -0.2954  0.0529 -0.0949
 1842TIP3    H127017   2.205   2.171  16.369 -1.0644 -0.7820  0.8632
 1842TIP3    H227018   2.122   2.232  16.258  0.4609  0.4984  0.4089
 1843TIP3   OH227019   6.147   5.427   3.709 -0.4600  0.1465 -0.3415
 1843TIP3    H127020   6.201   5.353   3.682 -0.4876  0.8271 -2.2949
 1843TIP3    H227021   6.183   5.453   3.794  1.6435 -0.0538 -1.1417
 1844TIP3   OH227022   3.245   0.899  14.869  0.2964  0.4590 -0.2699
 1844TIP3    H127023   3.262   0.924  14.777 -1.5736  0.1441 -0.7085
 1844TIP3    H227024   3.220   0.982  14.911  1.9686  0.7568  0.1644
 1845TIP3   OH227025   2.046   2.480  15.720  0.0325 -0.3308  0.2023
 1845TIP3    H127026   2.030   2.552  15.781 -1.3311 -0.1800 -0.3146
 1845TIP3    H227027   1.972   2.421  15.733  0.9885 -1.5076  0.4144
 1846TIP3   OH227028   3.870   6.245  16.170 -0.1395  0.1445  0.0325
 1846TIP3    H127029   3.928   6.218  16.242 -0.5972 -0.9601 -0.0078
 1846TIP3    H227030   3.930   6.265  16.098  0.3088  1.0076  0.6292
 1847TIP3   OH227031   5.213   6.023   2.818 -0.0565  0.3912 -0.1014
 1847TIP3    H127032   5.289   6.042   2.873  0.4664 -2.2051  0.1368
 1847TIP3    H227033   5.239   6.050   2.730  0.7309  0.5292  0.1728
 1848TIP3   OH227034   1.629   3.041  10.891  0.1839 -0.2890 -0.0667
 1848TIP3    H127035   1.545   2.997  10.902  0.4788 -1.0750 -0.8880
 1848TIP3    H227036   1.683   2.978  10.843  0.5212  1.0478 -1.4915
 1849TIP3   OH227037   2.768   4.629  13.899 -0.2022  0.3090 -0.1073
 1849TIP3    H127038   2.683   4.592  13.921  0.4103 -0.3855  1.0799
 1849TIP3    H227039   2.761   4.721  13.925 -1.0401  0.5812 -1.2464
 1850TIP3   OH227040   1.460   1.233  15.932  0.4423 -0.2357  0.1087
 1850TIP3    H127041   1.431   1.163  15.874 -1.4229  1.7453 -1.4128
 1850TIP3    H227042   1.543   1.263  15.894 -0.0907  0.1441 -0.7654
 1851TIP3   OH227043   1.237   0.645  15.294  0.2601  0.1123 -0.2652
 1851TIP3    H127044   1.295   0.614  15.363  0.3038  1.9282  0.5291
 1851TIP3    H227045   1.199   0.725  15.328  0.1694  0.9671 -2.2943
 1852TIP3   OH227046   4.556   3.628   1.813 -0.2380  0.4899 -0.1300
 1852TIP3    H127047   4.628   3.671   1.767 -1.8350  3.7695  0.3220
 1852TIP3    H227048   4.599   3.574   1.879  1.8829  0.0026 -1.8177
 1853TIP3   OH227049   6.730   4.946  12.685 -0.3309  0.5135  0.1206
 1853TIP3    H127050   6.715   4.937  12.591 -0.9538  2.0440  0.0579
 1853TIP3    H227051   6.651   4.989  12.718 -0.6609 -1.1591  1.5536
 1854TIP3   OH227052   2.583   2.878  15.114 -0.8399 -0.1335 -0.3865
 1854TIP3    H127053   2.614   2.791  15.088  0.2322  0.0982  0.0582
 1854TIP3    H227054   2.507   2.894  15.059 -0.1920 -0.7543 -1.4979
 1855TIP3   OH227055   5.175   2.591   3.508  0.3852  0.2705  0.4258
 1855TIP3    H127056   5.191   2.613   3.600 -0.5532  0.6415  0.5015
 1855TIP3    H227057   5.103   2.648   3.482  0.9587  0.5049 -0.6805
 1856TIP3   OH227058   6.019   1.520  13.635  0.5792  0.4262  0.2237
 1856TIP3    H127059   6.003   1.486  13.546 -1.2505 -0.3680  0.8401
 1856TIP3    H227060   5.975   1.605  13.637  0.6150  0.4410  0.3727
 1857TIP3   OH227061   2.832   6.737  14.870 -0.3811 -0.5754 -0.3599
 1857TIP3    H127062   2.803   6.652  14.836 -0.1568 -1.1549  0.8701
 1857TIP3    H227063   2.922   6.721  14.899 -0.4599 -0.0026  0.1873
 1858TIP3   OH227064   2.398   4.794  14.034 -0.1008 -0.5536 -0.1882
 1858TIP3    H127065   2.316   4.797  14.082 -0.8625  1.9049 -1.5132
 1858TIP3    H227066   2.379   4.838  13.951  2.3480 -0.5729 -0.8171
 1859TIP3   OH227067   3.017   2.585   4.236 -0.0146 -0.5998  0.1958
 1859TIP3    H127068   3.102   2.545   4.253  0.0651 -0.1667  0.7989
 1859TIP3    H227069   3.025   2.675   4.267 -0.3059 -0.2007 -0.8655
 1860TIP3   OH227070   5.263   6.272   3.494 -0.5282  0.4970  0.5471
 1860TIP3    H127071   5.222   6.298   3.411 -1.7148  0.2949  1.0501
 1860TIP3    H227072   5.321   6.200   3.470  0.8834  1.9378 -0.4568
 1861TIP3   OH227073   0.723   0.715  10.845  0.3498 -0.1017 -0.0659
 1861TIP3    H127074   0.676   0.632  10.850 -3.0917  1.7964  0.8801
 1861TIP3    H227075   0.707   0.747  10.756 -0.7542  0.8318  0.4448
 1862TIP3   OH227076   3.515   0.907   0.641 -0.0340 -0.4245 -0.4259
 1862TIP3    H127077   3.498   0.992   0.601 -0.1992 -0.6176 -0.7665
 1862TIP3    H227078   3.594   0.921   0.693 -0.1406 -0.0260 -0.3645
 1863TIP3   OH227079   0.980   2.931  11.500 -0.0873 -0.4603  0.1477
 1863TIP3    H127080   1.011   2.994  11.436  0.4464 -0.8478  0.0264
 1863TIP3    H227081   0.903   2.973  11.540  2.1073  1.6210  2.3071
 1864TIP3   OH227082   0.210   1.139  14.956  0.1340 -0.0802 -0.5916
 1864TIP3    H127083   0.177   1.092  14.879 -1.5559  0.5424 -0.2842
 1864TIP3    H227084   0.212   1.073  15.025  0.5556 -0.3767 -0.8880
 1865TIP3   OH227085   6.224   5.651  13.467  0.2798 -0.0865 -0.2683
 1865TIP3    H127086   6.235   5.556  13.463  0.9216  0.0460 -1.9650
 1865TIP3    H227087   6.295   5.686  13.414 -0.4333  1.3138 -0.3209
 1866TIP3   OH227088   2.359   3.098  13.629 -0.0373  0.2882 -0.1841
 1866TIP3    H127089   2.268   3.127  13.622  0.2147  0.8650 -1.1647
 1866TIP3    H227090   2.384   3.075  13.540  0.4138 -1.0350  0.2583
 1867TIP3   OH227091   3.762   5.877   2.342  1.0274  0.0647 -0.2570
 1867TIP3    H127092   3.693   5.811   2.338  0.1951  0.9328 -0.4427
 1867TIP3    H227093   3.733   5.946   2.282  2.2955  0.2207 -0.7147
 1868TIP3   OH227094   6.816   3.568   4.291  0.5650 -0.8175 -0.5788
 1868TIP3    H127095   6.778   3.486   4.324  0.6528 -0.4931  0.3390
 1868TIP3    H227096   6.910   3.554   4.295  0.6136 -0.1701  0.9036
 1869TIP3   OH227097   0.358   4.538  15.451  0.5248 -0.7168 -0.9291
 1869TIP3    H127098   0.325   4.603  15.389  0.2765  0.4525  0.3862
 1869TIP3    H227099   0.279   4.494  15.483  0.6896 -1.6662 -1.7916
 1870TIP3   OH227100   0.951   2.147  14.466  0.2983 -0.0421 -0.2126
 1870TIP3    H127101   0.860   2.148  14.436  0.7293  0.1757 -1.5766
 1870TIP3    H227102   0.964   2.061  14.504  0.3388 -1.1715 -2.6841
 1871TIP3   OH227103   4.289   0.804   6.210 -0.0508  0.0784 -0.3527
 1871TIP3    H127104   4.219   0.804   6.144  0.7765  2.9067 -1.3260
 1871TIP3    H227105   4.370   0.795   6.160  0.4393 -0.4250  0.5197
 1872TIP3   OH227106   1.507   6.410  13.640  0.1715 -0.3380 -0.1069
 1872TIP3    H127107   1.517   6.494  13.596 -0.0498 -0.4957 -0.4620
 1872TIP3    H227108   1.538   6.346  13.576 -2.6151 -0.8014 -1.0333
 1873TIP3   OH227109   0.188   0.690  14.801 -0.8068 -0.4698 -0.6277
 1873TIP3    H127110   0.205   0.596  14.799 -0.2244 -0.3638 -0.7490
 1873TIP3    H227111   0.129   0.702  14.876  2.0223 -0.4748  1.7082
 1874TIP3   OH227112   2.980   1.385   4.988 -0.3536 -0.4199 -0.2964
 1874TIP3    H127113   3.058   1.397   4.934 -0.2550 -1.6213 -0.4456
 1874TIP3    H227114   2.994   1.440   5.064 -0.9588  2.0983 -1.9566
 1875TIP3   OH227115   1.568   2.146   0.528 -0.2071  0.3789  0.6800
 1875TIP3    H127116   1.582   2.160   0.434 -0.0160  0.7350  0.7631
 1875TIP3    H227117   1.649   2.176   0.569 -0.0056 -0.4405  0.9023
 1876TIP3   OH227118   0.121   5.410   5.884  0.0604  0.2090  0.0491
 1876TIP3    H127119   0.215   5.428   5.878 -0.3902  1.9592 -2.5557
 1876TIP3    H227120   0.105   5.395   5.977  2.5139  2.1785  0.8237
 1877TIP3   OH227121   3.825   3.483   3.709 -0.3877  0.3648  0.0238
 1877TIP3    H127122   3.739   3.516   3.682 -0.2819  0.0215 -0.7405
 1877TIP3    H227123   3.808   3.434   3.790 -0.9717 -0.0647 -0.3608
 1878TIP3   OH227124   5.557   3.431  15.696 -0.0062  0.0562  0.2614
 1878TIP3    H127125   5.570   3.375  15.619 -0.2016 -0.0135  0.2795
 1878TIP3    H227126   5.467   3.414  15.723 -0.3723  1.1103 -0.3093
 1879TIP3   OH227127   4.977   6.278  17.019  0.3546 -0.4195 -0.0037
 1879TIP3    H127128   4.893   6.232  17.022 -0.0293  0.3312  1.1694
 1879TIP3    H227129   5.042   6.209  17.025 -0.2053 -0.9041  0.6141
 1880TIP3   OH227130   3.036   3.617  11.686 -0.1725 -0.0704 -0.0417
 1880TIP3    H127131   3.048   3.629  11.592  2.5857 -1.1320  0.1103
 1880TIP3    H227132   3.086   3.689  11.725  1.2375 -1.3566  0.6025
 1881TIP3   OH227133   0.957   4.629   5.022  0.7135  0.7305 -0.1649
 1881TIP3    H127134   0.876   4.649   5.067 -0.2549  0.7840 -1.8722
 1881TIP3    H227135   1.026   4.666   5.078 -0.5134  1.7455  0.6937
 1882TIP3   OH227136   6.338   6.732   0.772 -0.2825  0.6623 -0.0726
 1882TIP3    H127137   6.365   6.808   0.719  0.1989  0.9646  0.5981
 1882TIP3    H227138   6.324   6.768   0.859  0.3835 -0.1055  0.3556
 1883TIP3   OH227139   3.583   0.676   3.171 -0.4543 -0.2297 -0.6178
 1883TIP3    H127140   3.503   0.654   3.124  0.4027 -2.5911 -1.0303
 1883TIP3    H227141   3.553   0.715   3.253 -2.0091 -0.0596 -1.2576
 1884TIP3   OH227142   4.297   0.793  12.734 -0.2097 -0.5791 -0.1536
 1884TIP3    H127143   4.304   0.706  12.772  4.4203 -0.8864 -1.4314
 1884TIP3    H227144   4.250   0.781  12.652  1.5968 -2.1419 -0.9816
 1885TIP3   OH227145   2.050   0.039   5.080  0.5011 -0.1682 -0.4753
 1885TIP3    H127146   2.042   0.106   5.149 -1.1251 -2.1296  1.3159
 1885TIP3    H227147   2.017   0.082   5.001 -0.2559  1.2437  0.5881
 1886TIP3   OH227148   3.564   3.569  14.126 -0.3740 -0.1483 -0.0191
 1886TIP3    H127149   3.620   3.499  14.093 -1.4313 -0.7936 -0.4814
 1886TIP3    H227150   3.511   3.527  14.194 -0.7093  0.3081  0.0030
 1887TIP3   OH227151   0.549   6.022  11.046  0.3269 -0.3859 -0.2620
 1887TIP3    H127152   0.481   6.021  10.978 -0.0973 -0.6728  0.1660
 1887TIP3    H227153   0.605   5.947  11.024  1.3606  0.7308 -1.4769
 1888TIP3   OH227154   4.373   5.365  12.501  0.1665  0.0172  0.4480
 1888TIP3    H127155   4.337   5.340  12.587  0.8100 -0.6338  0.5265
 1888TIP3    H227156   4.323   5.444  12.477 -2.7484 -1.9851 -0.3587
 1889TIP3   OH227157   1.611   1.494   0.965 -0.3515 -0.2565  0.8199
 1889TIP3    H127158   1.554   1.502   0.888 -0.1825  0.7824  0.7926
 1889TIP3    H227159   1.558   1.448   1.030 -1.5625  1.5073  1.1170
 1890TIP3   OH227160   1.391   6.803  14.084  0.7639 -0.5161 -0.1693
 1890TIP3    H127161   1.390   6.723  14.137  0.1967 -0.5750 -0.2588
 1890TIP3    H227162   1.454   6.860  14.127  0.7189 -0.7810  0.2527
 1891TIP3   OH227163   5.671   1.671  11.785  0.6793  0.3453 -0.3874
 1891TIP3    H127164   5.636   1.582  11.797 -2.6353  1.3622 -1.9948
 1891TIP3    H227165   5.716   1.667  11.700  2.2335 -0.2527  0.4351
 1892TIP3   OH227166   4.442   0.751  14.413 -0.2582  0.6777 -0.3707
 1892TIP3    H127167   4.501   0.827  14.413  0.5059  0.1075  2.0804
 1892TIP3    H227168   4.499   0.677  14.394 -0.4480  0.3095  0.4979
 1893TIP3   OH227169   5.293   6.312  16.939 -0.1745  0.9882 -0.0668
 1893TIP3    H127170   5.335   6.367  16.874 -0.4987  1.4870  0.1420
 1893TIP3    H227171   5.302   6.223  16.905 -0.3296  1.2459 -0.7742
 1894TIP3   OH227172   4.034   3.840   0.228 -0.2603  0.1583  0.3202
 1894TIP3    H127173   4.069   3.752   0.219 -1.0761 -0.1230 -0.1588
 1894TIP3    H227174   4.099   3.887   0.280  1.5989  0.0874 -1.8522
 1895TIP3   OH227175   1.666   6.600   6.331  0.1368 -0.2678  0.6023
 1895TIP3    H127176   1.659   6.571   6.240 -0.1635 -0.2504  0.6224
 1895TIP3    H227177   1.581   6.582   6.369  0.2315 -0.1835  0.8558
 1896TIP3   OH227178   1.576   4.882  17.187  0.0784  0.2808 -0.1840
 1896TIP3    H127179   1.566   4.855  17.279 -1.0467 -1.5651 -0.8137
 1896TIP3    H227180   1.513   4.954  17.177  0.1718  0.4640  0.4879
 1897TIP3   OH227181   5.793   5.278   2.658 -0.0044  0.0502  0.7854
 1897TIP3    H127182   5.853   5.347   2.685 -0.7482  0.3185  1.7999
 1897TIP3    H227183   5.840   5.197   2.674  0.0883  0.2590  1.5611
 1898TIP3   OH227184   5.387   2.259   4.356  0.2008  0.1694 -0.3477
 1898TIP3    H127185   5.362   2.271   4.264 -0.9132  0.7817  0.0134
 1898TIP3    H227186   5.481   2.247   4.354  0.1682  0.0143 -1.5913
 1899TIP3   OH227187   1.814   6.253   1.083  0.3946  0.0017  0.0072
 1899TIP3    H127188   1.868   6.302   1.020 -0.3917  0.9725  0.0765
 1899TIP3    H227189   1.855   6.166   1.086  0.3005 -0.1473 -2.0302
 1900TIP3   OH227190   6.632   4.541   2.531 -1.1422 -0.4821 -0.5197
 1900TIP3    H127191   6.675   4.519   2.614 -0.0930  0.7261 -0.7360
 1900TIP3    H227192   6.620   4.457   2.487 -1.5473 -1.1128  0.7747
 1901TIP3   OH227193   4.115   1.517  12.306  0.1962  0.6024 -1.0461
 1901TIP3    H127194   4.162   1.438  12.279 -2.2152 -0.6846 -1.5530
 1901TIP3    H227195   4.028   1.487  12.330 -0.9854  3.2126 -1.8927
 1902TIP3   OH227196   0.595   3.420   4.334  0.3129 -0.3398 -0.4932
 1902TIP3    H127197   0.544   3.433   4.414  1.5598  0.7083  0.1448
 1902TIP3    H227198   0.613   3.508   4.302 -0.4791 -0.7579 -2.1415
 1903TIP3   OH227199   6.059   2.208   0.813  0.3454 -0.1487 -0.0498
 1903TIP3    H127200   6.093   2.260   0.886  0.6035  0.0459 -0.3038
 1903TIP3    H227201   5.968   2.191   0.836  0.5888 -0.6076  0.6029
 1904TIP3   OH227202   6.245   5.858   2.810 -0.2578  0.1539 -0.1500
 1904TIP3    H127203   6.331   5.890   2.781 -0.9945  0.6319 -1.8526
 1904TIP3    H227204   6.218   5.919   2.878  0.5574  0.2389  0.1058
 1905TIP3   OH227205   4.664   1.433  15.589  0.0343 -0.5081 -0.5920
 1905TIP3    H127206   4.652   1.480  15.506 -0.3767 -1.1666 -0.9136
 1905TIP3    H227207   4.730   1.367  15.570  0.4278 -0.2199 -0.2113
 1906TIP3   OH227208   3.024   3.712   1.914 -0.1835  0.1700  0.5121
 1906TIP3    H127209   2.934   3.681   1.903  0.5489 -2.0611  0.7414
 1906TIP3    H227210   3.054   3.673   1.996  0.8219  1.3567  0.7336
 1907TIP3   OH227211   6.213   2.551  14.978 -0.8082  0.0338  0.1017
 1907TIP3    H127212   6.150   2.537  15.049 -2.6564 -1.0398 -1.6817
 1907TIP3    H227213   6.184   2.492  14.908  1.1173  0.8585 -1.4522
 1908TIP3   OH227214   5.654   5.622  16.411  0.3846  0.2370 -0.3544
 1908TIP3    H127215   5.615   5.633  16.324 -1.7170 -1.4657  0.3143
 1908TIP3    H227216   5.667   5.528  16.419  0.7815  0.4095  1.0899
 1909TIP3   OH227217   4.300   1.364  11.987 -0.4331 -0.3405 -0.0814
 1909TIP3    H127218   4.374   1.336  12.040  0.9910  2.3519 -0.5303
 1909TIP3    H227219   4.315   1.326  11.901  0.3324  0.0385 -0.1156
 1910TIP3   OH227220   3.726   2.987  16.146  0.0039  0.0682 -0.1051
 1910TIP3    H127221   3.659   2.960  16.209  0.3882  2.2000  1.2563
 1910TIP3    H227222   3.737   2.911  16.089 -2.6848 -0.7471  0.4069
 1911TIP3   OH227223   3.686   1.169   2.811 -0.2822  0.4555 -0.1143
 1911TIP3    H127224   3.624   1.138   2.877  0.4958 -0.3421  0.2469
 1911TIP3    H227225   3.707   1.091   2.760 -0.4161  0.9510 -0.9186
 1912TIP3   OH227226   4.216   4.169  13.190  0.4514  0.4478 -0.2132
 1912TIP3    H127227   4.253   4.192  13.275 -0.2655  0.9006 -0.0250
 1912TIP3    H227228   4.219   4.073  13.187  1.1913  0.4629 -0.0008
 1913TIP3   OH227229   2.544   1.451  15.920 -0.0543  0.2021 -0.4349
 1913TIP3    H127230   2.622   1.420  15.966 -0.5972 -1.2791 -0.4506
 1913TIP3    H227231   2.471   1.413  15.969 -0.6850 -0.2885 -1.7228
 1914TIP3   OH227232   5.839   1.244   1.684  0.2576  0.0267 -0.4771
 1914TIP3    H127233   5.906   1.182   1.655  0.5572  0.1321 -0.0168
 1914TIP3    H227234   5.832   1.229   1.779  1.1432  1.4661 -0.1667
 1915TIP3   OH227235   1.970   0.135  16.198 -0.0501  0.1945 -0.1159
 1915TIP3    H127236   1.891   0.131  16.251 -1.0533 -0.7246 -1.6363
 1915TIP3    H227237   2.019   0.210  16.233 -1.9399  1.2425  0.3566
 1916TIP3   OH227238   3.702   0.427   1.699  0.1291 -0.5946  0.2409
 1916TIP3    H127239   3.780   0.372   1.709  0.4900 -0.0562  0.4291
 1916TIP3    H227240   3.692   0.469   1.784 -1.7007 -2.3771  0.9533
 1917TIP3   OH227241   0.546   1.066   0.757  0.1803  0.1987 -0.2637
 1917TIP3    H127242   0.566   1.099   0.670 -0.4066 -0.0007 -0.4789
 1917TIP3    H227243   0.515   0.976   0.743 -0.8888  0.5020  0.0327
 1918TIP3   OH227244   4.500   6.048   3.644 -0.2700 -0.8462 -0.6333
 1918TIP3    H127245   4.558   5.997   3.700 -2.5564 -1.3372  1.3121
 1918TIP3    H227246   4.559   6.085   3.577  2.4855 -0.3221  1.9810
 1919TIP3   OH227247   2.467   4.156   4.429  0.3831  0.3658  0.1749
 1919TIP3    H127248   2.391   4.102   4.451 -0.1622  0.2323 -1.9163
 1919TIP3    H227249   2.447   4.242   4.467 -0.1652 -0.0487  0.8457
 1920TIP3   OH227250   4.062   2.048  13.288 -0.0032  0.3317 -0.1346
 1920TIP3    H127251   4.040   2.141  13.297 -1.1678 -0.0567  1.1578
 1920TIP3    H227252   3.980   2.002  13.301  0.9116 -0.9775  1.2854
 1921TIP3   OH227253   0.839   6.176   3.470  0.3087  0.0280 -0.0764
 1921TIP3    H127254   0.886   6.092   3.463  0.9160  0.1098  2.5280
 1921TIP3    H227255   0.897   6.231   3.522 -0.4418  1.8290 -1.1193
 1922TIP3   OH227256   5.129   6.640   0.058  0.4865  0.6373 -0.4715
 1922TIP3    H127257   5.195   6.599   0.002  1.7040 -0.4726  1.6677
 1922TIP3    H227258   5.176   6.708   0.105 -0.3087  1.0153 -0.2108
 1923TIP3   OH227259   3.001   5.441  15.256  0.1123 -0.1610 -0.3412
 1923TIP3    H127260   3.078   5.495  15.241 -0.0977  0.2433  0.0003
 1923TIP3    H227261   2.941   5.464  15.185  0.9962 -1.7769 -1.6235
 1924TIP3   OH227262   2.809   1.004   6.082  0.2512 -0.2004 -0.1299
 1924TIP3    H127263   2.903   1.001   6.063  0.8187 -2.8401  2.5846
 1924TIP3    H227264   2.769   0.954   6.011  0.9412  0.4884 -1.0162
 1925TIP3   OH227265   5.438   4.699  14.046  0.0357  0.0098  0.3328
 1925TIP3    H127266   5.384   4.739  14.114 -0.7788 -2.6261  1.2937
 1925TIP3    H227267   5.474   4.621  14.088  1.7047 -0.1964 -1.4388
 1926TIP3   OH227268   3.677   0.878  15.774 -0.1075  0.1641 -0.2578
 1926TIP3    H127269   3.623   0.827  15.836 -1.2718  0.4343 -1.0345
 1926TIP3    H227270   3.648   0.968  15.786 -0.1075  0.2607 -0.9669
 1927TIP3   OH227271   5.486   0.356   6.353  0.0573  0.1383 -0.1066
 1927TIP3    H127272   5.393   0.336   6.340 -0.0047  0.1684  0.3056
 1927TIP3    H227273   5.528   0.324   6.273 -0.1599 -0.8488  0.1666
 1928TIP3   OH227274   5.224   1.563   2.839 -0.6121 -0.0475 -0.0175
 1928TIP3    H127275   5.263   1.563   2.751 -0.0146  1.5300  0.2180
 1928TIP3    H227276   5.130   1.568   2.824 -0.5526 -0.5674 -0.5726
 1929TIP3   OH227277   2.825   2.502   5.259  0.3650  0.2144  0.1023
 1929TIP3    H127278   2.770   2.457   5.195  0.0335  0.4671  0.2078
 1929TIP3    H227279   2.770   2.573   5.293  0.1454 -0.5999  1.4817
 1930TIP3   OH227280   4.722   2.076   4.234  0.0613 -0.1101 -0.2391
 1930TIP3    H127281   4.718   2.083   4.329 -0.4086 -0.3193 -0.2384
 1930TIP3    H227282   4.693   2.161   4.202 -0.0054 -0.1165 -0.1957
 1931TIP3   OH227283   6.382   0.417   4.120  0.6701  0.4645 -0.4817
 1931TIP3    H127284   6.446   0.431   4.050 -0.5771  0.1574 -1.7085
 1931TIP3    H227285   6.301   0.455   4.087  0.1698  0.7212  0.9958
 1932TIP3   OH227286   0.852   5.661  17.002 -0.3770 -0.3735  0.3214
 1932TIP3    H127287   0.857   5.593  17.069  2.3254  0.4531  1.0143
 1932TIP3    H227288   0.942   5.693  16.994 -0.9981  0.7805 -2.4245
 1933TIP3   OH227289   2.862   6.266  13.075 -0.2959 -0.1253 -0.5517
 1933TIP3    H127290   2.925   6.317  13.023 -0.5111 -0.7878 -1.4629
 1933TIP3    H227291   2.777   6.303  13.052 -0.3670 -0.2218 -0.4418
 1934TIP3   OH227292   2.916   3.067  16.426  0.1351 -0.4981 -0.1401
 1934TIP3    H127293   2.849   2.999  16.430 -0.0996 -0.2449  0.2235
 1934TIP3    H227294   2.989   3.026  16.378 -0.1076 -0.9140 -0.1560
 1935TIP3   OH227295   3.864   0.122   3.357 -0.4482  0.7415 -0.0384
 1935TIP3    H127296   3.827   0.044   3.397  1.9749  0.1131  1.0529
 1935TIP3    H227297   3.832   0.121   3.267  0.2194 -1.9885 -0.2879
 1936TIP3   OH227298   4.662   6.037  10.872 -0.0909 -0.5047 -0.3129
 1936TIP3    H127299   4.709   5.979  10.813  0.6238 -0.0846 -0.1670
 1936TIP3    H227300   4.658   6.121  10.826  0.7320 -0.0922  0.3421
 1937TIP3   OH227301   3.962   0.898  12.637  0.7434  0.3765 -0.0459
 1937TIP3    H127302   3.885   0.935  12.594  0.3934 -0.3984 -0.0835
 1937TIP3    H227303   3.998   0.971  12.688 -0.4321  0.5399  0.5562
 1938TIP3   OH227304   0.655   6.457   3.267  0.2933  0.1025  0.0271
 1938TIP3    H127305   0.682   6.535   3.315 -0.0323 -0.4112  1.0474
 1938TIP3    H227306   0.586   6.418   3.320  1.4348 -1.6608  0.2521
 1939TIP3   OH227307   2.234   2.991  15.808  0.0967  0.1816  0.6532
 1939TIP3    H127308   2.229   3.078  15.845  0.6216  0.4523  0.0946
 1939TIP3    H227309   2.206   2.933  15.878 -2.5653  0.9737  0.3118
 1940TIP3   OH227310   2.438   5.143   0.445  0.2252  0.0195  0.2534
 1940TIP3    H127311   2.521   5.137   0.492  0.1043 -0.2867  0.4280
 1940TIP3    H227312   2.463   5.166   0.355  0.4524  0.6563  0.4738
 1941TIP3   OH227313   1.017   1.226  15.226 -0.1198 -0.5927 -0.5704
 1941TIP3    H127314   0.999   1.182  15.143 -0.0906 -0.9613 -0.3779
 1941TIP3    H227315   0.948   1.196  15.285  0.7853 -1.5518 -0.0020
 1942TIP3   OH227316   0.070   0.806   5.573 -0.2671 -0.4553  0.4047
 1942TIP3    H127317   0.077   0.717   5.608 -0.1220 -0.8202 -0.5303
 1942TIP3    H227318   0.003   0.848   5.627  0.2160 -0.8903  1.3394
 1943TIP3   OH227319   4.286   3.353  15.446 -0.4423 -0.0195 -0.4879
 1943TIP3    H127320   4.374   3.325  15.422  0.1489  0.3434  1.2074
 1943TIP3    H227321   4.283   3.345  15.541 -2.0854  0.4348 -0.4816
 1944TIP3   OH227322   6.702   1.769   1.255 -0.0706 -0.0961  0.7426
 1944TIP3    H127323   6.716   1.678   1.229 -2.8438 -0.7255  1.3894
 1944TIP3    H227324   6.681   1.814   1.173 -1.2700 -0.5670  0.7854
 1945TIP3   OH227325   5.075   1.917  17.009  0.3512  0.2370 -0.2858
 1945TIP3    H127326   5.042   1.870  16.933 -0.3695  0.1772  0.0586
 1945TIP3    H227327   5.125   1.990  16.973 -0.8003  0.7675 -0.8024
 1946TIP3   OH227328   3.279   2.630   3.430 -0.3488 -0.6116  0.6201
 1946TIP3    H127329   3.242   2.701   3.482  1.1345 -0.1557  1.0583
 1946TIP3    H227330   3.268   2.552   3.486  0.0766 -0.3405  1.0884
 1947TIP3   OH227331   4.611   1.762   0.059 -0.2147  0.0715  0.1959
 1947TIP3    H127332   4.537   1.822   0.049  0.9076  1.3191 -0.7572
 1947TIP3    H227333   4.609   1.708  -0.020 -1.3287 -1.2808  1.1339
 1948TIP3   OH227334   3.010   0.637  13.268 -0.0651  0.4503  0.0208
 1948TIP3    H127335   2.934   0.616  13.322  1.0670 -0.3314  1.3507
 1948TIP3    H227336   3.054   0.708  13.315 -0.0690  1.0599 -0.8624
 1949TIP3   OH227337   5.035   1.125   2.685 -0.1026  0.9852  0.3708
 1949TIP3    H127338   5.079   1.044   2.710 -0.2400  0.9817  0.6028
 1949TIP3    H227339   4.943   1.100   2.674  0.1394  0.7703 -1.1792
 1950TIP3   OH227340   6.456   2.389  13.296  0.2380 -0.4781 -0.5701
 1950TIP3    H127341   6.437   2.304  13.335 -0.7318 -0.6625 -1.4379
 1950TIP3    H227342   6.528   2.424  13.349 -1.1865 -0.6187  1.5454
 1951TIP3   OH227343   4.194   3.433   0.968  0.1748 -0.1153  0.0345
 1951TIP3    H127344   4.190   3.524   0.996  0.5273  0.1189 -0.6802
 1951TIP3    H227345   4.139   3.386   1.032 -0.1206  0.6069  0.3161
 1952TIP3   OH227346   4.950   6.635   3.761  0.7915  0.0463  0.5645
 1952TIP3    H127347   4.930   6.693   3.835 -1.0706  0.2601 -0.0802
 1952TIP3    H227348   4.885   6.565   3.768  0.5532  0.1122 -0.9004
 1953TIP3   OH227349   1.993   2.534   4.302  0.4687  0.0159  0.5002
 1953TIP3    H127350   2.083   2.539   4.334  1.1925 -0.1567 -1.4653
 1953TIP3    H227351   2.001   2.537   4.207 -1.6138  0.0772  0.3077
 1954TIP3   OH227352   0.354   3.405  10.771 -0.3252 -0.6471  0.6553
 1954TIP3    H127353   0.410   3.328  10.767  1.0290  0.3931 -0.9028
 1954TIP3    H227354   0.410   3.474  10.806 -0.5593  0.4564 -1.0948
 1955TIP3   OH227355   0.958   5.738  16.718  0.0747  0.3388 -0.3005
 1955TIP3    H127356   1.020   5.768  16.784 -0.8667 -0.7255  1.0928
 1955TIP3    H227357   1.004   5.750  16.635  0.8335  2.8340  0.4183
 1956TIP3   OH227358   5.038   2.551  12.656 -0.4127 -0.0072 -0.2824
 1956TIP3    H127359   5.119   2.501  12.647 -0.7003 -0.1600 -2.3011
 1956TIP3    H227360   5.063   2.630  12.704  1.0646  0.2601 -1.4680
 1957TIP3   OH227361   2.353   2.789  13.314  0.2220  1.1357  0.4804
 1957TIP3    H127362   2.416   2.808  13.244  1.2040 -2.7921  0.1772
 1957TIP3    H227363   2.407   2.770  13.391 -0.7750  2.1583  1.4740
 1958TIP3   OH227364   2.935   5.554  13.460 -0.0004 -0.1791 -0.0719
 1958TIP3    H127365   2.840   5.547  13.447 -0.1394 -1.0745  1.3315
 1958TIP3    H227366   2.945   5.604  13.541  0.7727  1.1947 -0.9916
 1959TIP3   OH227367   1.982   1.076   5.048 -0.4479 -0.6571 -0.2522
 1959TIP3    H127368   1.916   1.010   5.028  2.3268 -4.3267  2.1518
 1959TIP3    H227369   2.059   1.049   4.998  0.0102  2.2737 -1.2418
 1960TIP3   OH227370   2.462   0.218  12.234 -0.6983  0.0765 -0.7345
 1960TIP3    H127371   2.432   0.127  12.241 -2.0358  0.5539  0.0656
 1960TIP3    H227372   2.460   0.236  12.140  0.3560 -0.9601 -0.9690
 1961TIP3   OH227373   2.311   1.973   4.703  0.3616  0.6619 -0.1466
 1961TIP3    H127374   2.371   2.029   4.655  2.4253 -0.1404  1.4345
 1961TIP3    H227375   2.366   1.922   4.762 -1.7955 -0.5811  0.8926
 1962TIP3   OH227376   3.825   0.255  15.039  0.5929  0.1418  0.6639
 1962TIP3    H127377   3.845   0.264  15.132  0.2471  0.5215  0.7061
 1962TIP3    H227378   3.730   0.267  15.034  0.5889 -0.0511  0.2842
 1963TIP3   OH227379   5.933   1.670   5.297 -0.4613  0.3711  0.1826
 1963TIP3    H127380   5.924   1.757   5.336  0.1509  0.0779  1.0131
 1963TIP3    H227381   5.891   1.677   5.212 -0.6035  1.4231  0.3302
 1964TIP3   OH227382   5.306   1.527  15.144  0.1524 -0.0370 -0.1789
 1964TIP3    H127383   5.318   1.611  15.188 -0.1321 -0.2581  0.3267
 1964TIP3    H227384   5.345   1.462  15.203  1.3215 -0.1546 -1.0505
 1965TIP3   OH227385   3.825   1.070   4.842 -0.0718  0.4752 -0.4819
 1965TIP3    H127386   3.763   0.998   4.845 -1.0824  1.3033 -1.0985
 1965TIP3    H227387   3.869   1.060   4.758  1.7056 -0.9714  0.5848
 1966TIP3   OH227388   4.751   6.709   2.741  0.3441 -0.1589  0.0772
 1966TIP3    H127389   4.808   6.781   2.768  2.3465 -1.9306  0.6587
 1966TIP3    H227390   4.673   6.719   2.796  1.1140  0.8424  1.0177
 1967TIP3   OH227391   4.967   2.618  11.333  0.0983  0.4759  0.3386
 1967TIP3    H127392   5.043   2.613  11.391 -1.6502  0.8261  2.7186
 1967TIP3    H227393   4.968   2.707  11.299 -0.0441  0.9210  1.4879
 1968TIP3   OH227394   0.186   4.254  12.731  0.5710  0.0872 -0.4925
 1968TIP3    H127395   0.115   4.262  12.667  0.4926  0.0337 -0.4131
 1968TIP3    H227396   0.203   4.344  12.759 -0.0747  0.0236  0.1412
 1969TIP3   OH227397   4.850   1.555  14.494  0.7539 -0.0362 -0.1652
 1969TIP3    H127398   4.901   1.578  14.572  1.0613  3.0338 -1.1861
 1969TIP3    H227399   4.899   1.594  14.421  1.3015 -4.1218 -2.1412
 1970TIP3   OH227400   0.027   5.769   0.772 -0.7174  0.5916  0.4506
 1970TIP3    H127401   0.069   5.723   0.845 -1.8588  0.9239  1.3326
 1970TIP3    H227402  -0.027   5.836   0.814 -0.0037  1.9652 -0.7858
 1971TIP3   OH227403   5.932   6.638   6.325 -0.3642 -0.0418 -0.1616
 1971TIP3    H127404   6.013   6.657   6.276 -0.6839  0.7156 -0.3989
 1971TIP3    H227405   5.862   6.661   6.264 -0.7600 -0.8255 -0.0007
 1972TIP3   OH227406   6.148   1.960   3.719  0.2884  0.0193 -0.2003
 1972TIP3    H127407   6.080   1.921   3.775  2.3056 -2.8371  0.4294
 1972TIP3    H227408   6.155   2.050   3.749 -0.6732 -0.6727  2.2656
 1973TIP3   OH227409   1.419   1.688   1.909 -0.1713 -0.0637 -0.2029
 1973TIP3    H127410   1.480   1.739   1.962 -0.9252  1.2510 -0.5755
 1973TIP3    H227411   1.468   1.609   1.885  0.5205 -0.1922  1.5681
 1974TIP3   OH227412   2.845   6.195  15.028  0.1564 -0.7513 -0.3540
 1974TIP3    H127413   2.775   6.208  15.091  0.2960 -1.4195 -0.0466
 1974TIP3    H227414   2.806   6.214  14.943 -0.0475  0.0941 -0.0656
 1975TIP3   OH227415   3.352   2.123  15.959 -0.3435  0.1583  0.9958
 1975TIP3    H127416   3.359   2.202  16.012 -0.1184  1.0892 -0.4090
 1975TIP3    H227417   3.260   2.119  15.934 -0.5573 -0.5560  1.8382
 1976TIP3   OH227418   4.022   1.782  15.746  0.2350  0.7587  0.5113
 1976TIP3    H127419   4.066   1.854  15.700  0.0297  0.5826  0.0394
 1976TIP3    H227420   4.090   1.744  15.802  1.0775 -0.4645 -1.3132
 1977TIP3   OH227421   3.283   3.501   5.533 -0.0215 -0.3713  0.3590
 1977TIP3    H127422   3.334   3.527   5.457  1.7097 -1.1200  1.2377
 1977TIP3    H227423   3.202   3.551   5.525  1.2759  1.7008 -0.4946
 1978TIP3   OH227424   5.055   6.304  16.716 -0.3511  0.1394  0.0902
 1978TIP3    H127425   5.109   6.382  16.699 -2.4213  1.5692 -0.0681
 1978TIP3    H227426   5.089   6.269  16.798  0.6484  1.1711  0.1343
 1979TIP3   OH227427   1.225   4.072   5.761 -0.2292  0.1220  0.4339
 1979TIP3    H127428   1.302   4.033   5.802  0.9350  0.5267 -1.2970
 1979TIP3    H227429   1.232   4.166   5.781 -1.2824 -0.0659  1.8190
 1980TIP3   OH227430   3.556   2.611  15.427 -0.9598 -0.0918 -0.3576
 1980TIP3    H127431   3.577   2.611  15.333 -1.2072  0.2925 -0.4131
 1980TIP3    H227432   3.545   2.703  15.449 -2.6798 -0.2835 -0.3390
 1981TIP3   OH227433   0.430   5.608   1.901  0.3247  0.5336  0.0045
 1981TIP3    H127434   0.452   5.532   1.847 -0.1901  0.3638  0.0363
 1981TIP3    H227435   0.361   5.654   1.852  0.1325  0.5921  0.3281
 1982TIP3   OH227436   5.766   2.953   1.756  0.5719 -0.4086  0.3606
 1982TIP3    H127437   5.720   2.977   1.676 -0.3442 -1.2981  0.6154
 1982TIP3    H227438   5.710   2.986   1.827  1.6654  0.9003  0.6386
 1983TIP3   OH227439   1.048   4.609   4.754  0.5375  0.0636 -0.4519
 1983TIP3    H127440   0.991   4.560   4.695  0.3026  0.4051 -0.5120
 1983TIP3    H227441   0.990   4.637   4.826  0.5764  0.6076 -0.6291
 1984TIP3   OH227442   3.942   1.551  15.446 -0.3278  0.1407  0.3088
 1984TIP3    H127443   3.887   1.495  15.391 -1.6440 -1.1051  2.8162
 1984TIP3    H227444   4.020   1.499  15.465 -0.0867  0.3937  0.0269
 1985TIP3   OH227445   4.005   5.818   3.500  0.1815  0.1643 -0.7164
 1985TIP3    H127446   4.001   5.896   3.555  0.3896 -0.8983  0.8756
 1985TIP3    H227447   4.099   5.805   3.483  0.1309  0.3874 -1.1601
 1986TIP3   OH227448   2.761   4.189   0.359  0.3568 -0.3742 -0.4388
 1986TIP3    H127449   2.707   4.157   0.431 -0.6963 -0.6667 -1.3463
 1986TIP3    H227450   2.839   4.226   0.402 -1.4696  1.9242  1.0380
 1987TIP3   OH227451   0.494   4.784  11.769 -0.5432 -0.7467  0.5797
 1987TIP3    H127452   0.494   4.722  11.841 -3.1273 -0.7144  0.6423
 1987TIP3    H227453   0.402   4.810  11.759 -0.0457  0.2225 -1.8705
 1988TIP3   OH227454   2.140   4.058  11.943 -0.0798 -0.9922  0.6079
 1988TIP3    H127455   2.087   4.041  12.021  0.2508 -0.2615  0.9943
 1988TIP3    H227456   2.153   3.972  11.904  0.0762 -1.4107  1.5721
 1989TIP3   OH227457   5.931   4.878   4.975  0.2446 -0.2177 -0.1205
 1989TIP3    H127458   5.840   4.881   5.005  0.4736  0.9766  0.5229
 1989TIP3    H227459   5.942   4.791   4.936 -1.1034 -0.4447  0.0033
 1990TIP3   OH227460   5.727   4.966  15.835  0.6834  0.6434 -0.2775
 1990TIP3    H127461   5.819   4.987  15.854  0.4220  0.7501  0.9098
 1990TIP3    H227462   5.730   4.920  15.751  1.8989  0.0465  0.0759
 1991TIP3   OH227463   3.065   2.714   0.337 -0.3974  0.4927  0.7177
 1991TIP3    H127464   3.047   2.683   0.249 -0.4131  3.7697 -0.5008
 1991TIP3    H227465   2.981   2.712   0.382 -1.0154  1.8201 -0.3587
 1992TIP3   OH227466   1.549   2.688   3.071  0.0944  1.0806 -0.1100
 1992TIP3    H127467   1.579   2.778   3.056  1.3935  0.6389 -0.1754
 1992TIP3    H227468   1.587   2.663   3.155 -1.1894  0.9764  0.4524
 1993TIP3   OH227469   5.760   2.710  15.474  0.6862  0.1272  0.1686
 1993TIP3    H127470   5.809   2.779  15.431  0.2130  0.6184  0.4192
 1993TIP3    H227471   5.729   2.749  15.555 -0.5784 -0.0112 -0.2393
 1994TIP3   OH227472   3.168   5.582  10.928  0.6743 -0.2199 -0.0447
 1994TIP3    H127473   3.112   5.517  10.884  1.4407 -1.7538  1.1669
 1994TIP3    H227474   3.253   5.574  10.885  0.9691 -0.5574  0.5822
 1995TIP3   OH227475   6.685   3.249  16.097 -0.4171 -0.0485 -0.5965
 1995TIP3    H127476   6.647   3.161  16.104 -0.8936  0.1369 -0.7856
 1995TIP3    H227477   6.690   3.280  16.188  1.6802 -1.0589 -0.3379
 1996TIP3   OH227478   1.896   5.698  11.438  0.0443 -0.3160  0.0759
 1996TIP3    H127479   1.834   5.691  11.511 -0.6548  1.4580 -0.3164
 1996TIP3    H227480   1.978   5.725  11.478 -0.0519 -0.4208  0.3416
 1997TIP3   OH227481   6.247   2.700   6.008  0.3360  0.1380 -0.0506
 1997TIP3    H127482   6.284   2.618   6.041 -0.2091  0.4591  1.4022
 1997TIP3    H227483   6.278   2.767   6.069  1.5860  1.1888 -1.7764
 1998TIP3   OH227484   4.871   1.065  12.580 -0.3581  0.1242 -0.1962
 1998TIP3    H127485   4.919   1.002  12.526 -0.2141 -0.2626  0.3908
 1998TIP3    H227486   4.938   1.126  12.610 -0.0598 -0.9913  1.4533
 1999TIP3   OH227487   4.823   4.620   3.250 -0.0992 -0.2185 -0.2320
 1999TIP3    H127488   4.884   4.686   3.283 -0.9775  0.1177  0.7195
 1999TIP3    H227489   4.859   4.537   3.280  0.0027 -0.0379  0.1386
 2000TIP3   OH227490   4.844   1.593  15.726 -0.4553 -0.7399 -0.5807
 2000TIP3    H127491   4.842   1.603  15.821  1.1025 -0.1667 -0.6009
 2000TIP3    H227492   4.761   1.551  15.705 -0.9916 -0.5066  0.9919
 2001TIP3   OH227493   3.980   3.237  12.884 -0.4502 -0.1720  0.5567
 2001TIP3    H127494   4.072   3.213  12.869 -0.8816 -1.0539 -0.7647
 2001TIP3    H227495   3.974   3.248  12.979  0.8523 -0.8362  0.7344
 2002TIP3   OH227496   2.798   4.493  14.240 -0.0221  0.0623  0.1685
 2002TIP3    H127497   2.774   4.510  14.331 -1.6145  0.9233 -0.3864
 2002TIP3    H227498   2.714   4.489  14.193  0.8354  1.3961 -1.5545
 2003TIP3   OH227499   0.181   5.496  17.055  0.2944 -0.0289  0.1164
 2003TIP3    H127500   0.164   5.583  17.020  1.7214  0.0793 -0.3538
 2003TIP3    H227501   0.236   5.511  17.131 -0.8112 -0.4256  1.0140
 2004TIP3   OH227502   2.712   6.777  16.395 -0.3268 -0.4507  0.6100
 2004TIP3    H127503   2.668   6.828  16.463 -2.5076 -2.6182  0.8968
 2004TIP3    H227504   2.739   6.842  16.330 -1.1807  1.2895  1.9528
 2005TIP3   OH227505   2.028   0.720  15.037  0.1789 -0.2275  0.1581
 2005TIP3    H127506   2.108   0.685  15.076  1.2142  1.0830 -0.7923
 2005TIP3    H227507   2.004   0.793  15.094  0.4861  0.3188 -0.4132
 2006TIP3   OH227508   1.014   3.767   5.950  0.1608  0.0865 -0.0444
 2006TIP3    H127509   1.005   3.722   6.034  1.4204  0.6456  0.4103
 2006TIP3    H227510   0.975   3.853   5.965 -1.1691 -0.4294 -0.5524
 2007TIP3   OH227511   4.137   4.124   6.404  0.0253 -0.1998 -0.2599
 2007TIP3    H127512   4.211   4.177   6.373  1.7782 -2.7378 -0.5663
 2007TIP3    H227513   4.136   4.048   6.346 -0.3888 -2.1026  2.1231
 2008TIP3   OH227514   1.139   5.089   0.925 -0.9857  0.1761 -0.4445
 2008TIP3    H127515   1.094   5.067   1.007  0.0986  2.8204  0.9402
 2008TIP3    H227516   1.105   5.175   0.901 -1.2322 -0.5422 -2.7555
 2009TIP3   OH227517   2.917   2.028  14.902  0.4299  0.3300 -0.1120
 2009TIP3    H127518   2.948   2.073  14.980  0.2976 -0.7961  0.6146
 2009TIP3    H227519   2.992   2.026  14.843  0.8753  0.1811  0.4569
 2010TIP3   OH227520   5.578   5.721  12.018  0.3557  0.0330 -0.1701
 2010TIP3    H127521   5.571   5.800  12.071  0.7298  0.2660 -0.4648
 2010TIP3    H227522   5.618   5.750  11.936 -1.5632 -0.0463 -1.1770
 2011TIP3   OH227523   6.450   4.891  16.161 -0.1548 -0.1257 -0.8937
 2011TIP3    H127524   6.490   4.812  16.197 -0.6425  0.1559  0.3056
 2011TIP3    H227525   6.357   4.880  16.177 -0.1547  1.0194 -0.0495
 2012TIP3   OH227526   3.359   4.080  14.769 -0.1441 -0.5804 -0.4411
 2012TIP3    H127527   3.305   4.131  14.710  0.4259 -1.2696 -1.5738
 2012TIP3    H227528   3.419   4.032  14.712 -0.4040 -2.2039  0.6033
 2013TIP3   OH227529   1.221   2.834  13.761 -0.0996  0.4227  0.7319
 2013TIP3    H127530   1.293   2.889  13.731  1.0393 -0.5652  1.6394
 2013TIP3    H227531   1.250   2.800  13.845 -0.9205 -1.3572  0.3090
 2014TIP3   OH227532   4.343   0.452   3.876 -0.2072  0.0634 -0.1439
 2014TIP3    H127533   4.299   0.394   3.814 -1.5051 -1.5979  2.2384
 2014TIP3    H227534   4.305   0.538   3.859 -0.0292 -0.2209 -2.1021
 2015TIP3   OH227535   4.503   4.210   5.686 -0.3519  0.3119 -0.0137
 2015TIP3    H127536   4.474   4.202   5.777 -0.5898  0.7388 -0.0492
 2015TIP3    H227537   4.575   4.273   5.690  1.4264 -1.6861  0.2551
 2016TIP3   OH227538   6.424   6.732  16.016  0.6397  0.2476 -0.4246
 2016TIP3    H127539   6.432   6.719  16.110 -0.0631 -1.4615 -0.5912
 2016TIP3    H227540   6.513   6.754  15.987  1.2137 -0.9911  0.3701
 2017TIP3   OH227541   5.733   5.242   3.972  0.7083 -0.4797 -0.2414
 2017TIP3    H127542   5.782   5.295   3.910 -1.0042  1.7563  0.2783
 2017TIP3    H227543   5.643   5.275   3.967 -0.0648 -2.2723  1.2386
 2018TIP3   OH227544   1.585   3.697  14.285  0.6478 -0.3969  0.1535
 2018TIP3    H127545   1.643   3.643  14.231 -0.1614  0.3391 -1.4780
 2018TIP3    H227546   1.616   3.683  14.375  0.8841 -3.0208 -0.3081
 2019TIP3   OH227547   4.699   1.652   1.757  0.1907  0.0285 -0.5656
 2019TIP3    H127548   4.773   1.606   1.798 -0.4937 -1.6233 -1.1425
 2019TIP3    H227549   4.699   1.621   1.666 -2.1454 -1.1958 -0.1791
 2020TIP3   OH227550   0.758   4.917  15.405  0.0190  0.4075  0.0330
 2020TIP3    H127551   0.723   4.829  15.397 -1.8163  1.1156 -0.0385
 2020TIP3    H227552   0.728   4.948  15.490 -0.5991  1.4750 -0.5556
 2021TIP3   OH227553   6.414   2.787  16.480 -0.1121  0.3429 -0.1744
 2021TIP3    H127554   6.356   2.862  16.495  0.1368  0.5346 -0.1642
 2021TIP3    H227555   6.486   2.822  16.427 -1.1897 -0.4187 -2.2027
 2022TIP3   OH227556   3.094   1.640  13.646 -0.0013  0.4397 -0.6736
 2022TIP3    H127557   3.101   1.572  13.713  0.1541 -0.8394 -1.9509
 2022TIP3    H227558   3.169   1.623  13.588 -0.1512  1.5093 -1.1732
 2023TIP3   OH227559   6.298   3.773  13.309 -0.0148  0.5207  0.4536
 2023TIP3    H127560   6.347   3.755  13.389  1.2136  1.6072 -0.0295
 2023TIP3    H227561   6.345   3.846  13.268 -0.7622  0.1450 -1.1304
 2024TIP3   OH227562   5.204   2.496  14.893 -0.5310 -0.0295  0.0048
 2024TIP3    H127563   5.218   2.454  14.977  1.0730 -0.2518 -0.3652
 2024TIP3    H227564   5.213   2.426  14.829  1.4667  0.7105 -0.5610
 2025TIP3   OH227565   3.135   5.271  11.151 -0.2713  0.2254  0.1022
 2025TIP3    H127566   3.168   5.252  11.063  0.7420  1.0003  0.3090
 2025TIP3    H227567   3.057   5.325  11.136  1.5748  2.9068 -0.2861
 2026TIP3   OH227568   6.332   4.984   0.084 -0.4212 -0.0739  0.2294
 2026TIP3    H127569   6.271   5.057   0.087 -0.9971 -0.4172 -1.8135
 2026TIP3    H227570   6.404   5.014   0.028  0.1144 -0.4958  0.6855
 2027TIP3   OH227571   2.641   4.257  14.442 -0.1292  0.0515 -0.1957
 2027TIP3    H127572   2.728   4.263  14.481 -0.4839 -1.3508  0.8100
 2027TIP3    H227573   2.639   4.171  14.400 -1.4127 -0.3836  0.7339
 2028TIP3   OH227574   6.629   0.191   2.104  0.3961 -0.3151 -0.4079
 2028TIP3    H127575   6.675   0.109   2.084  0.5779 -0.2618 -0.2026
 2028TIP3    H227576   6.689   0.239   2.160 -0.4694 -0.8197  0.9539
 2029TIP3   OH227577   2.334   0.879   5.701 -0.6609  0.4651 -0.2031
 2029TIP3    H127578   2.254   0.928   5.682 -1.6974 -1.1618 -0.0857
 2029TIP3    H227579   2.355   0.904   5.791 -1.7000 -0.0083  0.1790
 2030TIP3   OH227580   5.646   2.964  17.237  0.2045 -0.2602 -0.3650
 2030TIP3    H127581   5.713   3.009  17.289 -1.2066  0.9602  0.4807
 2030TIP3    H227582   5.659   2.871  17.255  0.3227  0.0998  1.4955
 2031TIP3   OH227583   0.539   2.660  16.337  0.4659 -0.0891  0.1438
 2031TIP3    H127584   0.495   2.575  16.335 -2.5535  1.3949 -0.7161
 2031TIP3    H227585   0.538   2.685  16.430  1.7003 -1.1598  0.4457
 2032TIP3   OH227586   5.693   4.424   3.623  0.3854  0.2921 -0.5439
 2032TIP3    H127587   5.762   4.458   3.567  0.7105  1.1087  0.3411
 2032TIP3    H227588   5.724   4.338   3.650  1.0205  0.6232 -0.2078
 2033TIP3   OH227589   4.368   2.710  13.403  0.3209  0.7889  0.6153
 2033TIP3    H127590   4.392   2.656  13.328 -0.3482  1.0523  0.2174
 2033TIP3    H227591   4.442   2.770  13.413 -0.5102  2.1340 -1.1137
 2034TIP3   OH227592   6.203   0.481  12.772 -0.5760 -0.3670 -0.0471
 2034TIP3    H127593   6.258   0.552  12.806  2.0733 -1.4404 -2.0173
 2034TIP3    H227594   6.170   0.438  12.851  0.4627  0.9849  1.1736
 2035TIP3   OH227595   6.460   1.836  16.915 -0.5450  0.4730 -0.0636
 2035TIP3    H127596   6.493   1.919  16.883 -2.6564  1.2437 -0.3322
 2035TIP3    H227597   6.468   1.841  17.010  0.8089  0.3256 -0.1627
 2036TIP3   OH227598   4.740   4.345  15.336  0.2575 -0.6354 -0.2325
 2036TIP3    H127599   4.740   4.275  15.271  0.0048 -0.8970  0.0501
 2036TIP3    H227600   4.701   4.420  15.291 -0.5027 -1.0010 -0.1789
 2037TIP3   OH227601   2.838   5.420   5.691 -0.1262 -0.2373  0.4084
 2037TIP3    H127602   2.862   5.507   5.659 -0.4376  0.1563  1.2169
 2037TIP3    H227603   2.919   5.369   5.687  0.2954  0.3956  0.9095
 2038TIP3   OH227604   1.448   5.740   3.130  0.3460 -0.2119 -1.0233
 2038TIP3    H127605   1.454   5.719   3.037  1.2133 -1.1102 -0.7698
 2038TIP3    H227606   1.486   5.664   3.175  0.2301  0.3504  0.0459
 2039TIP3   OH227607   2.842   6.658  16.770 -0.0858  0.1135  0.1194
 2039TIP3    H127608   2.803   6.746  16.765  0.5984  0.3308 -1.6243
 2039TIP3    H227609   2.936   6.673  16.760  0.1946 -0.6887  1.4133
 2040TIP3   OH227610   4.521   6.754   4.950 -0.7417 -0.3499  0.3549
 2040TIP3    H127611   4.444   6.716   4.993 -0.2885  0.4337  1.8511
 2040TIP3    H227612   4.499   6.846   4.938 -1.3697 -0.7883 -2.2420
 2041TIP3   OH227613   3.357   6.102  12.158  1.0202 -0.1223  0.4963
 2041TIP3    H127614   3.299   6.090  12.082  1.4580  1.3371 -0.0752
 2041TIP3    H227615   3.424   6.035  12.147  1.3643  0.4030 -0.6907
 2042TIP3   OH227616   2.328   1.893   1.079 -0.6029  0.7227  0.0395
 2042TIP3    H127617   2.398   1.837   1.112 -0.1005  1.2459 -0.1358
 2042TIP3    H227618   2.254   1.833   1.065 -0.3537  0.2563  0.6981
 2043TIP3   OH227619   0.152   4.407  11.022 -0.4203 -0.2907  0.0097
 2043TIP3    H127620   0.123   4.328  11.067 -1.4724  0.5189  0.7814
 2043TIP3    H227621   0.079   4.469  11.032  0.5845  0.9409 -0.1616
 2044TIP3   OH227622   4.422   5.185   2.231  0.3098 -0.0098  0.1264
 2044TIP3    H127623   4.343   5.146   2.269 -1.9477  1.4751 -2.7839
 2044TIP3    H227624   4.415   5.165   2.138  2.3719  1.8694 -0.4575
 2045TIP3   OH227625   3.034   5.634  17.096 -0.2000  0.2051 -0.0180
 2045TIP3    H127626   2.947   5.648  17.060 -0.0521 -0.1021 -0.5076
 2045TIP3    H227627   3.091   5.630  17.019  0.3211  0.9511  0.3260
 2046TIP3   OH227628   0.252   2.894   1.107  0.0059 -0.5051 -0.4744
 2046TIP3    H127629   0.222   2.817   1.156 -0.5819  0.5297  0.8095
 2046TIP3    H227630   0.218   2.880   1.018 -0.3200 -1.6007 -0.1880
 2047TIP3   OH227631   5.707   1.098  11.306 -0.0684 -0.0747  0.1931
 2047TIP3    H127632   5.657   1.115  11.226  0.0480  0.7949  0.3055
 2047TIP3    H227633   5.766   1.172  11.314  1.2496 -1.0859  0.0571
 2048TIP3   OH227634   2.320   5.363   4.200 -0.5838  0.0671 -0.1001
 2048TIP3    H127635   2.253   5.309   4.242 -0.2335 -0.2334  0.0774
 2048TIP3    H227636   2.375   5.394   4.272  0.6283 -1.2889 -0.4232
 2049TIP3   OH227637   6.470   6.568   3.213  0.0454  0.2078 -0.3473
 2049TIP3    H127638   6.474   6.479   3.247 -0.6797  0.6858  1.0453
 2049TIP3    H227639   6.541   6.573   3.149  1.3800 -0.7722  1.0126
 2050TIP3   OH227640   0.157   3.508   2.565 -0.1291 -0.7050  0.5242
 2050TIP3    H127641   0.223   3.533   2.630 -0.2510 -1.7254  1.0478
 2050TIP3    H227642   0.093   3.579   2.568 -0.2001 -0.7974  1.6234
 2051TIP3   OH227643   5.616   2.390   0.778  0.7201 -0.4316 -0.1455
 2051TIP3    H127644   5.600   2.449   0.851 -0.1509 -2.5018  1.3771
 2051TIP3    H227645   5.537   2.394   0.726 -0.3815 -2.1561  1.3401
 2052TIP3   OH227646   1.406   2.790  11.716  0.1816 -0.4811 -0.0818
 2052TIP3    H127647   1.391   2.882  11.738  0.9548 -0.3300 -0.1451
 2052TIP3    H227648   1.320   2.748  11.724 -0.0852  0.1521  0.4041
 2053TIP3   OH227649   5.420   0.271  12.579 -0.0904  0.3525  0.4355
 2053TIP3    H127650   5.346   0.323  12.547  0.0461  0.1269 -0.2635
 2053TIP3    H227651   5.428   0.200  12.515 -0.2205 -0.4771  1.3425
 2054TIP3   OH227652   0.174   3.849   2.072 -0.7200 -0.2828 -0.0830
 2054TIP3    H127653   0.084   3.860   2.105  0.0681  1.5144  1.5617
 2054TIP3    H227654   0.229   3.873   2.146  1.1308  0.2526 -1.6212
 2055TIP3   OH227655   1.437   5.768   1.356  0.8107  0.6478 -0.1379
 2055TIP3    H127656   1.437   5.863   1.343  0.0219  0.7523  0.5573
 2055TIP3    H227657   1.491   5.754   1.433  1.1352  0.5111 -0.3918
 2056TIP3   OH227658   0.940   0.123   1.729 -0.0408 -0.1072  0.0003
 2056TIP3    H127659   0.860   0.166   1.761  1.4433  0.9972  2.3142
 2056TIP3    H227660   1.011   0.179   1.759  1.7142 -1.8811 -0.7320
 2057TIP3   OH227661   0.986   0.399  13.783  0.1076  0.1416  0.1908
 2057TIP3    H127662   1.015   0.413  13.873  0.5836  0.6411 -0.0326
 2057TIP3    H227663   1.017   0.311  13.761 -0.2155 -0.0730  0.5937
 2058TIP3   OH227664   5.094   3.592   4.111  0.2283  0.2500 -0.3054
 2058TIP3    H127665   5.075   3.677   4.072  1.5167  0.2715 -0.9411
 2058TIP3    H227666   5.178   3.604   4.155 -0.4512 -0.2141  1.1448
 2059TIP3   OH227667   2.167   3.607   0.495 -0.1171 -0.0221  0.1682
 2059TIP3    H127668   2.172   3.700   0.516  1.7767 -0.5041  2.0039
 2059TIP3    H227669   2.175   3.604   0.399  0.0913  1.6927  0.1164
 2060TIP3   OH227670   5.757   3.495  13.563 -0.4565 -0.4572 -0.2568
 2060TIP3    H127671   5.791   3.521  13.648 -0.5745  1.0225 -0.6488
 2060TIP3    H227672   5.736   3.577  13.519 -0.0670 -1.1836 -1.8549
 2061TIP3   OH227673   5.018   3.336  16.524 -0.2839 -0.3687  0.4530
 2061TIP3    H127674   4.965   3.400  16.476  0.6584  0.7814  0.9492
 2061TIP3    H227675   4.967   3.318  16.603  1.0317  2.3257  1.9552
 2062TIP3   OH227676   3.174   3.208  14.324  0.2191 -0.0411 -0.3412
 2062TIP3    H127677   3.120   3.134  14.296  0.3508 -0.1400 -0.3312
 2062TIP3    H227678   3.229   3.173  14.394  1.9609 -0.5597 -1.9361
 2063TIP3   OH227679   0.869   0.342   2.630 -0.1470  0.8293  0.7348
 2063TIP3    H127680   0.902   0.279   2.566 -0.9127  0.3618  0.7956
 2063TIP3    H227681   0.943   0.359   2.688  0.7164  1.6478 -0.5754
 2064TIP3   OH227682   4.464   0.107  16.314  0.0889 -0.4929 -0.1009
 2064TIP3    H127683   4.409   0.121  16.391 -1.2376 -0.4913 -1.0212
 2064TIP3    H227684   4.540   0.164  16.328 -0.0733 -0.5908  1.2534
 2065TIP3   OH227685   3.763   4.051   3.719 -0.1574 -0.1058  0.1412
 2065TIP3    H127686   3.711   4.091   3.789 -1.5174  0.0960 -0.9619
 2065TIP3    H227687   3.723   4.084   3.638  1.8061  0.1855 -0.7287
 2066TIP3   OH227688   6.129   0.550   5.975 -0.9627 -0.4606 -0.0926
 2066TIP3    H127689   6.091   0.478   6.025 -0.9397  0.2981  1.0458
 2066TIP3    H227690   6.074   0.625   5.995  1.9952  1.0650  2.9266
 2067TIP3   OH227691   3.322   4.222  12.144  0.4150  0.1466  0.2107
 2067TIP3    H127692   3.411   4.248  12.123  0.6305 -0.1959  0.6880
 2067TIP3    H227693   3.296   4.162  12.073  0.8553 -0.3933  0.5046
 2068TIP3   OH227694   0.542   0.573   3.267  0.0970 -0.0482  0.2077
 2068TIP3    H127695   0.517   0.659   3.233  0.3514  0.1494  0.5207
 2068TIP3    H227696   0.624   0.553   3.222 -0.4576 -0.5649 -0.5969
 2069TIP3   OH227697   0.419   5.268   0.437 -0.3763 -0.0188  0.2328
 2069TIP3    H127698   0.365   5.279   0.515 -1.3228 -2.9937  0.0954
 2069TIP3    H227699   0.474   5.192   0.457  1.2706  0.8354 -0.9817
 2070TIP3   OH227700   0.415   4.728  12.229 -0.6757  0.6074 -0.3299
 2070TIP3    H127701   0.344   4.663  12.235 -0.3899  0.3592  0.4982
 2070TIP3    H227702   0.431   4.753  12.320  0.4724  0.4781 -0.4961
 2071TIP3   OH227703   5.133   3.369  13.536  0.2649  0.7009 -0.2637
 2071TIP3    H127704   5.091   3.289  13.505 -0.7979  0.0137  2.8279
 2071TIP3    H227705   5.218   3.340  13.570  0.2601  1.0386  0.0353
 2072TIP3   OH227706   5.305   5.555   3.284  0.3491 -0.5573  0.1885
 2072TIP3    H127707   5.331   5.466   3.259 -0.4825 -0.2698 -1.7952
 2072TIP3    H227708   5.384   5.607   3.272  0.2314 -0.6131 -0.9565
 2073TIP3   OH227709   5.891   5.807  14.884  0.5990 -0.0455  0.5657
 2073TIP3    H127710   5.982   5.778  14.888  0.8509  0.5611 -0.3856
 2073TIP3    H227711   5.842   5.741  14.931  1.3367 -1.2662 -0.3559
 2074TIP3   OH227712   5.204   1.770  13.554 -0.1804 -0.2258 -0.4190
 2074TIP3    H127713   5.160   1.693  13.592  2.6601 -0.8728  1.7194
 2074TIP3    H227714   5.133   1.832  13.538 -1.9502 -1.2518  2.8812
 2075TIP3   OH227715   1.241   2.399  13.112 -0.3460  0.2208  0.1425
 2075TIP3    H127716   1.190   2.432  13.186 -1.1920 -1.0351  0.1493
 2075TIP3    H227717   1.178   2.345  13.063  0.4289  0.3722 -1.0211
 2076TIP3   OH227718   5.705   5.156  11.998 -0.3278 -0.0831  0.8036
 2076TIP3    H127719   5.683   5.231  11.943 -2.8609 -1.6930 -0.4674
 2076TIP3    H227720   5.762   5.102  11.943  1.6820  0.9695  1.7993
 2077TIP3   OH227721   4.546   0.674  16.181 -0.3271  0.0694 -0.1042
 2077TIP3    H127722   4.486   0.600  16.181 -1.2176  0.7223  3.0128
 2077TIP3    H227723   4.536   0.713  16.093 -1.2456 -2.3243 -1.0984
 2078TIP3   OH227724   3.359   4.020  15.263 -0.1529  0.1789 -0.3667
 2078TIP3    H127725   3.306   4.021  15.184 -1.1470  2.7249  0.2829
 2078TIP3    H227726   3.297   3.994  15.332  0.4443 -0.9097 -0.2268
 2079TIP3   OH227727   6.425   1.822  17.184 -0.2015 -0.9817  0.0738
 2079TIP3    H127728   6.493   1.861  17.238 -0.8264 -0.3006  0.3960
 2079TIP3    H227729   6.359   1.892  17.175 -1.2601 -1.9069  0.5009
 2080TIP3   OH227730   5.683   4.484   4.884  0.3352 -0.7685  0.4749
 2080TIP3    H127731   5.653   4.570   4.911  0.5410 -0.8056  0.8262
 2080TIP3    H227732   5.605   4.428   4.890  0.3012 -0.7003  0.6537
 2081TIP3   OH227733   4.319   3.761   4.036  0.0786 -0.2625 -0.1214
 2081TIP3    H127734   4.382   3.706   3.989 -0.4263 -0.1233 -0.9650
 2081TIP3    H227735   4.236   3.746   3.992 -0.4601 -0.3592  0.9270
 2082TIP3   OH227736   3.789   2.982  13.130 -0.3867  1.0373  0.2921
 2082TIP3    H127737   3.832   3.067  13.130 -0.0466  0.8770  1.8234
 2082TIP3    H227738   3.848   2.926  13.181 -0.7731 -0.0298 -0.4171
 2083TIP3   OH227739   1.429   3.362   0.409  0.5934  0.0689  0.0656
 2083TIP3    H127740   1.423   3.357   0.314 -2.2115  3.7206 -0.0547
 2083TIP3    H227741   1.354   3.313   0.441 -0.4253  1.7200  0.2543
 2084TIP3   OH227742   1.727   5.475  14.688  0.0614 -0.3077  0.0698
 2084TIP3    H127743   1.664   5.452  14.757 -0.5872 -1.7603 -0.9794
 2084TIP3    H227744   1.677   5.527  14.626  0.1014 -0.7560 -0.3422
 2085TIP3   OH227745   5.681   5.116   6.402  0.5851 -0.1507 -0.2941
 2085TIP3    H127746   5.699   5.126   6.309  1.1665 -1.0275 -0.2913
 2085TIP3    H227747   5.763   5.081   6.438  0.1362 -0.4840  0.4182
 2086TIP3   OH227748   2.991   1.585  17.136 -0.2116 -0.2041 -0.3074
 2086TIP3    H127749   3.068   1.634  17.164  0.6987 -0.7777 -1.7536
 2086TIP3    H227750   2.933   1.585  17.213  0.2492  2.1432  0.0778
 2087TIP3   OH227751   1.759   5.946  13.838 -0.1659 -0.8208 -0.0006
 2087TIP3    H127752   1.767   6.040  13.853  3.0212 -0.6531 -2.1878
 2087TIP3    H227753   1.714   5.913  13.915 -0.3430  2.3341  1.3226
 2088TIP3   OH227754   6.606   2.060   2.752 -0.0550 -1.1308 -0.2877
 2088TIP3    H127755   6.566   2.122   2.693 -1.8476 -0.9073  1.1229
 2088TIP3    H227756   6.545   2.052   2.825  2.7857 -0.1611  2.3508
 2089TIP3   OH227757   0.492   5.846  15.196 -0.4119 -0.1305  0.0842
 2089TIP3    H127758   0.561   5.783  15.215  0.8971  0.7036 -1.8011
 2089TIP3    H227759   0.537   5.920  15.156 -2.2243  1.0481  0.1650
 2090TIP3   OH227760   0.260   1.226   1.695  0.5310 -0.6149  0.4216
 2090TIP3    H127761   0.246   1.266   1.609  0.4881 -0.2060  0.6174
 2090TIP3    H227762   0.210   1.144   1.692  0.2130 -0.4120  0.1941
 2091TIP3   OH227763   3.673   2.289   5.353 -0.3274  0.1884  0.1739
 2091TIP3    H127764   3.648   2.336   5.432  0.9907  0.3689  0.4904
 2091TIP3    H227765   3.592   2.249   5.322 -1.0451  0.9537  1.0531
 2092TIP3   OH227766   3.036   3.180  13.934  0.3961 -0.3410  0.1857
 2092TIP3    H127767   3.013   3.094  13.970  1.8516 -1.1663 -0.8129
 2092TIP3    H227768   3.131   3.187  13.946  0.2401  1.2802  0.5691
 2093TIP3   OH227769   5.321   2.541  16.277  0.2558 -0.3612 -0.4039
 2093TIP3    H127770   5.351   2.631  16.266  1.7212 -0.9811 -1.4988
 2093TIP3    H227771   5.371   2.508  16.352 -1.9734  0.4449  1.5148
 2094TIP3   OH227772   5.662   5.097   1.818  0.1141 -0.0863  0.4253
 2094TIP3    H127773   5.580   5.050   1.834 -1.7877  3.0335  0.3762
 2094TIP3    H227774   5.711   5.089   1.900 -0.9264 -0.7382  0.9977
 2095TIP3   OH227775   0.863   5.245   4.717  0.9514 -0.7089  0.3884
 2095TIP3    H127776   0.930   5.300   4.756  0.2637  1.0780 -0.8728
 2095TIP3    H227777   0.911   5.171   4.680  2.8415  2.5233 -4.0886
 2096TIP3   OH227778   6.245   1.907  15.784 -0.0304  0.0436 -0.0209
 2096TIP3    H127779   6.340   1.894  15.782 -0.1846 -1.6410  1.7462
 2096TIP3    H227780   6.213   1.858  15.708  0.3403 -1.1436  0.5829
 2097TIP3   OH227781   0.080   4.535  11.675  0.7361  0.0339 -0.7372
 2097TIP3    H127782   0.086   4.451  11.719 -0.9841  0.4941  0.4582
 2097TIP3    H227783   0.149   4.589  11.714 -1.1177  0.6189  1.9146
 2098TIP3   OH227784   0.918   6.540  13.991  0.0232  0.1249  0.3809
 2098TIP3    H127785   0.898   6.491  14.071  1.5066 -0.0267  0.6661
 2098TIP3    H227786   0.832   6.557  13.952 -0.6875 -0.2431  1.7357
 2099TIP3   OH227787   4.703   1.483   6.333 -0.0133  0.0805 -0.2010
 2099TIP3    H127788   4.772   1.433   6.289  1.1970  2.2961 -0.8658
 2099TIP3    H227789   4.647   1.416   6.372  2.6200 -1.7888  0.5594
 2100TIP3   OH227790   3.593   0.452   5.396  0.3918 -0.2641 -0.0293
 2100TIP3    H127791   3.646   0.525   5.367 -0.9126  0.8882  0.4254
 2100TIP3    H227792   3.567   0.407   5.316  0.0709  0.5788 -0.4017
 2101TIP3   OH227793   2.700   4.489  15.135 -0.2555 -0.6590 -0.4193
 2101TIP3    H127794   2.619   4.451  15.102 -0.0435 -1.0184 -0.5260
 2101TIP3    H227795   2.757   4.495  15.059 -0.4115  0.2037 -0.4729
 2102TIP3   OH227796   0.133   5.708  13.085  0.5656 -0.0885 -0.1263
 2102TIP3    H127797   0.099   5.669  13.005  1.4425  0.1496 -0.6259
 2102TIP3    H227798   0.089   5.793  13.092 -0.3867 -0.6040  0.2789
 2103TIP3   OH227799   0.829   3.823  15.073 -0.8050  0.1408 -1.2798
 2103TIP3    H127800   0.921   3.824  15.097 -0.6991 -2.0107 -1.4539
 2103TIP3    H227801   0.826   3.862  14.985 -0.2301  1.3375 -0.7678
 2104TIP3   OH227802   4.643   4.713   4.523 -0.2537 -0.1656  0.1612
 2104TIP3    H127803   4.668   4.737   4.612 -1.2919  1.9479 -0.0794
 2104TIP3    H227804   4.575   4.777   4.499 -2.0173 -2.4366 -1.1192
 2105TIP3   OH227805   4.948   1.559   3.391  0.3075  0.0791 -0.4670
 2105TIP3    H127806   5.024   1.558   3.449 -1.2846 -0.6589  1.6667
 2105TIP3    H227807   4.926   1.467   3.377  0.5112  0.2503 -2.0824
 2106TIP3   OH227808   0.967   1.482  13.071  0.3777 -0.0720 -0.6739
 2106TIP3    H127809   1.003   1.485  13.159 -0.1231  2.8166 -0.5248
 2106TIP3    H227810   1.022   1.419  13.024  1.6866 -0.3775  1.2296
 2107TIP3   OH227811   1.623   1.657   5.844 -0.7079  0.2114  0.0787
 2107TIP3    H127812   1.563   1.652   5.918 -0.8369  0.1492 -0.0288
 2107TIP3    H227813   1.590   1.729   5.791  0.2603  1.2232  0.8466
 2108TIP3   OH227814   3.977   0.719   1.883 -0.2933  0.3215  0.5297
 2108TIP3    H127815   3.984   0.749   1.974  0.8053  2.2786 -0.1682
 2108TIP3    H227816   4.054   0.663   1.871 -0.1147  0.5416  0.6368
 2109TIP3   OH227817   5.508   1.182  16.640 -0.5467 -0.1728 -0.3238
 2109TIP3    H127818   5.582   1.165  16.699 -1.3618 -1.7124  0.2930
 2109TIP3    H227819   5.544   1.238  16.572  0.3522  1.8598  1.7661
 2110TIP3   OH227820   2.137   4.368  14.759  0.0859 -0.0297 -0.1075
 2110TIP3    H127821   2.137   4.428  14.833 -1.8573 -0.2730  0.0988
 2110TIP3    H227822   2.052   4.324  14.763 -0.2264  0.2431 -2.7034
 2111TIP3   OH227823   1.913   4.769  11.508 -0.3418 -0.0585  0.1612
 2111TIP3    H127824   1.922   4.685  11.553 -0.1798  0.2008  0.6231
 2111TIP3    H227825   1.857   4.751  11.433  0.3209 -0.7419 -0.1726
 2112TIP3   OH227826   0.143   5.796  14.122 -0.1990  0.3214 -0.0594
 2112TIP3    H127827   0.236   5.774  14.117 -0.0974  0.1995  1.8396
 2112TIP3    H227828   0.142   5.892  14.116  0.2475  0.4776  1.9257
 2113TIP3   OH227829   1.210   2.651  16.709 -0.2521  0.3933  0.4152
 2113TIP3    H127830   1.292   2.668  16.754  0.6439 -0.2960 -0.9039
 2113TIP3    H227831   1.142   2.681  16.769  0.9537  0.6562  1.6598
 2114TIP3   OH227832   2.721   1.885  10.895 -0.0163  0.8057 -0.5844
 2114TIP3    H127833   2.758   1.880  10.983  0.9486 -1.3836 -1.0917
 2114TIP3    H227834   2.647   1.824  10.897 -0.4633  1.3164 -1.0936
 2115TIP3   OH227835   5.418   4.082   3.604  0.1947  0.1191  0.1177
 2115TIP3    H127836   5.342   4.133   3.575  0.7274  1.2372  0.6579
 2115TIP3    H227837   5.404   3.995   3.566 -0.2010  0.9557 -1.7232
 2116TIP3   OH227838   4.294   0.867  16.189  0.3135 -0.2085 -0.5545
 2116TIP3    H127839   4.342   0.790  16.220 -0.0818 -0.6180 -0.9427
 2116TIP3    H227840   4.295   0.859  16.093  0.7498  0.5685 -0.6235
 2117TIP3   OH227841   3.709   4.413   4.442  0.1525 -0.1100 -0.2613
 2117TIP3    H127842   3.713   4.335   4.498 -0.4236 -2.3892 -3.3121
 2117TIP3    H227843   3.795   4.455   4.455  0.4519 -1.1928  1.4620
 2118TIP3   OH227844   2.237   5.380  12.015 -0.4099 -0.6832 -0.1785
 2118TIP3    H127845   2.286   5.304  11.984 -1.0054 -1.0113 -0.3076
 2118TIP3    H227846   2.199   5.419  11.936 -0.9104 -0.8126 -0.0004
 2119TIP3   OH227847   1.208   4.373   0.433 -0.4156 -0.3674  0.0518
 2119TIP3    H127848   1.184   4.361   0.524  0.6326  0.0751  0.3889
 2119TIP3    H227849   1.192   4.466   0.416  1.0585 -0.0501  0.2957
 2120TIP3   OH227850   3.119   3.747   4.170  0.4618  1.0704 -0.0052
 2120TIP3    H127851   3.194   3.795   4.134  0.1471  2.4902  1.1820
 2120TIP3    H227852   3.046   3.771   4.113  0.8915 -0.3906 -1.2222
 2121TIP3   OH227853   6.139   4.455   0.964 -0.8258  0.1770  0.0614
 2121TIP3    H127854   6.146   4.511   1.041 -0.1737  1.3312 -0.8230
 2121TIP3    H227855   6.177   4.372   0.992  1.4203  1.2525  0.3384
 2122TIP3   OH227856   2.248   2.377  12.804 -0.5973  0.1553 -0.1258
 2122TIP3    H127857   2.234   2.467  12.774  1.4930 -0.0901 -1.9913
 2122TIP3    H227858   2.182   2.326  12.757 -0.6916  0.4885 -0.3578
 2123TIP3   OH227859   1.385   2.387   4.606  0.2184  0.0411  0.0304
 2123TIP3    H127860   1.393   2.477   4.574  0.8423 -0.5931 -1.6425
 2123TIP3    H227861   1.471   2.348   4.588  0.5952 -0.3427  2.5067
 2124TIP3   OH227862   4.337   5.584   4.308 -0.0758  0.1050  0.1318
 2124TIP3    H127863   4.403   5.518   4.330 -1.5889 -1.4413  0.1105
 2124TIP3    H227864   4.383   5.645   4.250  1.1402 -1.3676 -0.4939
 2125TIP3   OH227865   1.146   5.605  14.284  0.1341  0.0999  0.3843
 2125TIP3    H127866   1.181   5.644  14.364  0.0016  0.4656  0.2682
 2125TIP3    H227867   1.218   5.611  14.221  0.2514 -0.2234  0.4865
 2126TIP3   OH227868   2.239   3.043   3.940 -0.7969 -0.0420  0.4280
 2126TIP3    H127869   2.173   3.105   3.908 -0.6730 -0.6156 -0.9843
 2126TIP3    H227870   2.294   3.094   3.999  0.8742  1.9098 -2.6771
 2127TIP3   OH227871   2.131   4.638  14.941 -0.5283  0.0029 -0.4060
 2127TIP3    H127872   2.103   4.725  14.970 -0.5178  0.5057 -1.8454
 2127TIP3    H227873   2.226   4.645  14.930 -0.1754 -0.9052  1.7987
 2128TIP3   OH227874   4.338   4.560  16.432 -0.3579  0.4376  0.1702
 2128TIP3    H127875   4.315   4.631  16.372  0.0362 -0.5823 -1.2160
 2128TIP3    H227876   4.331   4.480  16.379 -1.8028 -0.6654  1.9811
 2129TIP3   OH227877   4.978   4.133  11.149 -0.0178 -0.0079  0.1906
 2129TIP3    H127878   4.911   4.180  11.100  0.0005  2.1711  2.1652
 2129TIP3    H227879   5.052   4.127  11.088 -0.0993  2.3640 -0.1945
 2130TIP3   OH227880   4.504   1.020  13.874 -0.4245 -0.5653  0.4213
 2130TIP3    H127881   4.508   1.114  13.859  0.0156 -0.6567 -0.0215
 2130TIP3    H227882   4.560   1.005  13.950  0.8118 -0.6894 -0.5113
 2131TIP3   OH227883   6.643   3.131   6.191 -0.7466  0.3505  0.0840
 2131TIP3    H127884   6.715   3.184   6.158 -0.6533 -0.0493 -0.3547
 2131TIP3    H227885   6.609   3.181   6.265 -1.4118  1.5905 -1.0362
 2132TIP3   OH227886   4.074   5.315   1.973  0.0058  0.2115  0.6426
 2132TIP3    H127887   4.096   5.386   1.913 -1.3247 -1.2556 -1.6450
 2132TIP3    H227888   4.052   5.359   2.055 -0.2503  2.3949 -0.5636
 2133TIP3   OH227889   5.999   6.465   1.569  0.5506 -0.2245 -0.2399
 2133TIP3    H127890   5.989   6.438   1.660  2.5300 -0.4696 -0.0851
 2133TIP3    H227891   6.027   6.386   1.523  1.1338  0.2811 -0.7626
 2134TIP3   OH227892   5.656   0.691  16.946 -0.4010 -0.3246  0.0273
 2134TIP3    H127893   5.651   0.616  17.005  0.2217 -0.1262  0.3397
 2134TIP3    H227894   5.692   0.762  17.000 -0.7890  0.1405 -0.3214
 2135TIP3   OH227895   6.420   2.875  12.035  0.2964  0.4088  0.1591
 2135TIP3    H127896   6.393   2.961  12.066  1.3093  0.9939 -0.5691
 2135TIP3    H227897   6.392   2.815  12.104 -2.0963  1.0834 -0.1603
 2136TIP3   OH227898   6.016   3.049  13.538  0.3508  0.8832 -0.1560
 2136TIP3    H127899   6.068   3.061  13.618  0.7249  0.5358 -0.3426
 2136TIP3    H227900   5.978   3.135  13.521  0.2022  0.9384  0.4435
 2137TIP3   OH227901   4.554   6.819  11.328  0.6655  0.0284 -0.3216
 2137TIP3    H127902   4.588   6.738  11.365  1.4149 -1.1892 -3.4854
 2137TIP3    H227903   4.600   6.889  11.375 -0.2578 -1.3232  2.6901
 2138TIP3   OH227904   6.147   3.098  14.895 -0.2798  0.1934 -0.3760
 2138TIP3    H127905   6.116   3.131  14.980  1.5670 -0.6776  0.6602
 2138TIP3    H227906   6.160   3.004  14.910  4.2654  0.7589 -0.3183
 2139TIP3   OH227907   3.420   5.485   0.125  0.3765 -0.3228  0.0625
 2139TIP3    H127908   3.408   5.412   0.186  1.5693  0.3138  1.0977
 2139TIP3    H227909   3.332   5.516   0.107 -0.0601 -1.2114  0.6286
 2140TIP3   OH227910   2.233   3.737   3.242  0.1877 -0.0635  0.2730
 2140TIP3    H127911   2.212   3.830   3.245 -2.5884 -0.5917 -1.1196
 2140TIP3    H227912   2.182   3.703   3.169 -0.4396 -3.0513  1.9899
 2141TIP3   OH227913   5.358   1.910   6.130  0.1808  0.1956 -0.4265
 2141TIP3    H127914   5.322   1.928   6.043 -1.4623 -0.4798  0.0930
 2141TIP3    H227915   5.312   1.971   6.188 -1.8726 -2.2269  0.5927
 2142TIP3   OH227916   1.150   4.847   1.519 -0.6310 -0.2070  0.5041
 2142TIP3    H127917   1.080   4.788   1.546 -1.7608 -0.3193 -2.4935
 2142TIP3    H227918   1.106   4.931   1.505  0.1804  0.2185  0.4985
 2143TIP3   OH227919   5.307   2.859  11.785  0.1570  0.0699 -0.0805
 2143TIP3    H127920   5.312   2.840  11.879  2.3213 -0.9869 -0.3793
 2143TIP3    H227921   5.214   2.852  11.764 -0.3296  0.2117  1.9607
 2144TIP3   OH227922   1.806   4.564   5.240 -0.6143  0.3385  0.3585
 2144TIP3    H127923   1.771   4.652   5.223 -0.3602  0.2811 -0.5016
 2144TIP3    H227924   1.803   4.521   5.154 -0.1336 -0.2763  0.6517
 2145TIP3   OH227925   2.273   0.217  11.273  0.1222  0.2328  0.0860
 2145TIP3    H127926   2.351   0.164  11.257 -1.0404 -1.1087 -1.3695
 2145TIP3    H227927   2.228   0.173  11.345 -1.4799 -1.5783 -1.9319
 2146TIP3   OH227928   2.449   4.089   1.810 -0.5407  0.7799 -0.8937
 2146TIP3    H127929   2.362   4.059   1.786 -0.3772 -0.4650  0.0078
 2146TIP3    H227930   2.500   4.009   1.822  0.6985  1.4954 -1.3171
 2147TIP3   OH227931   0.403   1.542   5.431  0.6451 -0.6449  0.1181
 2147TIP3    H127932   0.384   1.626   5.473 -0.5482  0.1997 -2.0042
 2147TIP3    H227933   0.498   1.532   5.438  0.9555  1.4696 -0.6322
 2148TIP3   OH227934   0.403   2.216  15.906 -0.1272  0.7577 -0.3982
 2148TIP3    H127935   0.333   2.247  15.850  0.1377  2.4197  0.1715
 2148TIP3    H227936   0.483   2.252  15.868  0.3686 -0.5780 -0.6659
 2149TIP3   OH227937   0.281   1.741  15.278 -0.9764  1.2919 -0.2605
 2149TIP3    H127938   0.285   1.645  15.287 -2.3488  1.0592 -1.8333
 2149TIP3    H227939   0.358   1.764  15.227 -0.5658  1.0330  0.2429
 2150TIP3   OH227940   5.558   2.599   4.569  0.6635 -0.4521  0.0625
 2150TIP3    H127941   5.651   2.613   4.583  1.2029 -2.0676 -1.6920
 2150TIP3    H227942   5.538   2.519   4.616 -0.2880  0.8925  2.0189
 2151TIP3   OH227943   2.288   3.312   0.449 -0.5970  0.6336  0.2148
 2151TIP3    H127944   2.304   3.356   0.366  0.9751  0.4896  0.4255
 2151TIP3    H227945   2.248   3.379   0.504 -0.4247  1.1082 -0.2285
 2152TIP3   OH227946   6.456   3.161   1.347  0.6041  0.0140 -0.0885
 2152TIP3    H127947   6.377   3.214   1.360  0.7387  0.3634 -0.7076
 2152TIP3    H227948   6.455   3.100   1.421 -0.2548  0.0044 -0.0953
 2153TIP3   OH227949   0.162   4.326   5.169  0.4021 -0.0493 -0.3371
 2153TIP3    H127950   0.250   4.290   5.182  0.7906  0.7081 -0.8582
 2153TIP3    H227951   0.108   4.249   5.151  1.1489 -0.4235 -1.0073
 2154TIP3   OH227952   0.654   4.629   3.787 -0.3716 -0.2831 -0.3116
 2154TIP3    H127953   0.562   4.609   3.806 -0.5753  1.4276  0.6258
 2154TIP3    H227954   0.678   4.694   3.853  1.3949 -0.3961 -0.8274
 2155TIP3   OH227955   0.828   4.150  13.048 -0.1825 -0.2795  0.8540
 2155TIP3    H127956   0.765   4.128  12.979  1.4081 -1.6890 -0.1951
 2155TIP3    H227957   0.859   4.237  13.025  0.4781 -0.8170 -0.3670
 2156TIP3   OH227958   0.540   1.740   4.123  0.5481  0.0298 -0.0296
 2156TIP3    H127959   0.477   1.712   4.057 -0.7944  2.0813  0.3127
 2156TIP3    H227960   0.489   1.745   4.204  1.5605  0.0253  0.6140
 2157TIP3   OH227961   2.694   5.215   4.014  0.4192 -0.1580 -0.3402
 2157TIP3    H127962   2.728   5.304   4.016 -0.5214  0.2743 -2.2352
 2157TIP3    H227963   2.600   5.225   4.001  0.3285 -1.4230 -0.7969
 2158TIP3   OH227964   0.179   3.029   4.966 -0.1418 -0.0612  0.7907
 2158TIP3    H127965   0.227   2.972   4.907 -2.9689 -1.9012  0.1636
 2158TIP3    H227966   0.170   3.111   4.917  1.3612 -0.0577  0.4898
 2159TIP3   OH227967   6.411   2.219   5.596  0.2300  0.1053  0.4447
 2159TIP3    H127968   6.384   2.217   5.688  2.8287 -1.2866  1.2379
 2159TIP3    H227969   6.429   2.311   5.578 -0.7626  0.4518  1.1782
 2160TIP3   OH227970   5.905   4.280   6.188 -0.6216  0.1991  0.3086
 2160TIP3    H127971   5.892   4.203   6.133 -3.1852  1.1823 -0.5068
 2160TIP3    H227972   5.938   4.348   6.128  1.0070 -0.0318  0.9016
 2161TIP3   OH227973   4.841   3.026  16.589 -0.5395  0.3243 -0.1423
 2161TIP3    H127974   4.797   3.080  16.655 -2.0212 -1.5391  0.4417
 2161TIP3    H227975   4.782   3.030  16.513 -1.6217 -1.9509  0.5446
 2162TIP3   OH227976   0.802   4.152  13.879 -0.2311 -0.4187  0.0506
 2162TIP3    H127977   0.712   4.127  13.900 -0.4505 -1.1345 -1.6479
 2162TIP3    H227978   0.845   4.070  13.856  0.7834 -0.0350  0.5477
 2163TIP3   OH227979   2.359   2.395  13.409 -0.4222 -0.6066  0.0346
 2163TIP3    H127980   2.377   2.310  13.370 -1.1629 -0.6973 -0.1179
 2163TIP3    H227981   2.443   2.423  13.445 -0.3445 -1.7385  0.7453
 2164TIP3   OH227982   1.179   5.778  10.731  0.2917 -0.0277  0.1711
 2164TIP3    H127983   1.166   5.870  10.710 -1.7862 -0.2873  0.1706
 2164TIP3    H227984   1.272   5.762  10.716  0.8998  2.3337  1.3101
 2165TIP3   OH227985   2.224   3.805  16.998  0.0889  0.4788  0.1714
 2165TIP3    H127986   2.274   3.783  17.077 -0.5601 -1.2130  0.1349
 2165TIP3    H227987   2.291   3.816  16.930  0.4400 -2.7694 -0.1081
 2166TIP3   OH227988   3.713   0.975  12.594 -0.5769 -0.1265 -0.2097
 2166TIP3    H127989   3.686   0.915  12.663  2.5939 -4.0090 -2.1199
 2166TIP3    H227990   3.662   0.950  12.517 -0.3064  0.6347 -0.6505
 2167TIP3   OH227991   3.132   2.418  13.699  0.1454 -0.2773 -0.3282
 2167TIP3    H127992   3.209   2.362  13.696  0.1549 -0.4219  1.8495
 2167TIP3    H227993   3.105   2.417  13.790 -1.7287  0.7454 -0.8434
 2168TIP3   OH227994   0.644   3.644   4.125 -0.1906 -0.4679  0.5485
 2168TIP3    H127995   0.734   3.653   4.096 -0.9115  0.8419 -1.3844
 2168TIP3    H227996   0.624   3.727   4.168 -0.7667 -0.3763  0.1098
 2169TIP3   OH227997   2.069   5.554  15.991  0.2983  0.5007 -0.7859
 2169TIP3    H127998   2.138   5.551  15.924  0.0385 -1.9218 -0.9787
 2169TIP3    H227999   1.988   5.551  15.941  0.0896 -0.1479 -0.4029
 2170TIP3   OH228000   2.153   1.731  15.469 -0.0821 -0.4354  0.3079
 2170TIP3    H128001   2.234   1.772  15.499 -0.5446  0.2565  0.6309
 2170TIP3    H228002   2.160   1.640  15.499  0.4201 -0.2963  0.6258
 2171TIP3   OH228003   3.548   6.054  14.324  0.2383  0.0135 -0.1295
 2171TIP3    H128004   3.554   6.147  14.300 -0.3416  0.0391 -0.1881
 2171TIP3    H228005   3.464   6.025  14.287  0.3657 -0.5068 -0.0175
 2172TIP3   OH228006   0.383   6.671   4.648 -0.2449 -0.6442 -0.0538
 2172TIP3    H128007   0.443   6.703   4.580 -1.2590  0.2824 -0.5332
 2172TIP3    H228008   0.440   6.644   4.719  0.8353 -1.4323 -1.1999
 2173TIP3   OH228009   3.442   6.260  15.836  0.7495  0.5750 -0.1176
 2173TIP3    H128010   3.383   6.205  15.784 -1.1679  1.2458  1.2664
 2173TIP3    H228011   3.491   6.198  15.890 -0.1965  0.1029  0.2237
 2174TIP3   OH228012   5.767   6.724  15.549 -0.0123  0.4397  0.2331
 2174TIP3    H128013   5.831   6.703  15.481 -2.1384 -1.1091 -1.3900
 2174TIP3    H228014   5.805   6.689  15.629  1.2882 -0.2259 -0.6529
 2175TIP3   OH228015   6.417   3.685  13.950  0.6708  0.0130  0.0084
 2175TIP3    H128016   6.384   3.769  13.921  2.3075  0.3702 -0.8949
 2175TIP3    H228017   6.489   3.665  13.890 -0.3315 -2.5032 -0.4217
 2176TIP3   OH228018   5.330   3.906  11.911 -0.2770  0.5199  0.3385
 2176TIP3    H128019   5.352   3.933  12.000 -1.4195  2.0248  0.1847
 2176TIP3    H228020   5.259   3.842  11.923  0.3634 -0.1456  0.5660
 2177TIP3   OH228021   4.416   5.782  12.693  0.1069 -0.1538 -0.7177
 2177TIP3    H128022   4.436   5.722  12.765  0.2846 -0.0555 -0.6825
 2177TIP3    H228023   4.424   5.870  12.732  1.1224 -0.0793 -1.0778
 2178TIP3   OH228024   4.676   2.562  15.339 -0.1649  0.1378 -0.4650
 2178TIP3    H128025   4.753   2.614  15.314 -0.6856  1.4381  0.5968
 2178TIP3    H228026   4.650   2.519  15.257 -0.0009  1.9133 -1.4864
 2179TIP3   OH228027   0.445   5.137  14.067 -0.5101 -0.0958  0.1785
 2179TIP3    H128028   0.466   5.216  14.017 -0.7716 -0.1732 -0.0578
 2179TIP3    H228029   0.457   5.065  14.005 -0.6973 -0.2041  0.2652
 2180TIP3   OH228030   2.698   6.804  10.177  0.4401 -0.7843 -0.1261
 2180TIP3    H128031   2.613   6.776  10.142  0.4148 -0.1378 -0.5842
 2180TIP3    H228032   2.731   6.727  10.223 -1.4579 -0.3470  2.0913
 2181TIP3   OH228033   3.226   2.480  16.501 -0.0461 -0.1573  0.3580
 2181TIP3    H128034   3.245   2.518  16.587  1.4738 -2.0528  0.8906
 2181TIP3    H228035   3.190   2.553  16.450  2.4373  1.9051  1.4489
 2182TIP3   OH228036   6.810   5.176   5.540 -0.2314 -0.1292 -0.7384
 2182TIP3    H128037   6.841   5.120   5.612 -0.4976  1.7550  0.8801
 2182TIP3    H228038   6.716   5.162   5.537 -0.3228  0.3765 -0.2099
 2183TIP3   OH228039   1.623   0.034   4.313 -0.2523  0.0457 -0.0147
 2183TIP3    H128040   1.621  -0.057   4.286 -0.6581  0.1493 -0.3386
 2183TIP3    H228041   1.710   0.046   4.351 -0.2383 -0.5017  0.1312
 2184TIP3   OH228042   1.675   4.718  16.976 -0.1603  0.2565  0.1847
 2184TIP3    H128043   1.660   4.630  17.010 -0.0221 -0.3411 -1.2994
 2184TIP3    H228044   1.636   4.775  17.043 -0.4212 -0.9213  1.0661
 2185TIP3   OH228045   2.040   0.848   1.500 -0.4743  0.0138  0.6773
 2185TIP3    H128046   2.103   0.892   1.557 -0.8477 -0.2255  1.2860
 2185TIP3    H228047   2.090   0.777   1.459 -0.3412 -0.1536  1.1289
 2186TIP3   OH228048   0.229   2.406  12.476 -0.3077 -0.0434  0.5117
 2186TIP3    H128049   0.152   2.351  12.488  0.4117 -0.8035  1.7306
 2186TIP3    H228050   0.300   2.345  12.458  0.0747  0.6384 -0.3644
 2187TIP3   OH228051   0.828   3.018  10.962  0.1148 -0.1773  0.1466
 2187TIP3    H128052   0.854   3.060  11.044 -0.6292 -1.0119  0.8048
 2187TIP3    H228053   0.900   3.039  10.901  0.4482  0.8201  0.8719
 2188TIP3   OH228054   5.275   1.863   1.527 -0.5193  0.6671 -0.2050
 2188TIP3    H128055   5.304   1.819   1.447 -0.5709  2.9612 -1.5157
 2188TIP3    H228056   5.184   1.887   1.509  0.0162  2.8066 -0.1979
 2189TIP3   OH228057   4.975   2.100  16.625  0.1651 -0.0084 -0.3807
 2189TIP3    H128058   4.907   2.164  16.602 -1.1610 -1.0496  0.5299
 2189TIP3    H228059   4.930   2.037  16.681  1.7568 -1.0623 -0.2550
 2190TIP3   OH228060   4.969   3.680   1.986  0.1260 -0.0256 -0.1129
 2190TIP3    H128061   5.050   3.641   1.954 -0.5024 -0.0703 -1.7281
 2190TIP3    H228062   4.934   3.616   2.048  0.8094 -0.4759 -0.1910
 2191TIP3   OH228063   2.254   6.066  16.803  0.6398 -0.8444 -0.2394
 2191TIP3    H128064   2.189   5.999  16.782  0.2116  0.2552 -2.5650
 2191TIP3    H228065   2.238   6.086  16.895 -0.3808 -2.6756  0.0134
 2192TIP3   OH228066   5.503   2.594   4.266  0.3581  0.4590 -0.1174
 2192TIP3    H128067   5.519   2.539   4.342  0.7115  0.8769  0.1158
 2192TIP3    H228068   5.468   2.675   4.303 -0.1643  0.3896 -0.4539
 2193TIP3   OH228069   2.470   5.542   5.072  0.7774 -0.0923  0.4504
 2193TIP3    H128070   2.399   5.599   5.101  1.9246  1.0413  1.0792
 2193TIP3    H228071   2.549   5.597   5.078  1.6069 -1.1083 -0.9058
 2194TIP3   OH228072   5.025   2.856  11.236  0.2409  0.1499 -0.2585
 2194TIP3    H128073   4.973   2.841  11.157 -0.7998 -0.3582  0.4985
 2194TIP3    H228074   5.092   2.918  11.210 -1.4794  1.7479 -0.9714
 2195TIP3   OH228075   6.334   3.640  12.768  0.5564 -0.0469 -1.0390
 2195TIP3    H128076   6.312   3.624  12.860  0.0258 -1.3769 -1.3839
 2195TIP3    H228077   6.277   3.711  12.741  1.2446  0.8719 -0.1376
 2196TIP3   OH228078   1.247   2.264  15.949 -0.0250 -0.6149  0.4866
 2196TIP3    H128079   1.241   2.185  15.895 -0.8664 -0.8247  0.8753
 2196TIP3    H228080   1.196   2.330  15.901  0.1778 -0.4801  0.4575
 2197TIP3   OH228081   5.155   2.292  15.088  0.2016 -0.2250  0.5725
 2197TIP3    H128082   5.172   2.261  14.999  2.1960  1.9646  0.1390
 2197TIP3    H228083   5.211   2.238  15.144  0.1174 -0.5463  0.3518
 2198TIP3   OH228084   4.283   3.443  12.746  0.2177  0.3707 -0.6668
 2198TIP3    H128085   4.245   3.385  12.680  0.1363 -0.9971  0.5544
 2198TIP3    H228086   4.210   3.498  12.775 -0.0119  0.1984 -0.9156
 2199TIP3   OH228087   4.956   2.974   2.318  0.2817 -0.0329 -0.1506
 2199TIP3    H128088   4.978   2.881   2.310  1.7606  0.1558  1.4508
 2199TIP3    H228089   5.014   3.017   2.254 -1.6630 -0.3435 -2.1876
 2200TIP3   OH228090   0.269   6.095   4.447 -0.0823  0.0211  0.4326
 2200TIP3    H128091   0.344   6.058   4.493 -0.9159 -0.4209  1.4816
 2200TIP3    H228092   0.206   6.115   4.517 -1.5513 -1.0550 -0.5474
 2201TIP3   OH228093   2.269   0.861  16.358 -0.6370  0.6110 -0.2426
 2201TIP3    H128094   2.238   0.950  16.372  0.3049  1.1391 -1.4124
 2201TIP3    H228095   2.190   0.807  16.365 -1.2870  1.5740  0.0127
 2202TIP3   OH228096   6.095   2.139   5.400 -0.2486 -0.0199 -0.3245
 2202TIP3    H128097   6.039   2.074   5.356 -2.4038  0.8435  1.0273
 2202TIP3    H228098   6.102   2.108   5.490  0.1995  0.6759 -0.1145
 2203TIP3   OH228099   5.876   0.360   0.415  0.1428 -0.2383  0.4490
 2203TIP3    H128100   5.900   0.371   0.323 -1.1317 -1.6900 -0.0696
 2203TIP3    H228101   5.845   0.270   0.422  2.4236 -0.9119  2.8279
 2204TIP3   OH228102   1.929   5.272   0.849  0.6094  0.0246  0.2551
 2204TIP3    H128103   1.967   5.338   0.906  0.0005  1.2467 -0.7334
 2204TIP3    H228104   1.914   5.196   0.906  1.4730  0.6645  1.3521
 2205TIP3   OH228105   3.847   4.648   0.021  0.3942 -0.1579  0.1710
 2205TIP3    H128106   3.843   4.729  -0.030  0.4229 -0.0064  0.4064
 2205TIP3    H228107   3.761   4.608   0.009  0.6923 -0.5536 -0.6882
 2206TIP3   OH228108   4.321   0.289  15.161 -0.4119 -0.1124  0.4195
 2206TIP3    H128109   4.351   0.214  15.111 -0.6702 -0.6875  1.1142
 2206TIP3    H228110   4.395   0.350  15.161 -0.0130 -0.5990  0.3186
 2207TIP3   OH228111   3.989   1.623   3.864 -0.4259  0.0287  0.3451
 2207TIP3    H128112   4.066   1.646   3.812 -0.2023 -0.9964  0.2138
 2207TIP3    H228113   4.007   1.661   3.950  0.0688  0.1009  0.2143
 2208TIP3   OH228114   0.184   6.738   3.023  0.3559 -0.4923  0.2505
 2208TIP3    H128115   0.237   6.704   2.951 -1.5190  0.2976 -1.5538
 2208TIP3    H228116   0.219   6.825   3.040 -0.9498  0.4590 -1.6617
 2209TIP3   OH228117   2.786   6.625   2.065 -0.0453  0.1982  0.3330
 2209TIP3    H128118   2.855   6.561   2.081  0.5867  1.1240  1.4100
 2209TIP3    H228119   2.788   6.639   1.970  0.6794 -0.4012  0.2550
 2210TIP3   OH228120   1.880   4.521   4.033 -0.4092 -0.1869 -0.7175
 2210TIP3    H128121   1.835   4.476   4.105 -0.7495  1.4477  0.1293
 2210TIP3    H228122   1.809   4.551   3.976 -0.2550  0.2030 -0.7052
 2211TIP3   OH228123   0.730   0.220  15.592  0.9172 -0.3627 -0.4551
 2211TIP3    H128124   0.791   0.148  15.576 -0.4850 -1.3272 -1.5903
 2211TIP3    H228125   0.650   0.178  15.620  0.5980  0.8693  0.5175
 2212TIP3   OH228126   3.831   3.963   0.579  0.2610  0.2303 -0.0729
 2212TIP3    H128127   3.890   3.892   0.603 -0.8007 -1.5917 -2.7455
 2212TIP3    H228128   3.889   4.032   0.546  1.0079 -1.0897 -1.5832
 2213TIP3   OH228129   1.253   5.782   0.079 -0.3438  0.1915 -0.1353
 2213TIP3    H128130   1.266   5.874   0.104 -0.9673 -0.1476  1.5356
 2213TIP3    H228131   1.255   5.735   0.162  1.5171 -1.5089 -1.1006
 2214TIP3   OH228132   2.601   0.044  11.752 -0.1953  0.0754  0.3160
 2214TIP3    H128133   2.650   0.126  11.756  0.4556 -0.2999  0.2680
 2214TIP3    H228134   2.649  -0.009  11.688 -0.4732 -0.4227  0.5155
 2215TIP3   OH228135   0.298   3.336  11.430 -0.2257  0.2685  0.4142
 2215TIP3    H128136   0.276   3.260  11.377 -0.2056 -1.0693  2.2708
 2215TIP3    H228137   0.380   3.312  11.475 -0.9687  0.7883  2.1194
 2216TIP3   OH228138   3.851   4.845  14.838  0.6797 -0.8265  0.2216
 2216TIP3    H128139   3.938   4.879  14.859  0.4913 -1.7375  2.5666
 2216TIP3    H228140   3.792   4.917  14.858  0.7558 -0.7374  0.1249
 2217TIP3   OH228141   0.548   5.966   2.286 -0.0617 -0.4471  0.2912
 2217TIP3    H128142   0.459   5.970   2.251  0.2110  0.9150 -0.2544
 2217TIP3    H228143   0.570   6.056   2.307  1.9812 -0.4666 -1.5939
 2218TIP3   OH228144   1.921   4.085  13.812  0.0970 -0.5430  0.1259
 2218TIP3    H128145   1.926   4.152  13.745 -0.4398 -0.1411  0.4888
 2218TIP3    H228146   1.856   4.023  13.779 -1.7231  0.7337  1.2287
 2219TIP3   OH228147   2.682   6.639  13.912  0.1871 -0.2094 -0.2535
 2219TIP3    H128148   2.614   6.705  13.927  1.1312  0.6573  0.3044
 2219TIP3    H228149   2.763   6.690  13.906  0.7106 -1.1869 -1.4948
 2220TIP3   OH228150   4.407   0.175   3.003 -0.5376  0.8226  0.4102
 2220TIP3    H128151   4.461   0.105   3.041 -1.4163  0.8716  1.7687
 2220TIP3    H228152   4.403   0.242   3.071  1.2908  2.7556 -1.3383
 2221TIP3   OH228153   4.556   6.183  13.728 -0.0597 -0.1232  0.4071
 2221TIP3    H128154   4.565   6.140  13.643 -0.3356 -0.0255  0.3262
 2221TIP3    H228155   4.531   6.113  13.789  0.1174 -0.1897  0.4005
 2222TIP3   OH228156   4.889   0.362  16.181 -0.3767 -0.3187  0.5760
 2222TIP3    H128157   4.885   0.437  16.239 -0.6040  0.5427 -0.5393
 2222TIP3    H228158   4.804   0.360  16.137  0.2791 -0.1297 -0.7402
 2223TIP3   OH228159   4.115   1.359  16.841  0.3646  0.2161 -0.1992
 2223TIP3    H128160   4.169   1.310  16.778 -0.0598 -0.4921 -0.0176
 2223TIP3    H228161   4.072   1.426  16.788 -1.4788 -1.5728 -1.0452
 2224TIP3   OH228162   3.226   6.340   3.048  0.0867 -0.4199 -0.5192
 2224TIP3    H128163   3.226   6.377   2.959 -4.8053  1.8229  0.2125
 2224TIP3    H228164   3.157   6.274   3.045 -0.4102 -0.0182  1.6951
 2225TIP3   OH228165   0.451   2.955  16.276  0.0268 -0.3569  0.0630
 2225TIP3    H128166   0.496   3.036  16.297  0.2279  0.2495 -2.4918
 2225TIP3    H228167   0.517   2.887  16.289  0.6413  0.1664 -0.2722
 2226TIP3   OH228168   3.236   1.007   5.658 -0.1822 -0.3045 -0.1113
 2226TIP3    H128169   3.314   0.956   5.679 -0.1979  0.3082  1.4853
 2226TIP3    H228170   3.268   1.078   5.602  0.5487  0.3319  1.0795
 2227TIP3   OH228171   1.366   1.175   2.123 -0.1744  0.4686  0.5024
 2227TIP3    H128172   1.448   1.177   2.173 -0.3592 -1.7121  0.9113
 2227TIP3    H228173   1.394   1.161   2.033 -0.0909  0.0954  0.5881
 2228TIP3   OH228174   2.783   5.484   2.113 -0.6946  0.0567  0.0451
 2228TIP3    H128175   2.870   5.472   2.152 -0.4340  1.6637  0.0116
 2228TIP3    H228176   2.731   5.526   2.182 -1.4205 -0.7570  0.0108
 2229TIP3   OH228177   3.860   2.068   5.229  0.6961 -0.0291 -0.7275
 2229TIP3    H128178   3.787   2.026   5.273 -0.6117  2.5527 -0.3344
 2229TIP3    H228179   3.861   2.157   5.264  4.4382 -0.1925 -0.2318
 2230TIP3   OH228180   2.531   4.118  13.107 -0.1732  0.5060 -0.2384
 2230TIP3    H128181   2.556   4.109  13.015 -1.6115 -0.4420 -0.5609
 2230TIP3    H228182   2.547   4.210  13.127  0.5837  0.6229 -1.3055
 2231TIP3   OH228183   3.980   1.485   3.588  0.6939 -0.2643  0.4154
 2231TIP3    H128184   3.906   1.447   3.636 -0.8765  0.8686 -1.0480
 2231TIP3    H228185   4.042   1.509   3.656  0.2271 -2.2470  1.6116
 2232TIP3   OH228186   5.235   1.022  15.675  0.2905 -0.4295 -0.1634
 2232TIP3    H128187   5.167   1.054  15.615  0.0016 -0.9204 -0.1033
 2232TIP3    H228188   5.203   0.937  15.704 -0.7352  0.8024  2.5448
 2233TIP3   OH228189   4.176   4.468  10.921  0.0714 -0.0753  0.3611
 2233TIP3    H128190   4.086   4.497  10.905 -0.8397 -2.7473  0.2830
 2233TIP3    H228191   4.229   4.548  10.917 -2.3690  1.6214  1.0409
 2234TIP3   OH228192   2.663   1.651  12.459  0.5675  0.0221 -0.0175
 2234TIP3    H128193   2.715   1.656  12.379  1.4059 -0.3938  0.4889
 2234TIP3    H228194   2.626   1.562  12.458  1.7391 -0.4889  0.7501
 2235TIP3   OH228195   3.755   3.157   5.450  0.2187 -0.4831 -0.1287
 2235TIP3    H128196   3.763   3.066   5.421 -0.1987 -1.2576  2.0528
 2235TIP3    H228197   3.725   3.150   5.541 -1.1923  1.8641 -0.3837
 2236TIP3   OH228198   5.348   1.216  10.862  0.2469  0.6776  0.3611
 2236TIP3    H128199   5.346   1.168  10.779 -1.4297  0.8059  0.3125
 2236TIP3    H228200   5.271   1.186  10.909  0.7232  1.2488  1.5190
 2237TIP3   OH228201   0.008   0.871   3.621 -0.2775  0.1429  0.0203
 2237TIP3    H128202  -0.082   0.899   3.635 -0.6154  0.0229 -1.7929
 2237TIP3    H228203   0.004   0.815   3.544  1.1816 -0.7947  0.6052
 2238TIP3   OH228204   6.698   5.632  13.844  0.7564  0.3549  0.6407
 2238TIP3    H128205   6.744   5.624  13.760  0.5785  0.3709  0.5406
 2238TIP3    H228206   6.726   5.556  13.894 -0.7100 -0.7753 -0.1966
 2239TIP3   OH228207   4.488   1.980   2.486 -0.1981  0.2640 -0.2170
 2239TIP3    H128208   4.497   2.040   2.560 -0.1954  1.6432 -1.3159
 2239TIP3    H228209   4.459   2.035   2.414  1.9270 -0.6485 -1.8212
 2240TIP3   OH228210   0.885   1.486  15.096  0.5842 -0.1047 -0.1448
 2240TIP3    H128211   0.901   1.505  15.189  1.5968 -0.2797 -0.2788
 2240TIP3    H228212   0.840   1.402  15.096 -2.1841  1.3319  0.3513
 2241TIP3   OH228213   1.283   1.982   2.164 -0.0316 -0.0350 -0.2449
 2241TIP3    H128214   1.228   1.939   2.230  3.7314 -0.0868  3.0181
 2241TIP3    H228215   1.277   1.925   2.087 -3.1447 -0.9051  0.5480
 2242TIP3   OH228216   0.346   0.675   2.118  0.3734 -0.2767 -0.1638
 2242TIP3    H128217   0.311   0.604   2.172 -0.4113  0.2620  0.0626
 2242TIP3    H228218   0.398   0.728   2.179  0.5797 -0.4112 -0.2265
 2243TIP3   OH228219   4.299   2.316   3.193  0.6491  0.1994 -0.3740
 2243TIP3    H128220   4.219   2.270   3.219 -0.0769  1.2709 -0.6919
 2243TIP3    H228221   4.343   2.255   3.134  0.9974 -1.1644  1.2290
 2244TIP3   OH228222   5.803   0.765   5.867 -0.2991  0.3974 -0.5224
 2244TIP3    H128223   5.756   0.846   5.846 -2.0688  0.0105  1.6785
 2244TIP3    H228224   5.884   0.795   5.908 -0.6363  1.0923 -0.3401
 2245TIP3   OH228225   4.072   6.526   2.269 -0.8326  0.0204 -0.4021
 2245TIP3    H128226   4.076   6.579   2.189 -0.8115 -0.2639 -0.5884
 2245TIP3    H228227   4.061   6.590   2.339  1.2809  0.4411 -0.4202
 2246TIP3   OH228228   2.768   2.851  14.773  0.0847  0.0376  0.2643
 2246TIP3    H128229   2.839   2.793  14.798  0.5955  1.0778  1.3046
 2246TIP3    H228230   2.810   2.935  14.756 -0.9262  0.7691  1.2615
 2247TIP3   OH228231   2.150   0.137   3.038  0.1254  0.3905 -0.1077
 2247TIP3    H128232   2.201   0.149   2.958  1.3379  1.5849  0.8135
 2247TIP3    H228233   2.133   0.226   3.069 -0.6688 -0.0511  0.7457
 2248TIP3   OH228234   2.869   4.571   3.145  0.3723  0.4077 -0.6016
 2248TIP3    H128235   2.918   4.492   3.170  0.4872  0.4004 -0.8494
 2248TIP3    H228236   2.825   4.547   3.063  2.1770  1.3064 -1.8715
 2249TIP3   OH228237   0.408   4.202  16.572  0.1143  0.0663 -0.1252
 2249TIP3    H128238   0.433   4.225  16.482 -0.5468  1.2412 -0.0266
 2249TIP3    H228239   0.466   4.130  16.596 -0.0072 -0.5499 -1.6575
 2250TIP3   OH228240   3.646   5.004  17.282  0.6612  0.1634  0.0820
 2250TIP3    H128241   3.689   4.924  17.251 -0.2468 -0.4728  0.4497
 2250TIP3    H228242   3.578   5.021  17.217 -0.2558 -0.3242  0.9119
 2251TIP3   OH228243   3.427   6.676   5.808 -0.0313  0.1147 -0.5039
 2251TIP3    H128244   3.455   6.710   5.893 -2.2016  2.5570 -0.7204
 2251TIP3    H228245   3.452   6.583   5.810  2.7530  0.8500  1.5381
 2252TIP3   OH228246   6.623   0.885   5.148 -0.0501  0.0554 -0.0800
 2252TIP3    H128247   6.611   0.874   5.242 -1.8499 -0.0132 -0.3106
 2252TIP3    H228248   6.679   0.963   5.140  1.6569 -1.0049  1.0773
 2253TIP3   OH228249   1.438   0.870   3.730  0.5381  0.3197 -0.3934
 2253TIP3    H128250   1.405   0.796   3.679 -1.7064  2.6985 -2.5233
 2253TIP3    H228251   1.499   0.915   3.671  0.4275  1.2606  0.1880
 2254TIP3   OH228252   3.892   1.347  16.379  0.3196  0.2216 -0.1878
 2254TIP3    H128253   3.825   1.352  16.448 -0.1633 -1.5058 -0.5123
 2254TIP3    H228254   3.972   1.377  16.421 -0.0893 -0.3049  0.9784
 2255TIP3   OH228255   2.337   0.433   0.586 -1.2156  0.2271 -0.1490
 2255TIP3    H128256   2.263   0.434   0.526 -1.8216  1.1537  0.5894
 2255TIP3    H228257   2.356   0.526   0.600  1.0334  0.0063 -1.4820
 2256TIP3   OH228258   4.414   4.318  16.306  0.0334 -0.2196  0.2444
 2256TIP3    H128259   4.458   4.238  16.334 -1.3748 -1.2228 -0.2942
 2256TIP3    H228260   4.391   4.301  16.214 -0.1637  0.8565  0.0886
 2257TIP3   OH228261   3.489   3.204  12.703  0.1511 -0.5642 -0.5754
 2257TIP3    H128262   3.559   3.231  12.763  0.4300  2.4952 -2.1708
 2257TIP3    H228263   3.535   3.166  12.628 -0.1852 -4.0536  0.8929
 2258TIP3   OH228264   6.457   1.002  11.204 -0.2347  0.3086  0.4565
 2258TIP3    H128265   6.485   0.966  11.120 -1.8811  1.0957 -0.4637
 2258TIP3    H228266   6.518   1.074  11.221 -0.5182  0.7990 -0.5752
 2259TIP3   OH228267   4.018   6.594  13.139  0.1320 -0.0505  0.0226
 2259TIP3    H128268   3.930   6.627  13.118  0.4478  0.8994  0.1690
 2259TIP3    H228269   4.017   6.579  13.233  0.4043  0.8010  0.1600
 2260TIP3   OH228270   6.135   4.170  13.321  0.0182 -0.0461  0.3961
 2260TIP3    H128271   6.048   4.194  13.353  0.7889  0.9500  1.7806
 2260TIP3    H228272   6.120   4.095  13.264 -1.3808 -1.8423  3.0597
 2261TIP3   OH228273   0.150   0.814  12.651 -0.0383  0.0595 -0.1429
 2261TIP3    H128274   0.204   0.821  12.730  1.5932  1.5984 -1.3560
 2261TIP3    H228275   0.190   0.744  12.600 -0.3980 -0.1500 -0.1392
 2262TIP3   OH228276   2.724   0.916   1.462 -0.0001 -0.5606  0.2777
 2262TIP3    H128277   2.707   0.954   1.548 -1.5968 -1.6559  0.4646
 2262TIP3    H228278   2.643   0.930   1.413  0.6243 -0.6410 -0.8005
 2263TIP3   OH228279   5.784   4.963  14.152 -0.2743  0.3987  0.8345
 2263TIP3    H128280   5.749   5.013  14.078  0.6767  1.1625  0.8755
 2263TIP3    H228281   5.863   4.921  14.117 -0.5997 -0.3936  1.0371
 2264TIP3   OH228282   2.512   3.045  14.793  0.4669 -0.4684 -0.5147
 2264TIP3    H128283   2.579   2.997  14.745  0.9604 -0.6776  0.3843
 2264TIP3    H228284   2.474   2.981  14.853 -0.3056 -0.2657 -0.7808
 2265TIP3   OH228285   0.724   4.739  14.815  0.0531 -0.5659  0.2311
 2265TIP3    H128286   0.640   4.741  14.769 -0.3350 -0.3674  0.9425
 2265TIP3    H228287   0.785   4.782  14.755 -0.4307 -0.3712 -0.1293
 2266TIP3   OH228288   1.371   5.376   0.759 -0.0420  0.3890 -0.3671
 2266TIP3    H128289   1.317   5.315   0.709 -0.0043  0.0549 -0.0027
 2266TIP3    H228290   1.455   5.376   0.715 -0.2927  0.7955 -0.8481
 2267TIP3   OH228291   4.294   4.423   4.050  0.3337  0.0129 -0.6332
 2267TIP3    H128292   4.381   4.422   4.010 -0.1150 -0.5941 -1.6332
 2267TIP3    H228293   4.234   4.433   3.976 -0.4754 -0.2334 -0.0254
 2268TIP3   OH228294   6.324   1.961   2.608  0.1403 -0.0197 -0.1374
 2268TIP3    H128295   6.355   2.051   2.620 -1.3388  0.4312  0.3098
 2268TIP3    H228296   6.328   1.922   2.695 -1.9989  0.5047  0.2004
 2269TIP3   OH228297   6.041   3.259   0.235  0.6732 -0.5795 -0.4733
 2269TIP3    H128298   6.036   3.279   0.328 -0.2831 -1.5730 -0.2991
 2269TIP3    H228299   6.123   3.210   0.225  0.2921 -1.3333  0.0254
 2270TIP3   OH228300   0.942   5.550  16.042  0.0422 -0.2332 -0.5688
 2270TIP3    H128301   0.856   5.585  16.066  0.1324 -1.0409  0.9900
 2270TIP3    H228302   0.926   5.458  16.021  0.3560 -0.1253 -1.2964
 2271TIP3   OH228303   6.784   3.949   3.683  0.1961  0.4227  0.4267
 2271TIP3    H128304   6.767   4.034   3.643 -0.0350  1.0507  1.8404
 2271TIP3    H228305   6.762   3.886   3.614  1.4000  1.5130 -0.9992
 2272TIP3   OH228306   0.014   6.317  14.318  0.1953  0.0795 -0.4298
 2272TIP3    H128307   0.008   6.383  14.249  0.8536  1.4703  0.8215
 2272TIP3    H228308  -0.061   6.259  14.302 -1.1630  1.8803 -0.7855
 2273TIP3   OH228309   5.575   4.190   5.271 -0.2441  0.3822 -0.5510
 2273TIP3    H128310   5.667   4.209   5.251  0.4296 -1.9311  0.2303
 2273TIP3    H228311   5.526   4.230   5.199  1.3137  2.1525 -0.6654
 2274TIP3   OH228312   4.485   4.553  13.135  0.0264  0.3625  0.4236
 2274TIP3    H128313   4.437   4.471  13.126 -1.0540  0.7387  2.4122
 2274TIP3    H228314   4.480   4.594  13.049 -2.8654  0.1748  0.4482
 2275TIP3   OH228315   4.520   6.563  16.667  0.1187  0.0671  0.1477
 2275TIP3    H128316   4.584   6.605  16.609  0.5199  1.1414  1.3572
 2275TIP3    H228317   4.437   6.572  16.621  0.5749  0.1024 -0.6782
 2276TIP3   OH228318   5.318   4.668  17.085  0.0439  0.0451  0.6824
 2276TIP3    H128319   5.338   4.752  17.126  0.4317  0.0388  0.5114
 2276TIP3    H228320   5.372   4.667  17.006  0.8992 -0.8414  1.2600
 2277TIP3   OH228321   5.175   3.120   2.163  0.3182 -0.0999  0.5526
 2277TIP3    H128322   5.130   3.081   2.088  1.0164 -0.3596  0.2630
 2277TIP3    H228323   5.155   3.214   2.157 -0.7732 -0.3136  0.8403
 2278TIP3   OH228324   0.400   1.867  15.487 -0.1498  0.3314  0.4450
 2278TIP3    H128325   0.342   1.935  15.520  0.5195  1.5327 -0.8307
 2278TIP3    H228326   0.346   1.819  15.424  0.5667  2.2057 -1.6491
 2279TIP3   OH228327   4.384   1.260   1.208  0.2210  0.0547  0.1916
 2279TIP3    H128328   4.307   1.211   1.235  0.0106 -0.0615 -0.5829
 2279TIP3    H228329   4.451   1.239   1.273  0.1457 -1.2927 -0.1431
 2280TIP3   OH228330   4.000   4.627   0.490  0.2020 -0.9194 -0.0499
 2280TIP3    H128331   3.970   4.537   0.504  0.1693 -0.8213  0.5139
 2280TIP3    H228332   4.020   4.631   0.396 -1.4637 -1.0092 -0.4311
 2281TIP3   OH228333   3.087   3.006  15.363  0.2618  0.7223 -0.1417
 2281TIP3    H128334   3.029   2.963  15.426  1.0493  0.4228  0.3905
 2281TIP3    H228335   3.088   3.098  15.392  0.1497  0.7025 -0.0730
 2282TIP3   OH228336   5.693   3.101  12.668  0.2722 -0.5108  0.1625
 2282TIP3    H128337   5.780   3.082  12.635 -0.6292 -3.0251 -0.8651
 2282TIP3    H228338   5.686   3.052  12.750 -0.2379 -0.4481  0.1616
 2283TIP3   OH228339   1.477   6.565   1.470 -0.2572 -0.1081 -0.4267
 2283TIP3    H128340   1.480   6.501   1.398  2.2124 -0.7016  0.1813
 2283TIP3    H228341   1.446   6.646   1.428  0.6239 -0.5850 -2.0581
 2284TIP3   OH228342   4.012   5.983   5.112 -0.0082  0.4003 -0.2590
 2284TIP3    H128343   3.970   5.897   5.109  0.9194 -0.1018  0.7661
 2284TIP3    H228344   4.051   5.988   5.200 -1.5178  2.5739  0.3153
 2285TIP3   OH228345   6.299   1.644   0.459  1.0200  0.5345  0.4599
 2285TIP3    H128346   6.296   1.709   0.529  1.8620  0.5869  0.4481
 2285TIP3    H228347   6.389   1.647   0.427  0.9455 -0.3225  0.1566
 2286TIP3   OH228348   4.968   4.429  12.959 -0.5318  0.0067  0.1723
 2286TIP3    H128349   4.880   4.417  12.992 -0.5988  0.5601  0.1925
 2286TIP3    H228350   4.989   4.345  12.917 -0.9625 -0.2160  0.3953
 2287TIP3   OH228351   4.569   4.358   2.288 -0.2271 -0.1106  0.6417
 2287TIP3    H128352   4.632   4.347   2.216 -1.4359 -2.4324 -0.1316
 2287TIP3    H228353   4.486   4.326   2.252 -1.5471  1.5730  2.1105
 2288TIP3   OH228354   4.551   6.300  14.102 -0.2613  0.1495 -0.5183
 2288TIP3    H128355   4.526   6.386  14.136 -1.3804 -1.2030  2.2236
 2288TIP3    H228356   4.480   6.242  14.130  1.9475 -2.2320  0.2685
 2289TIP3   OH228357   0.586   6.774   1.891 -0.3612 -0.3587  0.2387
 2289TIP3    H128358   0.678   6.748   1.898 -0.3758 -0.5483 -0.2999
 2289TIP3    H228359   0.570   6.781   1.797 -0.3479  1.6604  0.3647
 2290TIP3   OH228360   0.313   6.070  17.066  0.2212  0.5990  0.2948
 2290TIP3    H128361   0.281   6.015  16.994  0.2618  2.5660 -1.2743
 2290TIP3    H228362   0.272   6.033  17.144  0.1789 -1.6001 -0.7120
 2291TIP3   OH228363   6.569   2.409   2.268  0.2405  0.5449 -0.0175
 2291TIP3    H128364   6.517   2.486   2.291 -0.2790  0.6897 -1.6062
 2291TIP3    H228365   6.547   2.392   2.176  1.2694 -0.7705 -0.0329
 2292TIP3   OH228366   0.954   0.913   5.585 -0.3245  0.0498  0.5973
 2292TIP3    H128367   0.924   1.004   5.582  1.3439  0.6134  0.7009
 2292TIP3    H228368   0.893   0.869   5.645 -2.6288  0.5152 -1.3048
 2293TIP3   OH228369   5.332   3.833   5.459  0.0725  0.3510  0.5115
 2293TIP3    H128370   5.395   3.891   5.417  0.5971 -1.0461 -0.7129
 2293TIP3    H228371   5.251   3.884   5.463  0.7235  1.4326  0.1833
 2294TIP3   OH228372   3.958   5.724  14.325 -0.4877  0.3100  0.6109
 2294TIP3    H128373   3.962   5.669  14.403 -0.1601  0.0303  0.3969
 2294TIP3    H228374   3.903   5.675  14.263 -0.8626  0.5962  0.7191
 2295TIP3   OH228375   5.908   1.116   0.436  0.6887 -0.1457  0.5174
 2295TIP3    H128376   5.858   1.110   0.355 -0.2546  2.8142  0.8514
 2295TIP3    H228377   5.892   1.032   0.480 -3.1381  0.2867  0.1063
 2296TIP3   OH228378   4.958   4.804   1.872  0.3211 -0.6876  0.2773
 2296TIP3    H128379   4.863   4.816   1.878  0.2315 -0.9307 -0.5742
 2296TIP3    H228380   4.991   4.827   1.959 -0.0975  3.2088 -0.5255
 2297TIP3   OH228381   1.463   3.802  14.014  0.0330 -0.9604  0.4198
 2297TIP3    H128382   1.456   3.785  14.108 -2.8931  2.4310  0.9185
 2297TIP3    H228383   1.504   3.888  14.008  2.5463 -2.2300 -1.5396
 2298TIP3   OH228384   6.785   2.694   5.870  0.5376 -0.3150 -0.1299
 2298TIP3    H128385   6.808   2.728   5.783 -2.8335  0.0786 -0.9390
 2298TIP3    H228386   6.732   2.763   5.910 -1.1700 -2.0648  0.6917
 2299TIP3   OH228387   3.013   2.150   4.603 -0.0875  0.1227 -0.7260
 2299TIP3    H128388   2.960   2.230   4.612 -0.8741 -0.5365  0.6584
 2299TIP3    H228389   2.969   2.100   4.534 -0.7133  0.0291 -0.2689
 2300TIP3   OH228390   1.698   4.647  15.147  0.3889 -0.0822 -0.7099
 2300TIP3    H128391   1.769   4.710  15.131  1.3752 -0.7895  0.7667
 2300TIP3    H228392   1.737   4.580  15.203 -1.5124 -0.3743  0.3100
 2301TIP3   OH228393   4.212   3.153   4.323  0.4929 -0.0370  0.1796
 2301TIP3    H128394   4.140   3.187   4.270  1.7013  2.6187  0.2027
 2301TIP3    H228395   4.197   3.058   4.324 -1.8390  0.2577 -1.5048
 2302TIP3   OH228396   1.233   0.883  17.117  0.2050  0.3329  0.4064
 2302TIP3    H128397   1.179   0.954  17.083 -1.4181 -1.9944 -2.0121
 2302TIP3    H228398   1.316   0.926  17.139  0.0356  2.6692 -3.0114
 2303TIP3   OH228399   4.150   6.310   1.678  0.3624 -0.2252 -0.5336
 2303TIP3    H128400   4.184   6.221   1.675 -1.0092 -0.7407 -1.5305
 2303TIP3    H228401   4.228   6.366   1.675  1.2424 -1.3831  0.5011
 2304TIP3   OH228402   2.369   3.021  15.256  0.0361 -0.9577  0.0132
 2304TIP3    H128403   2.429   2.952  15.229  1.5402  0.0388  0.7667
 2304TIP3    H228404   2.425   3.096  15.275 -1.3279 -0.3615  1.8280
 2305TIP3   OH228405   5.887   1.034   2.402  0.7410  0.2160  0.5053
 2305TIP3    H128406   5.815   0.973   2.415  1.9305 -0.9862  1.6596
 2305TIP3    H228407   5.855   1.117   2.438 -0.6425  0.1120 -0.4731
 2306TIP3   OH228408   6.098   6.514  12.856 -0.2075  0.2068  0.2888
 2306TIP3    H128409   6.109   6.447  12.923  0.0053  1.3399  1.4005
 2306TIP3    H228410   6.045   6.582  12.898 -0.5066  0.6978 -0.8555
 2307TIP3   OH228411   5.179   3.922  12.976 -0.2480  0.0908  0.2544
 2307TIP3    H128412   5.217   3.842  12.940  0.1868 -0.7940  2.5593
 2307TIP3    H228413   5.254   3.976  13.000 -0.4750  0.0444  1.1196
 2308TIP3   OH228414   1.609   6.650   3.658  0.1739 -0.1337 -0.1658
 2308TIP3    H128415   1.600   6.568   3.609  0.3301 -1.1840  1.4945
 2308TIP3    H228416   1.685   6.693   3.620 -0.9883  0.1193 -2.2514
 2309TIP3   OH228417   3.115   0.677   1.954 -0.5823  0.8502  0.4418
 2309TIP3    H128418   3.071   0.736   2.015 -0.5045  1.2732  0.0936
 2309TIP3    H228419   3.208   0.696   1.965 -0.1888 -2.5349  3.7547
 2310TIP3   OH228420   0.825   0.845  16.994 -0.0226  0.6468  0.2085
 2310TIP3    H128421   0.903   0.844  16.938  0.0861  2.0640  0.3014
 2310TIP3    H228422   0.789   0.933  16.982 -0.8343  0.4563  1.2161
 2311TIP3   OH228423   2.708   2.141  15.345  0.4832  0.4203  0.4765
 2311TIP3    H128424   2.731   2.095  15.265  1.1955  2.3166 -0.4468
 2311TIP3    H228425   2.613   2.145  15.344  0.4757  0.1310 -0.1150
 2312TIP3   OH228426   4.950   1.876   1.550  0.4633  0.6717  0.2102
 2312TIP3    H128427   4.967   1.788   1.516  0.3353  0.6415  0.2251
 2312TIP3    H228428   4.898   1.862   1.629 -0.0712  0.7893 -0.1166
 2313TIP3   OH228429   0.811   1.855   3.482 -0.3197  0.0715  0.1588
 2313TIP3    H128430   0.788   1.933   3.431 -2.5050 -0.7136 -0.0979
 2313TIP3    H228431   0.903   1.868   3.505  0.0504  1.5555 -1.9773
 2314TIP3   OH228432   0.584   1.037   1.242 -0.4647 -0.0541  0.5264
 2314TIP3    H128433   0.636   1.020   1.164 -0.4618  3.1938 -0.2782
 2314TIP3    H228434   0.648   1.048   1.312 -0.1791  1.0661  0.1146
 2315TIP3   OH228435   2.431   0.889  16.986 -0.4686  0.2630  0.0410
 2315TIP3    H128436   2.422   0.905  17.080 -0.6662 -0.5341  0.1629
 2315TIP3    H228437   2.438   0.976  16.947 -2.7628  0.6850  0.5482
 2316TIP3   OH228438   3.557   6.132  16.479 -0.3011  0.5015 -0.0741
 2316TIP3    H128439   3.581   6.051  16.435 -1.0862  0.2805 -0.0893
 2316TIP3    H228440   3.508   6.182  16.414  0.1135  0.9534 -0.0392
 2317TIP3   OH228441   2.105   0.854   0.244 -0.3509 -0.3014 -0.2190
 2317TIP3    H128442   2.114   0.817   0.156 -0.5232 -1.8204  0.3777
 2317TIP3    H228443   2.038   0.799   0.285  1.4417 -1.1345  1.6575
 2318TIP3   OH228444   0.345   0.456   2.285  0.0983 -0.3371 -0.1857
 2318TIP3    H128445   0.336   0.384   2.222  1.8782 -0.1818 -0.6302
 2318TIP3    H228446   0.439   0.471   2.291 -0.1971  1.2062  0.7691
 2319TIP3   OH228447   4.706   5.668   2.093  0.3014  0.3741  0.0961
 2319TIP3    H128448   4.712   5.726   2.169 -2.1774  0.4392  0.2582
 2319TIP3    H228449   4.765   5.596   2.113 -1.8591 -0.6424  3.0113
 2320TIP3   OH228450   0.120   1.942  13.492  0.2187 -0.1872  0.3569
 2320TIP3    H128451   0.038   1.954  13.444  0.8040  1.6581 -0.2327
 2320TIP3    H228452   0.188   1.948  13.424  0.9635  0.8483  1.1664
 2321TIP3   OH228453   2.251   4.449  12.032 -0.1241  0.4339 -0.2298
 2321TIP3    H128454   2.321   4.503  11.997 -1.7791  1.2739 -2.3519
 2321TIP3    H228455   2.208   4.412  11.954 -2.7093  0.8226  0.9414
 2322TIP3   OH228456   1.613   4.049   5.399  0.5219 -0.4702 -0.1677
 2322TIP3    H128457   1.612   3.985   5.470  0.8421 -0.8697 -0.5220
 2322TIP3    H228458   1.642   4.131   5.440  1.7235 -0.9444 -0.0521
 2323TIP3   OH228459   5.463   0.746  12.701  0.2162  0.0986 -0.0207
 2323TIP3    H128460   5.379   0.735  12.744 -0.0267  0.8492 -0.2878
 2323TIP3    H228461   5.487   0.659  12.671  0.5483 -0.4905  1.9002
 2324TIP3   OH228462   2.080   2.079  16.941 -0.3931  0.1095 -0.0473
 2324TIP3    H128463   2.046   2.002  16.895 -0.7058 -0.0253  0.4076
 2324TIP3    H228464   2.151   2.045  16.996  1.5720  0.6259 -2.1628
 2325TIP3   OH228465   4.945   0.045   2.863 -0.4041  0.4067 -0.2367
 2325TIP3    H128466   4.952   0.026   2.956 -1.6915 -1.8264 -0.5660
 2325TIP3    H228467   5.018  -0.001   2.822 -0.9281 -0.1544 -0.5420
 2326TIP3   OH228468   0.452   6.482   2.419 -0.7242  0.0300  0.4851
 2326TIP3    H128469   0.388   6.448   2.482  0.5350 -3.1384  0.1691
 2326TIP3    H228470   0.528   6.505   2.472 -0.4457 -0.5907  0.3533
 2327TIP3   OH228471   5.598   0.630   3.749  0.0099 -0.0968  0.5157
 2327TIP3    H128472   5.550   0.577   3.687 -0.5882  3.2388 -2.0242
 2327TIP3    H228473   5.556   0.614   3.833 -2.4891 -0.7795 -0.8391
 2328TIP3   OH228474   3.201   5.421  14.665 -0.3441  0.0996  0.0345
 2328TIP3    H128475   3.255   5.361  14.612  0.3810  0.1314  0.7381
 2328TIP3    H228476   3.120   5.372  14.680 -0.4976  0.0256 -0.9686
 2329TIP3   OH228477   6.337   4.478  11.635 -0.8091 -0.0499 -0.5212
 2329TIP3    H128478   6.243   4.491  11.648 -0.8253 -0.4530 -0.2173
 2329TIP3    H228479   6.373   4.566  11.628 -1.0946  0.1214  0.1628
 2330TIP3   OH228480   1.144   2.802   0.621 -0.6337  0.2262 -0.1881
 2330TIP3    H128481   1.096   2.768   0.545  1.5893 -0.3589 -1.3714
 2330TIP3    H228482   1.232   2.766   0.611  0.1966  1.7207  1.6553
 2331TIP3   OH228483   4.296   2.150   3.554  0.1357  0.0878  0.1275
 2331TIP3    H128484   4.349   2.075   3.583 -0.5119  0.0450  1.2738
 2331TIP3    H228485   4.337   2.226   3.595 -0.0492  0.1796  0.1456
 2332TIP3   OH228486   5.403   2.991  14.642 -0.4764 -0.1398  0.1075
 2332TIP3    H128487   5.433   3.035  14.562 -0.9400 -0.1390 -0.0646
 2332TIP3    H228488   5.375   3.062  14.700  2.7700  0.0979  1.4947
 2333TIP3   OH228489   6.411   1.075   5.098 -0.1944 -0.6049  0.6966
 2333TIP3    H128490   6.377   1.116   5.177  0.0293  0.0650  0.4511
 2333TIP3    H228491   6.487   1.025   5.127 -0.8073 -1.3179  1.0889
 2334TIP3   OH228492   0.762   6.252   2.129  0.0397  0.1258  0.3160
 2334TIP3    H128493   0.767   6.335   2.081  0.0371  0.0576  0.1967
 2334TIP3    H228494   0.670   6.227   2.124  0.3859 -0.8865 -1.3722
 2335TIP3   OH228495   1.346   5.808  12.643 -0.8476  0.1335  0.0130
 2335TIP3    H128496   1.297   5.740  12.691 -1.3516  0.7272  0.3419
 2335TIP3    H228497   1.404   5.847  12.709 -1.3611  0.7789  0.0891
 2336TIP3   OH228498   0.127   0.826   5.322 -0.1376 -0.1890  0.0209
 2336TIP3    H128499   0.125   0.732   5.308 -1.4794 -0.1389 -0.1597
 2336TIP3    H228500   0.111   0.838   5.416  2.4063 -0.2306  0.4961
 2337TIP3   OH228501   5.043   0.424  15.051 -0.1562 -0.0275 -0.2077
 2337TIP3    H128502   4.988   0.444  14.976  1.1860 -0.0250 -1.2199
 2337TIP3    H228503   5.036   0.501  15.108  2.1336  1.8440 -2.3535
 2338TIP3   OH228504   4.545   5.886   1.623 -0.7051  0.6176 -0.5272
 2338TIP3    H128505   4.477   5.882   1.690 -0.1257 -1.0043 -0.0228
 2338TIP3    H228506   4.518   5.823   1.557  0.9411 -0.9898  0.2931
 2339TIP3   OH228507   6.079   3.785   6.230 -0.2269  0.0895  0.0814
 2339TIP3    H128508   6.135   3.823   6.298  1.0449 -2.4533  0.5002
 2339TIP3    H228509   6.003   3.751   6.276  0.2319 -0.8676  0.1470
 2340TIP3   OH228510   3.093   3.697   4.719  0.0512 -0.7096  0.6185
 2340TIP3    H128511   3.160   3.726   4.781 -0.1156  1.5284 -0.2093
 2340TIP3    H228512   3.097   3.602   4.723  2.4231 -0.6090  1.4944
 2341TIP3   OH228513   6.402   6.764  14.125  0.0429 -0.1454  0.0719
 2341TIP3    H128514   6.427   6.701  14.193  3.8222  0.9281 -0.2006
 2341TIP3    H228515   6.398   6.848  14.171 -1.5995 -0.0412 -0.2378
 2342TIP3   OH228516   5.381   4.859  12.360 -0.2319 -0.1633 -0.2169
 2342TIP3    H128517   5.376   4.763  12.353  1.2631 -0.2458 -0.1263
 2342TIP3    H228518   5.474   4.879  12.356 -0.6298  1.4361 -1.9139
 2343TIP3   OH228519   0.081   5.193  14.477 -0.1515 -0.8112  0.2839
 2343TIP3    H128520   0.103   5.148  14.396 -0.4851 -0.6233  0.0891
 2343TIP3    H228521   0.165   5.203  14.523  0.3349  0.7628 -0.8926
 2344TIP3   OH228522   6.445   0.407   2.608  0.1301  0.5757 -0.4080
 2344TIP3    H128523   6.375   0.429   2.668  0.0227 -0.1940 -0.2477
 2344TIP3    H228524   6.495   0.339   2.653  1.3272  1.5326 -0.2678
 2345TIP3   OH228525   0.104   0.848   3.898  0.5823 -0.1328 -0.2030
 2345TIP3    H128526   0.197   0.868   3.885  0.6820  0.3468  1.1895
 2345TIP3    H228527   0.064   0.865   3.813  1.6822  0.1843 -0.6633
 2346TIP3   OH228528   0.743   1.805   2.959  0.2954 -0.0974 -0.0396
 2346TIP3    H128529   0.675   1.772   2.900  0.4653  0.1974 -0.4030
 2346TIP3    H228530   0.822   1.810   2.904  0.8250 -1.2613  0.5966
 2347TIP3   OH228531   2.748   2.850  16.464  0.8882  0.4291 -0.6761
 2347TIP3    H128532   2.671   2.821  16.414  0.9841 -2.0911  0.5772
 2347TIP3    H228533   2.791   2.769  16.491  2.3979  1.7867  1.0977
 2348TIP3   OH228534   5.597   5.994   1.233 -0.2169  0.4747  0.1453
 2348TIP3    H128535   5.531   6.055   1.199  0.5762  1.5891  0.5634
 2348TIP3    H228536   5.672   6.050   1.254  0.3659 -0.6018  0.9489
 2349TIP3   OH228537   4.181   3.544   1.782 -0.2543 -0.5006  0.4452
 2349TIP3    H128538   4.250   3.542   1.715 -1.3406  2.5498 -0.8429
 2349TIP3    H228539   4.222   3.587   1.857 -1.0059  2.3227 -0.7057
 2350TIP3   OH228540   4.461   5.879  14.538 -0.7603 -0.2593  0.1745
 2350TIP3    H128541   4.523   5.866  14.610  0.4357  1.0709 -0.5672
 2350TIP3    H228542   4.499   5.832  14.464 -1.7642 -1.2625  0.2839
 2351TIP3   OH228543   2.459   0.439  16.785 -0.2824  0.4136 -0.0200
 2351TIP3    H128544   2.522   0.481  16.726 -0.8063 -0.8145 -1.4703
 2351TIP3    H228545   2.374   0.467  16.753 -0.5663 -0.1471  0.2464
 2352TIP3   OH228546   3.500   2.479  14.350 -0.4954  0.7999  0.1888
 2352TIP3    H128547   3.553   2.477  14.270 -1.6725 -0.2214 -0.5982
 2352TIP3    H228548   3.488   2.572  14.369  0.7796  1.0468 -0.1439
 2353TIP3   OH228549   6.430   1.440  14.664  0.4638  0.4279  0.3534
 2353TIP3    H128550   6.349   1.401  14.696  0.6976  0.0487  0.4861
 2353TIP3    H228551   6.482   1.456  14.742  1.0893 -0.6219  0.1726
 2354TIP3   OH228552   2.167   1.930   1.627 -0.3114  0.3595 -1.2015
 2354TIP3    H128553   2.126   1.861   1.680 -1.5587  0.9022 -1.4372
 2354TIP3    H228554   2.189   1.887   1.544 -0.1449 -0.0068 -0.9703
 2355TIP3   OH228555   3.008   4.076  13.872 -0.0242  0.3592  0.0858
 2355TIP3    H128556   2.926   4.058  13.919 -0.4459  1.8018 -0.0850
 2355TIP3    H228557   3.045   3.989  13.854 -2.0481 -0.3427 -0.7832
 2356TIP3   OH228558   2.417   3.063  16.037  0.3066  0.4865  0.2153
 2356TIP3    H128559   2.386   3.149  16.010 -0.3834  0.9582  2.3951
 2356TIP3    H228560   2.373   3.046  16.120  0.7218 -1.8209  0.0180
 2357TIP3   OH228561   1.365   1.160  14.253 -0.1017 -0.7803 -0.1075
 2357TIP3    H128562   1.358   1.256  14.250  0.8107 -0.5838  2.6986
 2357TIP3    H228563   1.276   1.130  14.238 -0.4888  0.5278 -0.5365
 2358TIP3   OH228564   4.419   3.808   5.777  0.0638  0.1812  0.0584
 2358TIP3    H128565   4.426   3.904   5.783  1.4088  0.5732 -4.9280
 2358TIP3    H228566   4.328   3.792   5.753 -0.0197  0.2606  0.3194
 2359TIP3   OH228567   5.061   6.212  11.482  0.1506  0.0631 -0.7859
 2359TIP3    H128568   5.087   6.200  11.391 -1.8851 -0.7107 -1.2921
 2359TIP3    H228569   5.102   6.139  11.528  3.1479  1.7661 -0.6226
 2360TIP3   OH228570   4.607   2.879  12.298  0.1350  0.7286  0.1858
 2360TIP3    H128571   4.588   2.795  12.256  1.9478  0.5926 -0.3852
 2360TIP3    H228572   4.523   2.906  12.335 -1.1023 -0.0108 -1.9887
 2361TIP3   OH228573   5.262   0.886  12.243  0.4737  0.6785 -0.3130
 2361TIP3    H128574   5.330   0.824  12.271  0.7565  0.8768 -0.5547
 2361TIP3    H228575   5.305   0.971  12.244  0.8456  0.5521 -2.4680
 2362TIP3   OH228576   5.807   1.959   0.382 -0.3464  0.0729 -0.3372
 2362TIP3    H128577   5.886   2.012   0.396  0.1457 -0.4813 -0.9903
 2362TIP3    H228578   5.785   1.925   0.469  0.6347 -0.4677 -0.2903
 2363TIP3   OH228579   1.976   1.240  11.738 -0.1783 -1.0252  0.4442
 2363TIP3    H128580   2.013   1.326  11.759  0.8087 -1.4367  0.4196
 2363TIP3    H228581   1.943   1.250  11.649 -0.5276 -0.5221  0.6250
 2364TIP3   OH228582   3.085   3.240  15.103 -0.4455  0.3183 -0.4255
 2364TIP3    H128583   3.041   3.165  15.064 -1.3706 -0.0778  1.3641
 2364TIP3    H228584   3.171   3.242  15.060  0.0717 -2.4850  0.3771
 2365TIP3   OH228585   1.778   1.702   6.067 -0.4843  0.6505 -0.1689
 2365TIP3    H128586   1.747   1.650   5.994  0.6976 -0.6574  0.2208
 2365TIP3    H228587   1.859   1.742   6.035  0.3588 -0.4096  0.5961
 2366TIP3   OH228588   2.051   6.517   1.241  0.4725 -0.2519  0.6674
 2366TIP3    H128589   2.101   6.533   1.161  0.5600 -0.7101  0.6318
 2366TIP3    H228590   2.105   6.556   1.311 -1.1649  3.1520  0.1346
 2367TIP3   OH228591   5.023   4.832  14.723 -0.4220 -0.2777  0.3578
 2367TIP3    H128592   5.040   4.914  14.677 -0.2155  0.0421  0.9990
 2367TIP3    H228593   4.931   4.812  14.704 -0.6756  0.4805  0.7924
 2368TIP3   OH228594   1.114   0.360   2.779 -0.4000 -0.3170 -0.3458
 2368TIP3    H128595   1.187   0.300   2.795 -0.9539 -1.5050 -2.1374
 2368TIP3    H228596   1.152   0.430   2.726  0.0630  0.5462  1.0868
 2369TIP3   OH228597   5.385   6.784   0.540  0.7560  0.1341  0.1815
 2369TIP3    H128598   5.450   6.719   0.567 -0.4673 -1.4866 -0.6373
 2369TIP3    H228599   5.417   6.867   0.575  2.1090 -0.9939  1.6910
 2370TIP3   OH228600   4.505   6.811   2.662  0.5430 -0.1258 -0.6231
 2370TIP3    H128601   4.462   6.756   2.597  1.4009 -1.4046 -0.1282
 2370TIP3    H228602   4.599   6.804   2.643  0.5982  2.5424 -1.6194
 2371TIP3   OH228603   5.122   3.225  16.183 -0.2145 -0.0293 -0.2668
 2371TIP3    H128604   5.192   3.255  16.125  0.9627 -3.0971 -0.5514
 2371TIP3    H228605   5.042   3.233  16.130  0.4024  0.2972 -1.1521
 2372TIP3   OH228606   3.675   2.797  13.467 -0.3396 -0.1690  0.1319
 2372TIP3    H128607   3.740   2.793  13.396  0.0403  0.7149  0.4251
 2372TIP3    H228608   3.677   2.709  13.505  1.1572  0.0336  0.5506
 2373TIP3   OH228609   1.836   0.264  16.925  0.2280  0.6624 -0.3555
 2373TIP3    H128610   1.765   0.309  16.879 -0.9068 -1.7241 -0.9916
 2373TIP3    H228611   1.801   0.177  16.944  1.5885  0.7170  2.7726
 2374TIP3   OH228612   5.328   4.421   4.384  0.1235 -0.2618  0.4899
 2374TIP3    H128613   5.390   4.462   4.444 -0.4141  0.1703  0.7516
 2374TIP3    H228614   5.374   4.419   4.300  0.1746  0.8309  0.4879
 2375TIP3   OH228615   3.550   5.019  14.108 -0.0936 -0.1491 -0.0495
 2375TIP3    H128616   3.594   4.940  14.076 -1.0127  0.2404 -2.3249
 2375TIP3    H228617   3.460   4.991  14.126 -0.7372  0.6089 -1.9695
 2376TIP3   OH228618   4.343   5.119  13.525  0.5012  0.0649 -0.2852
 2376TIP3    H128619   4.330   5.178  13.600 -0.4952 -0.9616  0.3537
 2376TIP3    H228620   4.431   5.083  13.539 -0.3358 -1.4402  1.3442
 2377TIP3   OH228621   4.496   4.495   4.419 -0.3482  1.0398 -0.3981
 2377TIP3    H128622   4.539   4.472   4.336  1.6296  1.0167  0.6015
 2377TIP3    H228623   4.544   4.571   4.451 -0.0045  0.0451  1.5357
 2378TIP3   OH228624   4.372   3.302   3.356 -0.4482  0.6177  0.3473
 2378TIP3    H128625   4.458   3.341   3.373  1.1304 -2.2234 -0.8608
 2378TIP3    H228626   4.353   3.250   3.434 -1.0302  1.1592  0.5682
 2379TIP3   OH228627   4.304   3.035  16.895 -0.4850 -0.7490 -0.4978
 2379TIP3    H128628   4.319   2.958  16.949 -0.5091 -1.5183 -1.5773
 2379TIP3    H228629   4.229   3.079  16.936  0.5725 -0.3808  1.0904
 2380TIP3   OH228630   3.941   1.418   1.542  0.2636 -0.2451 -0.4089
 2380TIP3    H128631   3.904   1.452   1.623  1.4676 -0.5667  0.2906
 2380TIP3    H228632   3.964   1.496   1.491 -1.8622 -0.0319 -1.1117
 2381TIP3   OH228633   5.482   5.387   3.667  0.3444  0.2909  0.1758
 2381TIP3    H128634   5.441   5.317   3.615  2.3150 -0.5923 -0.2349
 2381TIP3    H228635   5.531   5.439   3.603  0.3935  0.9578  0.7497
 2382TIP3   OH228636   2.706   6.050   4.728  0.8084  0.4828  0.6315
 2382TIP3    H128637   2.735   5.964   4.697  2.1114  0.9285  0.5980
 2382TIP3    H228638   2.647   6.030   4.801 -0.9880 -0.5091 -1.0603
 2383TIP3   OH228639   6.519   6.792   1.212 -0.1327  0.3823  0.2877
 2383TIP3    H128640   6.560   6.843   1.142  2.2976 -1.2218  0.4913
 2383TIP3    H228641   6.540   6.839   1.292 -2.0309  1.6499  0.0778
 2384TIP3   OH228642   6.304   1.353  12.273  0.7431 -0.0278  0.7426
 2384TIP3    H128643   6.213   1.371  12.253 -0.0157 -1.8345  2.4132
 2384TIP3    H228644   6.345   1.440  12.278 -0.8199  0.7864 -0.2048
 2385TIP3   OH228645   5.748   4.564  11.520 -0.2837  0.1710 -0.0041
 2385TIP3    H128646   5.695   4.559  11.441 -1.1362  0.6300  0.5287
 2385TIP3    H228647   5.822   4.619  11.496 -0.6686  0.5100 -0.4193
 2386TIP3   OH228648   3.711   5.237  11.444 -0.8105 -0.5730  0.5651
 2386TIP3    H128649   3.693   5.187  11.524  0.9246 -3.3280 -0.7176
 2386TIP3    H228650   3.643   5.211  11.383 -0.0895 -1.1405 -0.0044
 2387TIP3   OH228651   5.544   4.863  13.574  0.5001  0.2122  0.1998
 2387TIP3    H128652   5.520   4.787  13.522 -2.3575  0.8728  0.4256
 2387TIP3    H228653   5.533   4.937  13.515 -0.2042  0.7374  0.9687
 2388TIP3   OH228654   3.741   5.456   6.993  0.0833  0.5476 -0.2143
 2388TIP3    H128655   3.834   5.458   7.015 -0.3033  1.0359  1.4327
 2388TIP3    H228656   3.729   5.529   6.932  1.0679 -0.4754 -1.6536
 2389TIP3   OH228657   5.550   5.373   0.956 -0.2070  0.0430  0.5985
 2389TIP3    H128658   5.505   5.291   0.980 -1.9313  0.5379 -0.8117
 2389TIP3    H228659   5.581   5.408   1.039  1.1247 -2.3590  1.1649
 2390TIP3   OH228660   5.823   4.655   4.409 -0.2620  0.3348  0.0523
 2390TIP3    H128661   5.839   4.740   4.452 -1.6423  0.8427 -0.4180
 2390TIP3    H228662   5.797   4.678   4.320  0.8109 -0.6601 -0.5313
 2391TIP3   OH228663   0.719   5.975  16.590 -0.5597 -0.2117 -0.0377
 2391TIP3    H128664   0.657   6.024  16.644 -0.6783  0.5152 -0.8183
 2391TIP3    H228665   0.670   5.899  16.561 -0.3961 -0.7704  1.1302
 2392TIP3   OH228666   0.726   1.616  11.895 -0.4160  0.5645  0.7377
 2392TIP3    H128667   0.800   1.561  11.867 -1.3261 -1.2432  1.8142
 2392TIP3    H228668   0.766   1.699  11.919  0.9465  0.5576 -1.3219
 2393TIP3   OH228669   0.747   2.505   3.161 -0.0290 -0.3429 -0.6217
 2393TIP3    H128670   0.690   2.495   3.084  0.3191 -0.4764 -0.8631
 2393TIP3    H228671   0.831   2.533   3.125  0.9313 -2.9850 -0.5460
 2394TIP3   OH228672   3.589   4.270   5.639  0.2615  0.5079 -0.1055
 2394TIP3    H128673   3.648   4.336   5.603  2.5258 -1.7484 -0.7251
 2394TIP3    H228674   3.623   4.187   5.605 -2.4760 -0.9795  0.6692
 2395TIP3   OH228675   3.090   6.529   3.709  0.0492 -0.1500 -0.0820
 2395TIP3    H128676   3.038   6.449   3.724  0.4609 -0.4007  0.0193
 2395TIP3    H228677   3.181   6.498   3.707  0.5496  0.7873  3.7293
 2396TIP3   OH228678   2.056   0.881   4.404 -0.5009  1.0271 -0.6261
 2396TIP3    H128679   2.008   0.907   4.326 -0.3141  1.8976 -0.4542
 2396TIP3    H228680   2.010   0.923   4.476  0.1220  1.3307 -0.3974
 2397TIP3   OH228681   2.994   4.271   0.881  0.3199  0.3475  0.5015
 2397TIP3    H128682   2.947   4.320   0.814  0.2654  2.0002  1.6984
 2397TIP3    H228683   3.084   4.303   0.876  0.5606 -0.3231  0.4810
 2398TIP3   OH228684   0.312   3.454   3.795  0.0844 -0.0810  0.0779
 2398TIP3    H128685   0.309   3.358   3.798 -0.4341 -0.0552  0.4161
 2398TIP3    H228686   0.338   3.480   3.883 -2.8986  0.2056  0.9301
 2399TIP3   OH228687   0.452   0.586  14.079 -0.3381 -0.1256  0.4995
 2399TIP3    H128688   0.400   0.534  14.018  1.8712 -3.5380  1.4085
 2399TIP3    H228689   0.405   0.581  14.162 -1.2115  1.1493  0.1067
 2400TIP3   OH228690   4.122   2.901   4.408  0.0321  0.4302  0.0659
 2400TIP3    H128691   4.208   2.875   4.442  0.1930  0.4539 -0.3148
 2400TIP3    H228692   4.093   2.824   4.359  1.1149  1.4267 -2.2194
 2401TIP3   OH228693   0.819   2.281   3.865  0.3887 -0.2538 -0.3183
 2401TIP3    H128694   0.795   2.365   3.903  0.3768 -0.2235 -0.3928
 2401TIP3    H228695   0.795   2.217   3.932 -0.7074 -0.2928 -0.7409
 2402TIP3   OH228696   2.332   0.414   2.371  0.0026 -0.0039  1.3799
 2402TIP3    H128697   2.425   0.418   2.346 -0.7146 -0.3895 -1.5358
 2402TIP3    H228698   2.305   0.326   2.344 -1.5086  0.5238  1.1763
 2403TIP3   OH228699   1.340   5.509  16.250 -0.3714  1.0945 -0.5030
 2403TIP3    H128700   1.334   5.502  16.345  2.0269  1.6261 -0.2833
 2403TIP3    H228701   1.290   5.435  16.217 -1.4254  1.0459  1.1664
 2404TIP3   OH228702   0.959   1.311   3.390 -0.1627  0.1449 -0.2322
 2404TIP3    H128703   0.916   1.323   3.474  0.0144 -2.8786  0.3375
 2404TIP3    H228704   0.888   1.305   3.327 -0.4230 -0.6625  0.1339
 2405TIP3   OH228705   2.116   4.858   5.794 -0.4073  0.1152 -0.1157
 2405TIP3    H128706   2.112   4.882   5.886 -0.2664  1.7366 -0.5152
 2405TIP3    H228707   2.024   4.850   5.767 -0.5067  1.9315 -0.3893
 2406TIP3   OH228708   0.636   3.046  16.898 -0.2394  0.3216  0.5975
 2406TIP3    H128709   0.652   3.001  16.815 -1.3046  0.4871  0.3070
 2406TIP3    H228710   0.559   3.100  16.882  1.1162  2.3974  0.8935
 2407TIP3   OH228711   6.788   2.296  16.271 -0.7382 -0.2679 -0.4475
 2407TIP3    H128712   6.867   2.241  16.274  0.2206  1.0633 -0.5988
 2407TIP3    H228713   6.806   2.359  16.201 -2.0881 -0.1558 -0.7013
 2408TIP3   OH228714   6.268   6.351   5.918  0.4645 -0.8604 -0.2950
 2408TIP3    H128715   6.204   6.403   5.967  0.2422 -1.9244  0.5735
 2408TIP3    H228716   6.347   6.406   5.916 -0.8792  1.0440 -2.5885
 2409TIP3   OH228717   0.945   3.513  14.519 -0.2483 -0.5031  0.7471
 2409TIP3    H128718   0.928   3.607  14.532 -0.2216 -0.4165  0.1618
 2409TIP3    H228719   0.957   3.504  14.424 -0.2375 -1.0972  0.8056
 2410TIP3   OH228720   1.056   4.029  14.429 -0.0398 -0.4663  0.0740
 2410TIP3    H128721   1.081   4.029  14.521 -0.6991 -2.1508  0.2841
 2410TIP3    H228722   1.135   4.056  14.382  0.1063  1.0209  1.1723
 2411TIP3   OH228723   0.312   3.497   5.659 -0.1228  0.0421 -0.0966
 2411TIP3    H128724   0.351   3.455   5.735  2.0833  1.3687 -0.4349
 2411TIP3    H228725   0.329   3.436   5.587  1.2913  0.5413 -0.2151
 2412TIP3   OH228726   4.512   2.119  12.901  0.2356  0.1195  0.3964
 2412TIP3    H128727   4.592   2.075  12.873 -1.0063 -2.3395  0.5789
 2412TIP3    H228728   4.465   2.053  12.951  0.3519  3.0413  4.6177
 2413TIP3   OH228729   1.680   1.799  16.455  0.1311  0.0559 -0.6471
 2413TIP3    H128730   1.754   1.849  16.421  0.1826  1.2223  1.1469
 2413TIP3    H228731   1.616   1.864  16.480  0.1812 -0.7463  1.6688
 2414TIP3   OH228732   4.238   4.207   1.231 -0.1999  0.3679 -0.0639
 2414TIP3    H128733   4.149   4.192   1.198 -0.4134  0.4946  0.4504
 2414TIP3    H228734   4.261   4.294   1.201 -0.9148  1.0283  1.2567
 2415TIP3   OH228735   2.309   4.342   2.354 -0.4210 -0.2088  0.5428
 2415TIP3    H128736   2.382   4.370   2.410  0.8111 -1.0824 -0.6049
 2415TIP3    H228737   2.290   4.418   2.299 -1.0142  0.3324  1.4746
 2416TIP3   OH228738   0.866   3.738   4.001  0.1830  0.0015  0.0723
 2416TIP3    H128739   0.898   3.693   3.922  0.0699  0.5718 -0.3036
 2416TIP3    H228740   0.932   3.717   4.068  0.0295 -0.8849 -0.0382
 2417TIP3   OH228741   4.621   0.944  14.388  0.0775  0.6219 -0.4062
 2417TIP3    H128742   4.612   1.039  14.381  1.3378  0.8487  0.8419
 2417TIP3    H228743   4.715   0.928  14.379 -0.0508 -0.4394  0.0289
 2418TIP3   OH228744   2.365   4.965   3.983  0.3115  0.1381  0.5435
 2418TIP3    H128745   2.353   4.924   4.069  1.6626  0.2449  0.7952
 2418TIP3    H228746   2.449   4.931   3.952  1.2458  2.2963  0.5472
 2419TIP3   OH228747   3.842   3.558   0.312 -0.5631 -0.2719 -0.1066
 2419TIP3    H128748   3.802   3.632   0.266 -0.7371  1.1533  2.2659
 2419TIP3    H228749   3.805   3.560   0.400  1.0473 -1.8889  0.6688
 2420TIP3   OH228750   0.941   1.805  17.136  0.0321  0.3917  0.6005
 2420TIP3    H128751   0.913   1.751  17.210 -1.8817 -1.3899 -1.3601
 2420TIP3    H228752   0.860   1.826  17.090  1.3886 -0.5102 -2.2890
 2421TIP3   OH228753   4.374   5.638  12.470 -0.2420 -0.3180 -0.5367
 2421TIP3    H128754   4.392   5.707  12.534 -0.3555 -2.2101  1.5827
 2421TIP3    H228755   4.280   5.622  12.478 -0.3188 -0.3605 -1.4163
 2422TIP3   OH228756   6.503   2.317   0.185  0.1446 -0.1447 -0.0294
 2422TIP3    H128757   6.535   2.299   0.097 -0.0473  2.0527 -0.5826
 2422TIP3    H228758   6.582   2.322   0.239  0.4866  1.3056 -0.6374
 2423TIP3   OH228759   4.262   1.990  12.295 -0.4441 -0.0288  0.6542
 2423TIP3    H128760   4.340   2.040  12.272 -0.8076  1.2979  2.2196
 2423TIP3    H228761   4.198   2.014  12.228  0.7709 -1.9674 -1.2953
 2424TIP3   OH228762   5.880   5.053   0.181  0.8998  0.4019 -0.2150
 2424TIP3    H128763   5.919   5.026   0.264 -0.8265  1.3689  0.9420
 2424TIP3    H228764   5.787   5.062   0.200  0.8994  3.6883 -1.4485
 2425TIP3   OH228765   3.187   0.442  11.760 -0.5150 -0.2869  0.5355
 2425TIP3    H128766   3.219   0.351  11.765  1.1964  0.2524 -0.2527
 2425TIP3    H228767   3.103   0.435  11.715 -0.3796 -1.4782  0.4409
 2426TIP3   OH228768   0.885   4.252  15.672  0.2808 -0.0191  0.2112
 2426TIP3    H128769   0.849   4.335  15.704  0.9652 -0.1490  1.3544
 2426TIP3    H228770   0.835   4.233  15.593 -0.4593  1.0563  0.4075
 2427TIP3   OH228771   1.986   1.324  13.199 -0.0481 -0.5377  0.4499
 2427TIP3    H128772   2.054   1.321  13.131 -1.8815  0.1844 -1.4683
 2427TIP3    H228773   1.949   1.412  13.192 -2.4779 -1.5487  0.1613
 2428TIP3   OH228774   5.049   4.776  11.204 -0.2021 -0.0436 -0.4072
 2428TIP3    H128775   5.132   4.801  11.162  0.7692 -0.0870  1.4119
 2428TIP3    H228776   4.984   4.834  11.164  1.0898  1.5994 -0.2281
 2429TIP3   OH228777   4.634   4.343  16.592 -0.0783 -0.1764  0.2631
 2429TIP3    H128778   4.543   4.314  16.589 -0.3620  0.8734 -2.3997
 2429TIP3    H228779   4.631   4.427  16.638 -0.7347  0.6962 -1.3254
 2430TIP3   OH228780   0.560   0.182   2.071 -0.2785  0.3471  0.3479
 2430TIP3    H128781   0.543   0.095   2.035 -1.7117  1.5442 -2.0437
 2430TIP3    H228782   0.481   0.232   2.050  0.6609  2.3273  1.3739
 2431TIP3   OH228783   1.214   1.376  17.290 -0.0590 -0.2936  0.1600
 2431TIP3    H128784   1.195   1.283  17.280 -0.3759 -0.1921 -0.1870
 2431TIP3    H228785   1.208   1.392  17.385 -1.5695 -0.2913  0.0775
 2432TIP3   OH228786   5.351   1.617  17.251  0.3342  0.3205 -0.4516
 2432TIP3    H128787   5.290   1.690  17.265  1.4231  1.5208 -1.7545
 2432TIP3    H228788   5.390   1.601  17.338 -2.4412 -1.0504  0.5820
 2433TIP3   OH228789   5.213   1.833   0.510 -0.1708  0.3668 -0.2746
 2433TIP3    H128790   5.296   1.878   0.525 -0.0844  0.4249 -0.8917
 2433TIP3    H228791   5.155   1.901   0.475 -1.2545  0.9189  2.4897
 2434TIP3   OH228792   0.761   4.923  11.631  0.0240  0.7317 -0.5605
 2434TIP3    H128793   0.825   4.883  11.572 -0.1807 -0.1647 -0.1948
 2434TIP3    H228794   0.677   4.888  11.602 -0.0373 -0.0173  0.4945
 2435TIP3   OH228795   6.729   6.463   0.531 -0.2208 -0.6228  0.1380
 2435TIP3    H128796   6.648   6.503   0.564  2.0597  3.0874  1.6434
 2435TIP3    H228797   6.710   6.441   0.441 -3.4263 -1.3508  0.9498
 2436TIP3   OH228798   4.510   5.209  15.709  0.1708  0.7615 -0.1016
 2436TIP3    H128799   4.505   5.216  15.804 -0.9026  0.4909 -0.1339
 2436TIP3    H228800   4.419   5.217  15.679  0.4733  0.6164 -1.0870
 2437TIP3   OH228801   2.086   2.208  16.656  0.5780 -0.1149 -0.4456
 2437TIP3    H128802   2.055   2.118  16.670 -0.1822  0.0984 -0.7623
 2437TIP3    H228803   2.082   2.248  16.743  2.6869 -0.9291  0.0610
 2438TIP3   OH228804   1.019   3.938   3.356  0.0496  0.0536 -0.1956
 2438TIP3    H128805   0.998   3.877   3.427  1.3992 -0.0613  0.1079
 2438TIP3    H228806   0.935   3.980   3.335 -0.3442  0.1710  1.5473
 2439TIP3   OH228807   5.005   0.901  14.794  0.1961 -0.7380 -0.7911
 2439TIP3    H128808   4.990   0.948  14.877  0.1809 -1.0252 -0.6316
 2439TIP3    H228809   5.056   0.824  14.819  0.1835 -0.8295 -1.0503
 2440TIP3   OH228810   6.720   0.265  11.281 -0.1753  0.0826  0.2942
 2440TIP3    H128811   6.638   0.233  11.319 -0.8452  0.7700 -0.5380
 2440TIP3    H228812   6.786   0.247  11.348 -1.0569 -0.1838  1.1123
 2441TIP3   OH228813   0.419   2.999  13.146  0.6590 -0.2448  0.0711
 2441TIP3    H128814   0.480   2.983  13.074  1.3989 -1.0595  0.8472
 2441TIP3    H228815   0.476   3.008  13.223  0.0404  3.1141  0.1744
 2442TIP3   OH228816   3.256   3.611  14.259  0.2328  0.6814  0.3873
 2442TIP3    H128817   3.326   3.674  14.246  1.3270 -0.4573  0.6725
 2442TIP3    H228818   3.293   3.546  14.319 -1.4195  0.6325  1.3964
 2443TIP3   OH228819   6.107   4.179   5.267  0.4108  0.1250  0.3545
 2443TIP3    H128820   6.060   4.139   5.340 -0.9209  0.9953  0.0017
 2443TIP3    H228821   6.150   4.256   5.306  0.9077 -0.2343  0.5186
 2444TIP3   OH228822   4.288   1.370  14.410 -0.0950 -0.1849 -0.3752
 2444TIP3    H128823   4.305   1.464  14.398 -0.3038 -0.0561  0.3388
 2444TIP3    H228824   4.209   1.354  14.359 -0.1019  0.0392 -0.4377
 2445TIP3   OH228825   1.147   3.549  16.073 -0.3088  0.0216 -0.5333
 2445TIP3    H128826   1.225   3.585  16.116 -0.2274  0.4098 -0.9948
 2445TIP3    H228827   1.177   3.527  15.984 -0.9642  1.1238 -1.0452
 2446TIP3   OH228828   1.800   3.385  15.216  0.0371  0.4397  0.1785
 2446TIP3    H128829   1.808   3.480  15.206 -2.7240  0.5162 -1.6859
 2446TIP3    H228830   1.786   3.373  15.310 -0.2997  1.9246  0.3372
 2447TIP3   OH228831   3.242   1.965   1.205 -0.4799  0.2145 -0.2823
 2447TIP3    H128832   3.283   2.051   1.219  0.2770 -0.1604 -0.1738
 2447TIP3    H228833   3.161   1.969   1.256 -1.4253  1.5710 -1.8431
 2448TIP3   OH228834   5.306   1.889   6.477  0.9081  0.0914 -0.5545
 2448TIP3    H128835   5.328   1.797   6.493  0.9203  0.4657  1.7844
 2448TIP3    H228836   5.236   1.908   6.539  0.2301  1.4125 -1.6964
 2449TIP3   OH228837   6.721   5.078  11.029  0.3190 -0.3368 -0.0564
 2449TIP3    H128838   6.775   5.052  11.103 -1.0867 -1.7932  0.5027
 2449TIP3    H228839   6.773   5.057  10.952  1.6331  0.8151  0.5087
 2450TIP3   OH228840   1.324   3.024  14.834 -1.0565 -0.8502  0.2025
 2450TIP3    H128841   1.251   3.015  14.774 -0.0971 -0.7059 -1.0116
 2450TIP3    H228842   1.313   3.110  14.873  0.5901  0.8304 -2.9029
 2451TIP3   OH228843   2.242   6.762   6.093  0.2641  0.0282 -0.3037
 2451TIP3    H128844   2.205   6.835   6.143 -0.4462 -0.6464  0.1820
 2451TIP3    H228845   2.336   6.781   6.088  0.1607  0.7102  0.2735
 2452TIP3   OH228846   2.997   5.102  11.312 -0.1335  0.4535  0.2732
 2452TIP3    H128847   2.934   5.165  11.346 -1.2463 -0.3575 -0.2390
 2452TIP3    H228848   3.060   5.154  11.262 -0.3025  1.2892  0.9309
 2453TIP3   OH228849   3.733   4.488   3.715 -0.0585 -0.6194 -0.7408
 2453TIP3    H128850   3.822   4.485   3.750 -0.1791  0.2097 -0.3674
 2453TIP3    H228851   3.733   4.559   3.652  0.1821 -2.1653 -2.5362
 2454TIP3   OH228852   3.469   5.006  17.061  0.6226 -0.4005 -0.1726
 2454TIP3    H128853   3.523   5.067  17.011  2.3616 -1.2440  0.6273
 2454TIP3    H228854   3.455   4.931  17.003 -0.1846  0.0696 -0.5854
 2455TIP3   OH228855   2.451   0.868  12.473 -0.0692 -0.1895 -0.4805
 2455TIP3    H128856   2.443   0.799  12.407 -1.0647 -1.3360  0.8200
 2455TIP3    H228857   2.380   0.851  12.534 -0.3293  2.0002 -0.1301
 2456TIP3   OH228858   1.141   2.841  13.195  0.7684  0.3313 -0.3311
 2456TIP3    H128859   1.130   2.754  13.232  0.6531  1.1431  1.6292
 2456TIP3    H228860   1.077   2.846  13.124  0.9883 -1.2729 -0.6512
 2457TIP3   OH228861   1.488   3.701   2.844  0.1840 -0.3485  0.4086
 2457TIP3    H128862   1.524   3.651   2.917  0.2424  1.0224  1.3458
 2457TIP3    H228863   1.411   3.745   2.880  0.4730  0.7019 -0.2057
 2458TIP3   OH228864   3.411   5.077   3.780 -0.3582  0.3708 -0.0178
 2458TIP3    H128865   3.420   5.038   3.693  1.0684  0.8165 -0.0751
 2458TIP3    H228866   3.444   5.010   3.840 -0.2560  0.5195  0.0917
 2459TIP3   OH228867   3.737   6.785  10.517  0.4256  0.3822 -0.0213
 2459TIP3    H128868   3.753   6.834  10.436  0.1015  0.8420  0.1940
 2459TIP3    H228869   3.659   6.826  10.555  0.5119  0.0952  0.4675
 2460TIP3   OH228870   2.504   0.317   5.786  0.8701 -0.0158  0.0953
 2460TIP3    H128871   2.520   0.278   5.871 -0.3050 -0.1759  0.2529
 2460TIP3    H228872   2.412   0.342   5.788  1.0692  0.8295 -0.7842
 2461TIP3   OH228873   4.541   1.400   4.073 -0.3241 -0.3206 -0.1455
 2461TIP3    H128874   4.517   1.418   4.164 -1.2541 -1.4434 -0.1532
 2461TIP3    H228875   4.621   1.450   4.059 -0.5368  0.3872  1.0886
 2462TIP3   OH228876   5.393   1.678  14.372 -0.0023  0.1368 -0.6401
 2462TIP3    H128877   5.389   1.762  14.325 -0.3390 -0.3105 -1.4319
 2462TIP3    H228878   5.423   1.701  14.460  2.8679  0.7572 -1.7065
 2463TIP3   OH228879   4.839   5.504  12.918 -0.2810  0.7658 -0.1332
 2463TIP3    H128880   4.880   5.467  12.840 -1.5053 -0.0770 -0.3915
 2463TIP3    H228881   4.746   5.489  12.905 -0.5136  0.8525  1.3784
 2464TIP3   OH228882   2.382   6.154   3.423 -0.3826 -0.1127 -0.1331
 2464TIP3    H128883   2.413   6.144   3.333 -2.4090  1.1775 -1.0172
 2464TIP3    H228884   2.460   6.145   3.477  0.8942 -0.7054 -2.0345
 2465TIP3   OH228885   1.453   0.566   0.850  0.0262  0.4134  0.2251
 2465TIP3    H128886   1.388   0.596   0.787 -0.5861 -0.1984  0.5663
 2465TIP3    H228887   1.421   0.597   0.934 -0.8653 -1.5763  0.6461
 2466TIP3   OH228888   6.426   6.729   5.677  0.4959  0.3100  0.3519
 2466TIP3    H128889   6.442   6.727   5.771  2.1618  2.8572  0.1727
 2466TIP3    H228890   6.425   6.822   5.655  2.3801 -0.2609 -2.4819
 2467TIP3   OH228891   5.742   5.610   1.510  0.1781  0.1835  0.3437
 2467TIP3    H128892   5.707   5.521   1.500  0.5659  0.0537  0.1557
 2467TIP3    H228893   5.675   5.666   1.471 -1.4839  0.2337  3.1062
 2468TIP3   OH228894   2.968   1.256  10.215  0.0121 -0.1884  0.6718
 2468TIP3    H128895   2.925   1.320  10.159  1.5043  0.9421  0.7783
 2468TIP3    H228896   2.912   1.249  10.292 -1.8073 -1.4054 -0.7199
 2469TIP3   OH228897   3.170   5.378  12.714  0.1920 -0.8598  0.3686
 2469TIP3    H128898   3.106   5.398  12.782 -0.7306  0.2821 -0.8120
 2469TIP3    H228899   3.255   5.393  12.755 -0.3984  1.2197  0.8504
 2470TIP3   OH228900   5.982   0.444   0.172 -0.1590 -0.4750  0.1009
 2470TIP3    H128901   6.065   0.398   0.161  0.1847  0.7081 -2.5839
 2470TIP3    H228902   5.931   0.421   0.094 -0.9243  1.7286 -0.0971
 2471TIP3   OH228903   5.413   2.007   0.670  0.1508 -0.0478  0.4277
 2471TIP3    H128904   5.407   1.921   0.713  2.3844  0.3832  1.6455
 2471TIP3    H228905   5.502   2.036   0.687 -0.2624  2.0659 -0.8937
 2472TIP3   OH228906   1.296   4.491   2.417 -0.6830 -0.0775  0.0014
 2472TIP3    H128907   1.348   4.428   2.467 -0.7576 -0.5726 -0.5415
 2472TIP3    H228908   1.242   4.534   2.483 -0.6164 -0.5645  0.3805
 2473TIP3   OH228909   0.991   0.148   3.342 -0.1814  0.4510  0.1548
 2473TIP3    H128910   0.946   0.088   3.402  0.0203  0.0957 -0.0468
 2473TIP3    H228911   0.929   0.160   3.269 -0.6231  1.2573  0.6526
 2474TIP3   OH228912   1.433   6.372   3.218  0.4591 -0.1276 -0.3265
 2474TIP3    H128913   1.390   6.289   3.239  0.8403 -0.3974 -0.6187
 2474TIP3    H228914   1.446   6.369   3.123 -2.3124  1.5688 -0.8472
 2475TIP3   OH228915   5.215   1.196   0.502 -0.0293 -0.6498  0.8392
 2475TIP3    H128916   5.174   1.167   0.421  2.5853  0.3441 -0.9500
 2475TIP3    H228917   5.227   1.291   0.490 -3.6657  0.3913  4.3341
 2476TIP3   OH228918   2.051   3.045   0.289 -0.1947  0.0936  0.4797
 2476TIP3    H128919   1.968   3.092   0.289 -1.7043 -2.4391 -0.2875
 2476TIP3    H228920   2.076   3.039   0.381 -1.7950 -0.6402  0.8906
 2477TIP3   OH228921   0.062   4.791   4.564  0.1713 -0.0704  0.1045
 2477TIP3    H128922   0.021   4.742   4.494  0.3809  0.3351 -0.3071
 2477TIP3    H228923   0.020   4.877   4.562 -0.8356 -0.5155  1.4060
 2478TIP3   OH228924   5.261   0.486   0.318 -0.0106  0.4443 -0.0839
 2478TIP3    H128925   5.179   0.450   0.350  0.9596 -0.2301  1.7446
 2478TIP3    H228926   5.249   0.581   0.321 -0.2244  0.3736  1.5861
 2479TIP3   OH228927   4.054   6.020   6.544  0.0325 -0.4769  0.4299
 2479TIP3    H128928   4.103   6.052   6.620  1.2675 -1.2356 -0.0242
 2479TIP3    H228929   4.004   5.945   6.577 -0.6058  0.1241  0.8320
 2480TIP3   OH228930   0.972   6.443  14.794 -0.5133  0.6774  0.1443
 2480TIP3    H128931   0.989   6.474  14.883 -0.9107 -0.3638  0.5821
 2480TIP3    H228932   0.880   6.418  14.794 -0.3975  0.2306 -0.4220
 2481TIP3   OH228933   2.893   6.714  10.738 -0.0199  0.3625  0.0087
 2481TIP3    H128934   2.946   6.647  10.782  0.6738 -1.0868 -2.8562
 2481TIP3    H228935   2.949   6.792  10.737 -0.2940  0.6124  2.1748
 2482TIP3   OH228936   5.411   5.012  13.957  0.0210 -0.0598 -0.2270
 2482TIP3    H128937   5.371   4.941  13.907  2.5986 -1.8483  0.1374
 2482TIP3    H228938   5.401   4.987  14.049  2.5128 -0.8920 -0.1479
 2483TIP3   OH228939   5.649   1.900   6.558  0.0067  0.3249 -0.0912
 2483TIP3    H128940   5.694   1.828   6.601  0.0890  0.0573 -0.6214
 2483TIP3    H228941   5.617   1.863   6.476  3.7077  1.9600 -2.4152
 2484TIP3   OH228942   3.439   2.452   3.271 -0.2833 -0.3711  0.1473
 2484TIP3    H128943   3.375   2.517   3.298  1.9305  1.4386  1.2711
 2484TIP3    H228944   3.472   2.484   3.187  0.5644 -0.2109  0.5344
 2485TIP3   OH228945   5.612   4.641   2.118  0.0783 -0.2039 -1.1397
 2485TIP3    H128946   5.566   4.668   2.197 -0.2069 -0.6503 -1.1481
 2485TIP3    H228947   5.571   4.558   2.094  2.6538 -2.0068  0.3689
 2486TIP3   OH228948   3.061   5.279  17.244 -0.5873  0.1044  0.2830
 2486TIP3    H128949   3.122   5.310  17.311 -0.5044 -0.1126  0.3079
 2486TIP3    H228950   2.992   5.345  17.242 -0.0142  0.7030 -0.2166
 2487TIP3   OH228951   0.243   5.733  14.914  0.4076  0.0315  0.4187
 2487TIP3    H128952   0.288   5.816  14.901 -0.9766  0.7328  0.0928
 2487TIP3    H228953   0.288   5.693  14.988  0.5687  1.4314  1.0939
 2488TIP3   OH228954   1.810   0.173  15.464  0.6619  0.1735  0.1339
 2488TIP3    H128955   1.789   0.081  15.478  1.3425  0.3099  2.1050
 2488TIP3    H228956   1.892   0.187  15.511  0.7163  1.7260 -0.3900
 2489TIP3   OH228957   3.410   5.743   3.324 -0.2337  0.0265 -0.1668
 2489TIP3    H128958   3.469   5.672   3.348  0.9505  1.0079 -0.0898
 2489TIP3    H228959   3.324   5.713   3.351  0.2056 -1.5128 -0.4335
 2490TIP3   OH228960   4.568   5.385   3.029  0.4156  0.2376 -0.1208
 2490TIP3    H128961   4.581   5.435   2.948  0.5143  2.5963  1.3157
 2490TIP3    H228962   4.657   5.366   3.059  0.3789 -1.1344 -0.8415
 2491TIP3   OH228963   4.321   2.961  16.494 -0.4943 -0.1167  0.0309
 2491TIP3    H128964   4.372   3.038  16.469 -0.3586 -1.1537 -3.0145
 2491TIP3    H228965   4.387   2.894  16.512 -0.6428  0.1704  1.7319
 2492TIP3   OH228966   0.343   3.174   0.868  0.2191  0.4783 -0.4620
 2492TIP3    H128967   0.432   3.175   0.833  1.2022  0.9159  1.9538
 2492TIP3    H228968   0.319   3.081   0.871  1.2985  0.2131  0.5146
 2493TIP3   OH228969   3.968   2.746  12.025  0.3582 -0.0246 -0.5892
 2493TIP3    H128970   3.964   2.709  11.936  0.3822 -0.4581 -0.4133
 2493TIP3    H228971   3.984   2.670  12.081  1.0557  0.3473 -0.2797
 2494TIP3   OH228972   2.164   5.351   3.132  0.1519  0.2141 -0.2124
 2494TIP3    H128973   2.140   5.377   3.221 -3.3016  0.3566 -1.0907
 2494TIP3    H228974   2.180   5.434   3.087  2.2289  0.1270  0.3323
 2495TIP3   OH228975   1.166   4.584  16.484 -0.4100  1.4006 -0.2932
 2495TIP3    H128976   1.223   4.569  16.409 -1.6044  0.1883 -0.9911
 2495TIP3    H228977   1.121   4.666  16.464  0.0156  1.6053 -0.4192
 2496TIP3   OH228978   6.031   6.163   1.318  0.2411  0.1858  0.0541
 2496TIP3    H128979   6.078   6.123   1.245 -1.6322 -2.1192  0.0645
 2496TIP3    H228980   5.953   6.203   1.277  0.8805  1.8220  0.3731
 2497TIP3   OH228981   5.332   2.841   0.406 -0.1810  0.7883  0.4036
 2497TIP3    H128982   5.239   2.848   0.387 -0.0929  0.1630 -0.2995
 2497TIP3    H228983   5.359   2.931   0.428 -1.1621  0.7869  1.7023
 2498TIP3   OH228984   3.266   4.337  15.921 -0.1734 -0.1176  0.0690
 2498TIP3    H128985   3.330   4.315  15.854 -1.5787 -2.5584 -0.5434
 2498TIP3    H228986   3.183   4.343  15.874 -0.6655  1.4966  1.0844
 2499TIP3   OH228987   0.554   0.535  14.669 -0.4345  0.2535  0.2139
 2499TIP3    H128988   0.631   0.575  14.710  0.0322  0.1338 -0.5320
 2499TIP3    H228989   0.494   0.609  14.654 -0.2444  0.4298  0.3174
 2500TIP3   OH228990   3.574   6.105   5.484  0.0657 -0.1380 -0.1443
 2500TIP3    H128991   3.564   6.012   5.464 -0.4062  0.0375 -0.7276
 2500TIP3    H228992   3.558   6.111   5.579  0.8534 -0.7536  0.0343
 2501TIP3   OH228993   6.768   2.115  10.554 -0.1703 -0.2203 -0.1322
 2501TIP3    H128994   6.826   2.039  10.561 -0.5798 -0.6419 -1.1834
 2501TIP3    H228995   6.819   2.179  10.505 -0.6789 -0.6864 -1.2820
 2502TIP3   OH228996   5.735   3.855   4.007 -0.2348 -0.7252  0.6649
 2502TIP3    H128997   5.743   3.760   3.992  0.4189 -0.2597 -2.1845
 2502TIP3    H228998   5.805   3.875   4.069  0.8585 -1.8073 -0.1907
 2503TIP3   OH228999   0.328   3.465   4.781 -0.1290 -0.1088 -0.0967
 2503TIP3    H129000   0.375   3.490   4.861 -0.3511  0.2920 -0.0862
 2503TIP3    H229001   0.259   3.531   4.773 -1.4799 -1.4017  0.5731
 2504TIP3   OH229002   3.725   5.482  11.575  0.1251 -0.5208  0.6365
 2504TIP3    H129003   3.709   5.460  11.667  3.0198  1.1810  1.5956
 2504TIP3    H229004   3.729   5.397  11.531 -1.5870 -1.3560  1.9842
 2505TIP3   OH229005   2.841   5.162  15.680 -0.2009 -0.2251 -0.0880
 2505TIP3    H129006   2.888   5.080  15.662  0.9794  0.7925 -1.7356
 2505TIP3    H229007   2.824   5.200  15.594  0.8708  2.1612  0.7055
 2506TIP3   OH229008   4.085   1.528   4.645 -0.0871 -0.3873  0.4623
 2506TIP3    H129009   4.144   1.462   4.683 -0.3114 -1.4927 -1.0547
 2506TIP3    H229010   4.043   1.569   4.720  1.4008 -0.7427  1.4946
 2507TIP3   OH229011   3.207   3.364  14.774  0.6789  0.3021  1.3456
 2507TIP3    H129012   3.224   3.271  14.759 -0.5912 -0.1429  2.5281
 2507TIP3    H229013   3.268   3.388  14.845  0.5373  0.2068  1.4979
 2508TIP3   OH229014   4.853   4.521   0.103  0.3608 -0.0722 -0.3571
 2508TIP3    H129015   4.916   4.488   0.039 -1.2871 -1.2506 -1.4015
 2508TIP3    H229016   4.774   4.538   0.052  0.0078  1.9594  0.8382
 2509TIP3   OH229017   1.517   0.657  12.139 -0.6823  0.0566  0.1753
 2509TIP3    H129018   1.544   0.703  12.218 -0.2437  2.1405 -1.1488
 2509TIP3    H229019   1.597   0.649  12.087 -1.6193  2.0684 -1.6860
 2510TIP3   OH229020   2.523   5.690  11.570 -0.7396 -0.5198  0.4561
 2510TIP3    H129021   2.569   5.707  11.652 -0.6449  2.5757 -0.1585
 2510TIP3    H229022   2.566   5.748  11.506 -1.2642 -2.3452 -1.6103
 2511TIP3   OH229023   2.725   6.057   2.961 -0.0130 -0.2292 -0.0971
 2511TIP3    H129024   2.666   6.012   2.901 -1.0518  1.0058 -0.0278
 2511TIP3    H229025   2.719   6.007   3.043  0.0091 -0.8373 -0.4629
 2512TIP3   OH229026   2.308   4.234  17.123 -0.0906  0.2232  0.1386
 2512TIP3    H129027   2.252   4.302  17.084  1.3467  1.0216 -0.5492
 2512TIP3    H229028   2.388   4.236  17.071 -0.2022 -2.3253 -0.1717
 2513TIP3   OH229029   5.059   6.359   1.104 -0.8426 -0.0982  0.0846
 2513TIP3    H129030   5.008   6.288   1.064  1.6109 -1.0186 -1.5197
 2513TIP3    H229031   5.003   6.436   1.097 -2.0306 -1.0855 -1.6054
 2514TIP3   OH229032   4.190   5.653  12.925 -0.0216 -0.1392 -0.4515
 2514TIP3    H129033   4.112   5.664  12.871  1.9554  0.0338 -3.4090
 2514TIP3    H229034   4.180   5.717  12.995 -2.3397  0.1602 -1.0111
 2515TIP3   OH229035   2.418   4.506   1.723 -0.7772  0.0892  0.5357
 2515TIP3    H129036   2.461   4.506   1.638  1.1184  0.1698  1.4688
 2515TIP3    H229037   2.474   4.452   1.778 -2.3383 -0.5076  1.5662
 2516TIP3   OH229038   3.414   5.431  12.856 -0.6568  0.0546  0.3140
 2516TIP3    H129039   3.472   5.468  12.790  0.0567  0.4381  1.1513
 2516TIP3    H229040   3.408   5.498  12.924  0.1813 -1.0958  1.5633
 2517TIP3   OH229041   6.689   2.558  17.155  0.1039  0.4081 -0.6573
 2517TIP3    H129042   6.595   2.539  17.162  0.5853 -1.4648  1.0523
 2517TIP3    H229043   6.712   2.531  17.066 -0.6374 -0.6909 -0.5265
 2518TIP3   OH229044   4.403   2.410   1.927  0.0533  0.2626 -0.0232
 2518TIP3    H129045   4.331   2.453   1.879  2.0997  1.6502 -1.9330
 2518TIP3    H229046   4.471   2.476   1.933  1.4769 -1.2762  1.1336
 2519TIP3   OH229047   0.312   2.106  13.979  0.2428  0.8394  0.1542
 2519TIP3    H129048   0.257   2.137  13.907 -0.0985  0.6918  0.3497
 2519TIP3    H229049   0.370   2.040  13.939 -0.9296 -0.3022  0.3011
 2520TIP3   OH229050   6.441   4.353   1.418  0.1188 -0.0457 -0.0712
 2520TIP3    H129051   6.387   4.306   1.483 -1.4356 -1.1813 -2.1241
 2520TIP3    H229052   6.383   4.421   1.384  1.6462  1.9598  1.2725
 2521TIP3   OH229053   4.296   0.081   0.606 -0.3905  0.3332 -0.1222
 2521TIP3    H129054   4.312   0.083   0.700  1.1672  1.0921 -0.3918
 2521TIP3    H229055   4.378   0.049   0.569 -0.7614  0.7168 -1.2797
 2522TIP3   OH229056   1.470   4.873  15.583  0.1641 -0.1344  0.0355
 2522TIP3    H129057   1.397   4.934  15.568 -0.9249 -1.4611 -0.1970
 2522TIP3    H229058   1.465   4.852  15.676 -1.3182 -2.1508 -0.4749
 2523TIP3   OH229059   5.102   1.415  15.981 -0.4035 -0.4217 -0.7523
 2523TIP3    H129060   5.097   1.356  16.056  1.0376  1.4599  0.8703
 2523TIP3    H229061   5.043   1.487  16.003  0.6335  0.5304 -1.0603
 2524TIP3   OH229062   2.281   1.573  13.337  0.1165 -0.0197 -0.5842
 2524TIP3    H129063   2.268   1.668  13.343  2.1501  0.2440  0.1439
 2524TIP3    H229064   2.252   1.551  13.249 -0.7774  1.2155 -0.6139
 2525TIP3   OH229065   2.349   1.632  12.866  0.8931  0.1127  0.3208
 2525TIP3    H129066   2.427   1.653  12.814  0.3026 -1.3021 -1.1667
 2525TIP3    H229067   2.276   1.662  12.812  0.2934 -0.9845  0.5187
 2526TIP3   OH229068   5.887   1.929   3.839 -0.0978  0.1530 -0.2471
 2526TIP3    H129069   5.830   2.005   3.824 -0.9287  0.3066  3.3301
 2526TIP3    H229070   5.828   1.854   3.839  0.4585 -0.2978 -1.8095
 2527TIP3   OH229071   5.394   4.004  14.750 -0.1457  0.0921  0.5474
 2527TIP3    H129072   5.359   4.013  14.838 -0.4353  2.5359  0.2106
 2527TIP3    H229073   5.456   4.077  14.741 -1.4083  0.9148 -1.8608
 2528TIP3   OH229074   0.636   1.617   2.808 -0.2605  0.2319  0.4699
 2528TIP3    H129075   0.649   1.546   2.870 -2.4417 -0.3794  0.2764
 2528TIP3    H229076   0.707   1.607   2.744  1.5539  0.4266  2.4281
 2529TIP3   OH229077   4.979   2.835  16.779  0.0838 -0.0092 -0.4402
 2529TIP3    H129078   4.977   2.787  16.862  1.0200  0.2344 -0.2714
 2529TIP3    H229079   4.894   2.817  16.739 -0.4792  0.0892  0.6952
 2530TIP3   OH229080   6.512   0.169  11.442 -0.0208 -0.0817 -0.4108
 2530TIP3    H129081   6.434   0.162  11.387  0.9884 -1.5411 -1.6902
 2530TIP3    H229082   6.540   0.079  11.457  2.2137  0.4512 -1.1477
 2531TIP3   OH229083   1.056   1.444  12.378 -0.5375 -0.2852  0.0580
 2531TIP3    H129084   1.105   1.419  12.457  0.0969 -0.4108 -0.3684
 2531TIP3    H229085   1.049   1.539  12.384 -0.5996 -0.3040  0.3256
 2532TIP3   OH229086   1.267   1.532  16.411  0.1183  0.4499  0.3934
 2532TIP3    H129087   1.351   1.566  16.379  1.3742 -2.5739  0.3043
 2532TIP3    H229088   1.291   1.475  16.484 -1.5606 -2.2778 -1.0644
 2533TIP3   OH229089   0.400   5.974  13.736  0.3519 -0.3515  0.0105
 2533TIP3    H129090   0.323   6.022  13.706  0.5318  0.1288  0.3114
 2533TIP3    H229091   0.393   5.974  13.831  1.4830  0.9750  0.1052
 2534TIP3   OH229092   2.292   4.936   6.216  0.1473 -0.2441  0.7038
 2534TIP3    H129093   2.206   4.923   6.176 -0.1349  1.8734  0.5610
 2534TIP3    H229094   2.274   4.942   6.310 -0.0200  1.2145  0.5959
 2535TIP3   OH229095   3.190   3.846   0.276  0.1106  0.2192 -0.0033
 2535TIP3    H129096   3.266   3.787   0.271  0.5732  0.8641 -0.5872
 2535TIP3    H229097   3.197   3.886   0.363  1.7054  1.9577 -0.9000
 2536TIP3   OH229098   6.300   3.179  11.529  0.0227 -0.0069  1.3647
 2536TIP3    H129099   6.392   3.151  11.532  0.1167  0.2484  0.7132
 2536TIP3    H229100   6.294   3.247  11.597  0.5731  0.7608  0.6544
 2537TIP3   OH229101   6.746   0.843   0.604  0.5999 -0.2066 -0.2402
 2537TIP3    H129102   6.829   0.884   0.629  0.1250 -0.2130  1.4156
 2537TIP3    H229103   6.685   0.916   0.593 -0.3019 -0.4045  2.9154
 2538TIP3   OH229104   2.686   3.706  11.580 -0.3128 -0.4628 -0.5797
 2538TIP3    H129105   2.612   3.747  11.624 -0.2763 -2.3902  1.3131
 2538TIP3    H229106   2.732   3.780  11.539 -2.9221  0.8210 -1.3383
 2539TIP3   OH229107   2.355   3.230  14.123 -0.2786 -0.6360 -0.3222
 2539TIP3    H129108   2.268   3.271  14.127 -0.7402 -1.6173 -0.1070
 2539TIP3    H229109   2.336   3.136  14.119  0.7553 -0.8133 -1.1310
 2540TIP3   OH229110   2.155   6.200   0.950  0.0840 -0.4728  0.7077
 2540TIP3    H129111   2.227   6.261   0.938  0.2458 -0.7675  0.1637
 2540TIP3    H229112   2.195   6.114   0.943 -0.7205 -0.6867 -2.3868
 2541TIP3   OH229113   2.763   3.872   3.731  0.0742  0.3162 -0.4942
 2541TIP3    H129114   2.800   3.813   3.666 -1.6233  0.7200 -1.8656
 2541TIP3    H229115   2.670   3.848   3.735  0.0064  0.8056  1.2316
 2542TIP3   OH229116   3.485   5.715  13.689  0.5407  0.2351 -0.5167
 2542TIP3    H129117   3.505   5.716  13.783 -0.3763  1.9981 -0.3230
 2542TIP3    H229118   3.550   5.774  13.651 -1.0710  2.0033 -0.5600
 2543TIP3   OH229119   0.051   2.445   3.862  0.5301  0.1210  0.4495
 2543TIP3    H129120   0.138   2.479   3.882  0.5833 -1.3925  2.9655
 2543TIP3    H229121   0.067   2.357   3.828 -0.1246 -1.0954  3.2201
 2544TIP3   OH229122   6.260   0.051   4.307  0.3159  0.1176 -0.1538
 2544TIP3    H129123   6.174   0.016   4.331  1.0106 -2.0790 -0.7709
 2544TIP3    H229124   6.307  -0.023   4.269  1.6056  1.8677 -2.1535
 2545TIP3   OH229125   2.620   5.626   3.841  0.4400 -0.3221 -0.3088
 2545TIP3    H129126   2.565   5.652   3.767 -0.2843 -0.8629  0.0284
 2545TIP3    H229127   2.627   5.531   3.834  0.4545 -0.3659  0.2506
 2546TIP3   OH229128   2.336   1.700  16.091 -0.2564 -0.0516 -0.0312
 2546TIP3    H129129   2.332   1.605  16.090 -0.1747 -0.0539 -1.8702
 2546TIP3    H229130   2.245   1.728  16.089 -0.2785 -0.0728  0.4545
 2547TIP3   OH229131   4.661   4.671  17.285 -0.4069 -0.2039 -0.0217
 2547TIP3    H129132   4.626   4.757  17.262  1.2062  0.5527  0.3086
 2547TIP3    H229133   4.669   4.625  17.201 -0.2687  0.3608 -0.3170
 2548TIP3   OH229134   4.153   6.032   2.967  0.2736  0.8600 -0.6175
 2548TIP3    H129135   4.236   6.044   2.921  0.6854 -1.4358 -0.5648
 2548TIP3    H229136   4.087   6.069   2.908  1.1362  0.9035 -1.5699
 2549TIP3   OH229137   2.043   0.073   1.704 -0.1097 -0.3496 -0.1822
 2549TIP3    H129138   2.114   0.055   1.765  0.6563  0.8177 -0.7069
 2549TIP3    H229139   2.009  -0.013   1.681  1.0202 -0.9146  0.2171
 2550TIP3   OH229140   5.535   6.321  14.513 -0.2497 -0.0497  0.2300
 2550TIP3    H129141   5.467   6.262  14.481 -1.8012 -0.1335  3.4142
 2550TIP3    H229142   5.573   6.275  14.588  1.1923  1.3543  0.3911
 2551TIP3   OH229143   2.040   6.295   1.436 -0.3296  0.0550 -0.1365
 2551TIP3    H129144   2.055   6.281   1.343 -0.0369  1.5724 -0.3127
 2551TIP3    H229145   1.969   6.359   1.440  0.3695  0.7789  0.6869
 2552TIP3   OH229146   2.002   2.667   2.645 -0.2037 -0.0520 -0.2847
 2552TIP3    H129147   1.942   2.593   2.659  0.4180 -0.3651  0.7868
 2552TIP3    H229148   1.954   2.725   2.586 -1.1277 -0.8083 -0.3068
 2553TIP3   OH229149   5.769   3.953  14.128  0.1090 -0.5029 -0.3022
 2553TIP3    H129150   5.793   3.945  14.220  2.3486  0.6823 -0.7297
 2553TIP3    H229151   5.731   4.040  14.120 -2.2293 -1.4885 -0.0809
 2554TIP3   OH229152   1.273   3.357  13.825 -0.0043 -0.1264  0.4496
 2554TIP3    H129153   1.217   3.434  13.834  0.7580  0.6100 -0.9956
 2554TIP3    H229154   1.318   3.349  13.909 -0.8055  0.4351  0.9281
 2555TIP3   OH229155   5.726   3.197  15.418 -0.0896 -0.6741  0.0981
 2555TIP3    H129156   5.649   3.249  15.436  0.3217 -0.2419  0.6261
 2555TIP3    H229157   5.705   3.109  15.449 -0.2949 -0.5099  0.4152
 2556TIP3   OH229158   3.557   6.538   1.583  0.0145 -0.4024  0.7299
 2556TIP3    H129159   3.537   6.627   1.554 -1.4709 -0.9769 -0.0346
 2556TIP3    H229160   3.475   6.506   1.620  1.1002 -0.7301  2.9353
 2557TIP3   OH229161   3.184   0.558   0.894  0.0854 -0.2902 -0.3526
 2557TIP3    H129162   3.123   0.552   0.967  0.3097  0.0042 -0.1391
 2557TIP3    H229163   3.211   0.650   0.893 -0.0505 -0.2498 -0.9148
 2558TIP3   OH229164   4.043   1.309  14.274 -0.2310 -0.0077 -0.1961
 2558TIP3    H129165   4.052   1.379  14.210  0.3474 -1.1304 -1.3687
 2558TIP3    H229166   3.961   1.329  14.321  0.4072  1.9416  0.1399
 2559TIP3   OH229167   2.029   0.720  12.276 -0.0507  0.5754 -0.4039
 2559TIP3    H129168   2.084   0.691  12.349  0.1064  1.2359 -0.2583
 2559TIP3    H229169   2.007   0.639  12.229 -0.8739  0.0419  0.8748
 2560TIP3   OH229170   2.094   3.572   4.130  0.0619 -0.1098  0.0510
 2560TIP3    H129171   2.011   3.599   4.090  0.4241 -0.0163 -0.6514
 2560TIP3    H229172   2.124   3.649   4.178 -1.4060 -0.8732  2.2596
 2561TIP3   OH229173   4.125   2.922  16.027  0.3492 -0.1075 -0.5638
 2561TIP3    H129174   4.113   2.827  16.019 -0.7538 -0.2999  2.7166
 2561TIP3    H229175   4.211   2.931  16.068 -0.5353  0.1807  1.2780
 2562TIP3   OH229176   2.384   0.715  10.624  0.3962 -0.2900 -0.3198
 2562TIP3    H129177   2.463   0.667  10.598 -0.8318 -1.8526 -1.3064
 2562TIP3    H229178   2.381   0.705  10.720  1.6341  0.1797 -0.2223
 2563TIP3   OH229179   2.224   6.244  11.158  1.0403  0.2930  0.8766
 2563TIP3    H129180   2.141   6.262  11.115 -0.7933  0.5873  4.3780
 2563TIP3    H229181   2.286   6.304  11.116 -0.8126  1.1429 -0.7364
 2564TIP3   OH229182   0.731   5.883   1.196  0.3053 -0.0344 -0.1766
 2564TIP3    H129183   0.717   5.966   1.241 -0.2005 -0.2284  0.0248
 2564TIP3    H229184   0.819   5.891   1.157 -0.2589  1.0975 -1.2550
 2565TIP3   OH229185   5.857   0.160   5.790 -0.1862 -0.0945  0.6298
 2565TIP3    H129186   5.816   0.132   5.872 -1.0230 -0.1489  0.1993
 2565TIP3    H229187   5.864   0.079   5.738 -1.1991  0.2251 -0.0128
 2566TIP3   OH229188   4.383   3.018  13.950  0.0399  0.0289  0.0761
 2566TIP3    H129189   4.461   3.038  14.002 -0.8354 -0.4241  1.5985
 2566TIP3    H229190   4.319   3.084  13.976 -0.0594  0.4618 -1.2400
 2567TIP3   OH229191   4.079   5.925   5.421 -0.0791 -0.3537 -0.2534
 2567TIP3    H129192   4.002   5.981   5.431 -1.0769 -1.6957 -0.2840
 2567TIP3    H229193   4.102   5.900   5.510  0.3421  0.0543 -0.2433
 2568TIP3   OH229194   3.714   0.996  13.919  0.1161 -0.0734 -0.0066
 2568TIP3    H129195   3.672   0.973  13.836 -0.5600 -0.6481  0.4772
 2568TIP3    H229196   3.659   1.065  13.955  0.3462  0.1001  0.0092
 2569TIP3   OH229197   2.369   1.518   0.460  0.3253  0.7375  0.1257
 2569TIP3    H129198   2.334   1.456   0.396 -0.7724  1.5422 -0.0662
 2569TIP3    H229199   2.445   1.473   0.497  0.5019 -0.0624 -1.1633
 2570TIP3   OH229200   2.050   4.316  10.746 -0.1484 -0.2091 -0.2357
 2570TIP3    H129201   2.052   4.412  10.742  0.0703 -0.1720  0.7978
 2570TIP3    H229202   2.135   4.289  10.713  0.0275 -0.0230  0.0604
 2571TIP3   OH229203   4.623   0.515  14.412  0.6829 -0.0934  1.3018
 2571TIP3    H129204   4.608   0.421  14.420  0.6282 -0.6205 -3.5641
 2571TIP3    H229205   4.714   0.523  14.384 -0.6158  0.8620 -3.0768
 2572TIP3   OH229206   3.919   3.237  13.710 -0.5884 -0.2594  0.6704
 2572TIP3    H129207   4.000   3.238  13.762 -0.4648 -1.2324  0.5112
 2572TIP3    H229208   3.888   3.147  13.717 -1.8994  0.2080  1.0932
 2573TIP3   OH229209   0.344   5.321  14.544  0.6502 -0.2545 -0.1470
 2573TIP3    H129210   0.305   5.407  14.529 -0.3506 -1.3715 -4.6663
 2573TIP3    H229211   0.424   5.322  14.491 -0.3173 -2.6730 -1.7341
 2574TIP3   OH229212   3.711   3.075   4.688 -0.4042 -0.1597  0.4840
 2574TIP3    H129213   3.753   3.148   4.734  2.7654 -1.1551 -0.6526
 2574TIP3    H229214   3.761   2.998   4.715 -0.5013 -1.1915 -2.0941
 2575TIP3   OH229215   3.262   3.022   0.639  1.1258 -0.0939 -0.1413
 2575TIP3    H129216   3.290   3.082   0.708  1.7820 -2.0355  1.3201
 2575TIP3    H229217   3.328   3.031   0.570  1.6224  0.3059  0.3901
 2576TIP3   OH229218   6.527   0.071   3.116  0.1297 -0.8574 -0.0458
 2576TIP3    H129219   6.561  -0.019   3.116  0.2545 -0.8743  3.1825
 2576TIP3    H229220   6.601   0.125   3.089  0.4210 -1.6251 -0.7731
 2577TIP3   OH229221   2.157   1.036   2.296 -0.0014 -0.2891 -0.3191
 2577TIP3    H129222   2.066   1.048   2.269  0.0759 -0.2405 -0.5617
 2577TIP3    H229223   2.204   1.020   2.214 -0.0152 -1.7578 -0.0435
 2578TIP3   OH229224   4.146   3.781   3.356 -0.2745  0.0745 -0.5126
 2578TIP3    H129225   4.218   3.765   3.418  0.6792  1.2049 -1.3044
 2578TIP3    H229226   4.073   3.810   3.412  0.6154  1.2092  0.0959
 2579TIP3   OH229227   1.730   6.129  15.832 -0.5687 -0.5516 -0.1512
 2579TIP3    H129228   1.656   6.081  15.868 -0.6993 -2.4275 -2.7087
 2579TIP3    H229229   1.803   6.066  15.834 -0.6981 -0.9160 -3.3855
 2580TIP3   OH229230   4.584   1.213   4.309  0.6951  0.0671 -0.3072
 2580TIP3    H129231   4.629   1.222   4.225  2.5568 -0.7946  0.5627
 2580TIP3    H229232   4.537   1.130   4.302  1.3322 -0.2973 -0.2853
 2581TIP3   OH229233   1.936   0.800   2.313  0.0118  0.6745  0.2212
 2581TIP3    H129234   1.978   0.732   2.366  0.2227  0.6068 -0.0317
 2581TIP3    H229235   1.922   0.873   2.374  1.3421  1.0549  0.0980
 2582TIP3   OH229236   6.230   5.490   4.003 -0.1377  0.0887  0.0681
 2582TIP3    H129237   6.157   5.442   4.042  2.9934 -4.7866  0.3865
 2582TIP3    H229238   6.272   5.534   4.076 -0.0269 -0.9462  0.6325
 2583TIP3   OH229239   3.813   0.096   4.497 -0.0819 -0.4067 -0.2302
 2583TIP3    H129240   3.722   0.122   4.481 -0.0415 -0.3418 -0.3534
 2583TIP3    H229241   3.826   0.113   4.590  0.0166  0.2356 -0.3563
 2584TIP3   OH229242   0.695   1.828  16.746  0.2244  0.1210  0.2496
 2584TIP3    H129243   0.691   1.742  16.788  1.1891  0.1929  0.5048
 2584TIP3    H229244   0.760   1.817  16.676  1.0646  0.8957  0.8950
 2585TIP3   OH229245   4.662   0.900  14.107 -0.1999 -0.1917 -0.0444
 2585TIP3    H129246   4.586   0.901  14.164  1.0312 -0.8676  1.6236
 2585TIP3    H229247   4.734   0.869  14.162  0.9618 -1.0820 -2.0093
 2586TIP3   OH229248   3.515   1.397  10.377  0.1461 -0.2303  0.4786
 2586TIP3    H129249   3.573   1.440  10.440  1.6733 -1.8950  0.2427
 2586TIP3    H229250   3.441   1.458  10.368  1.8296  1.9318  0.7909
 2587TIP3   OH229251   0.161   3.251  16.860  0.1821 -0.0840 -0.5307
 2587TIP3    H129252   0.096   3.318  16.883 -0.5334 -1.0508  0.3656
 2587TIP3    H229253   0.183   3.210  16.944  1.4946 -0.1899 -0.9189
 2588TIP3   OH229254   6.080   6.353   5.242  0.5978  0.0021  0.0249
 2588TIP3    H129255   6.159   6.406   5.235  0.4590  0.2689  0.5081
 2588TIP3    H229256   6.008   6.417   5.242  0.4701 -0.1378  1.4399
 2589TIP3   OH229257   3.865   0.241   2.872 -0.1544  0.1742  0.3245
 2589TIP3    H129258   3.909   0.216   2.953  0.0291  1.1435  0.5238
 2589TIP3    H229259   3.772   0.227   2.890  0.0055 -1.2510  0.1196
 2590TIP3   OH229260   4.833   6.639   3.498 -0.2908 -0.5504  0.6393
 2590TIP3    H129261   4.893   6.626   3.572  2.0536 -0.6324 -1.2186
 2590TIP3    H229262   4.843   6.731   3.475  0.3861 -0.9609 -0.7374
 2591TIP3   OH229263   4.053   1.400  11.866  0.4746 -0.4646 -0.8888
 2591TIP3    H129264   3.987   1.346  11.910  0.2443 -0.1816 -0.8877
 2591TIP3    H229265   4.130   1.394  11.923 -0.2118  0.9154  0.2199
 2592TIP3   OH229266   0.398   1.444   6.444  0.0355  0.6200 -0.0555
 2592TIP3    H129267   0.444   1.370   6.404  0.3568  1.0483 -0.4903
 2592TIP3    H229268   0.329   1.404   6.497  2.1598 -0.1385  2.2699
 2593TIP3   OH229269   0.018   2.027   1.069  0.4746 -0.5661  0.0307
 2593TIP3    H129270   0.008   1.994   0.980  2.3466  0.4410 -0.5990
 2593TIP3    H229271   0.068   1.960   1.115  0.1169 -0.7678  0.1281
 2594TIP3   OH229272   5.427   3.401   2.502 -0.7883  0.2672  0.0747
 2594TIP3    H129273   5.456   3.474   2.448  1.6390 -1.8034 -1.5622
 2594TIP3    H229274   5.374   3.347   2.444 -1.3190 -0.0543  0.8405
 2595TIP3   OH229275   5.711   2.450  13.623  0.3890  0.6383 -0.3317
 2595TIP3    H129276   5.701   2.467  13.717  0.6663 -0.3605 -0.1174
 2595TIP3    H229277   5.752   2.529  13.589  1.1507  0.6434  0.5532
 2596TIP3   OH229278   6.322   4.692   5.305 -0.3697 -0.2105  0.3601
 2596TIP3    H129279   6.264   4.752   5.259 -0.2698 -0.3958 -0.0072
 2596TIP3    H229280   6.349   4.628   5.239  1.1534  0.5305  0.2185
 2597TIP3   OH229281   5.048   2.814  11.967 -0.3507  0.0515  0.0199
 2597TIP3    H129282   5.041   2.718  11.965 -1.3234  0.1223 -2.8469
 2597TIP3    H229283   4.979   2.842  12.027 -0.2296 -1.0163  0.6761
 2598TIP3   OH229284   5.654   3.381  11.863  0.0201 -0.1528  0.2044
 2598TIP3    H129285   5.723   3.331  11.906 -0.3479 -0.5642  0.3193
 2598TIP3    H229286   5.624   3.325  11.791  0.2434  0.2911 -0.2386
 2599TIP3   OH229287   4.265   4.283   4.815 -0.2052  0.0502 -0.2541
 2599TIP3    H129288   4.204   4.271   4.742 -0.8497 -1.0504  0.4473
 2599TIP3    H229289   4.329   4.346   4.782 -1.4088  0.8125 -1.1910
 2600TIP3   OH229290   1.034   6.301   0.246  0.1443 -0.4948  0.3392
 2600TIP3    H129291   1.056   6.249   0.323 -0.7256 -0.0400  0.9005
 2600TIP3    H229292   0.966   6.362   0.277  0.2448  0.1111 -0.6226
 2601TIP3   OH229293   6.423   6.206  13.017  0.2444  0.4127 -0.0844
 2601TIP3    H129294   6.477   6.128  13.031 -0.0681  0.2949  0.4691
 2601TIP3    H229295   6.409   6.242  13.105  2.1172  2.2740 -0.4992
 2602TIP3   OH229296   2.194   1.549   1.967 -0.4209  0.9509 -0.2218
 2602TIP3    H129297   2.223   1.637   1.943  1.9736  1.2768  3.5185
 2602TIP3    H229298   2.154   1.560   2.053 -2.2607 -1.2889 -0.7375
 2603TIP3   OH229299   4.886   6.244   0.901  0.0817  0.1331 -0.2315
 2603TIP3    H129300   4.802   6.258   0.857 -0.3297  1.4996  0.9529
 2603TIP3    H229301   4.949   6.288   0.844 -0.0357 -0.5793 -0.9332
 2604TIP3   OH229302   6.379   2.906   2.416 -0.0104 -0.3629  0.0425
 2604TIP3    H129303   6.354   2.863   2.498  0.7286 -0.0175  0.4564
 2604TIP3    H229304   6.306   2.890   2.357 -0.3022 -1.0933  0.5976
 2605TIP3   OH229305   3.336   1.946  14.611  0.0017  0.6193 -0.8234
 2605TIP3    H129306   3.282   1.879  14.568  1.3503 -1.9598  1.3492
 2605TIP3    H229307   3.368   2.000  14.538  0.3262 -2.1956 -2.8866
 2606TIP3   OH229308   6.326   5.778   2.350  0.6278 -0.6172 -0.0516
 2606TIP3    H129309   6.282   5.836   2.288  0.2708 -0.9742 -0.1324
 2606TIP3    H229310   6.384   5.836   2.400  1.6932 -0.4888 -1.4083
 2607TIP3   OH229311   0.320   2.380   3.510 -0.4742  0.2421  0.5090
 2607TIP3    H129312   0.253   2.312   3.508 -0.6915  0.4714  0.0151
 2607TIP3    H229313   0.271   2.461   3.528 -0.4869  0.6042 -1.1255
 2608TIP3   OH229314   4.703   6.027   6.133  0.2140 -0.3693 -0.0204
 2608TIP3    H129315   4.785   5.983   6.155  0.3478  0.8369  1.9858
 2608TIP3    H229316   4.649   6.018   6.212 -0.2172  1.9847 -0.0279
 2609TIP3   OH229317   4.131   0.784  17.180 -0.5449 -0.4499  0.4388
 2609TIP3    H129318   4.144   0.736  17.262  0.1498  1.0113  1.2046
 2609TIP3    H229319   4.037   0.776  17.163 -1.0641  0.8843  2.4461
 2610TIP3   OH229320   3.907   6.048   1.717 -0.0377  0.4151 -0.3522
 2610TIP3    H129321   3.933   6.031   1.807  0.0831 -1.6756 -0.7596
 2610TIP3    H229322   3.867   6.135   1.720 -0.8203  0.0279  1.8884
 2611TIP3   OH229323   0.719   1.320  11.464 -0.0906 -0.3191 -0.0761
 2611TIP3    H129324   0.718   1.231  11.429  0.4276 -0.0771 -0.7242
 2611TIP3    H229325   0.812   1.344  11.467 -0.3316  0.8907 -1.7138
 2612TIP3   OH229326   2.305   5.780  15.861  0.7740  0.5307 -0.0735
 2612TIP3    H129327   2.388   5.822  15.882  0.7651  0.3144  0.3888
 2612TIP3    H229328   2.266   5.837  15.794  0.0433  2.1292  1.6779
 2613TIP3   OH229329   4.317   1.588   1.505 -0.3522 -0.6166 -0.1515
 2613TIP3    H129330   4.361   1.620   1.583  0.2997 -0.9591 -0.3718
 2613TIP3    H229331   4.297   1.497   1.524  0.7881 -1.0125 -0.7909
 2614TIP3   OH229332   4.442   3.581  15.386 -0.1816  0.3370  0.3361
 2614TIP3    H129333   4.405   3.503  15.428 -0.9327  0.7054  0.3771
 2614TIP3    H229334   4.365   3.635  15.364  0.3513  1.2559  0.6891
 2615TIP3   OH229335   0.244   0.270  12.448 -0.1968 -0.0477 -0.1311
 2615TIP3    H129336   0.266   0.340  12.509 -0.1552 -1.7694  1.9260
 2615TIP3    H229337   0.149   0.259  12.458 -0.1334 -0.5788 -0.0893
 2616TIP3   OH229338   4.541   5.652   1.881  0.1023  0.0208 -0.7652
 2616TIP3    H129339   4.592   5.611   1.811  0.6773 -1.7616  0.6473
 2616TIP3    H229340   4.601   5.656   1.955 -1.0799  0.1109  0.2058
 2617TIP3   OH229341   3.522   0.641   0.596  0.3130 -0.3271 -0.1447
 2617TIP3    H129342   3.474   0.723   0.605 -0.2900 -0.7633  0.6740
 2617TIP3    H229343   3.552   0.640   0.505  0.2512  0.7531 -0.1780
 2618TIP3   OH229344   1.032   3.845   1.756 -0.0664  0.2671 -0.0165
 2618TIP3    H129345   1.066   3.765   1.716 -0.4975 -0.2967  0.7290
 2618TIP3    H229346   1.042   3.912   1.688  1.0105 -0.2481 -0.3690
 2619TIP3   OH229347   3.797   4.085  15.987  0.1911  0.2225 -0.4493
 2619TIP3    H129348   3.814   4.056  15.898 -3.0855 -1.2985 -0.6726
 2619TIP3    H229349   3.853   4.030  16.042  0.2871 -0.6665 -1.4186
 2620TIP3   OH229350   3.614   3.743  12.247 -0.2478 -0.3667  0.0025
 2620TIP3    H129351   3.682   3.680  12.227 -0.6766 -0.7198 -0.3522
 2620TIP3    H229352   3.584   3.775  12.161 -0.4137 -0.0902  0.1586
 2621TIP3   OH229353   3.409   0.056  10.609 -0.0958  0.3488  0.2238
 2621TIP3    H129354   3.391   0.128  10.549  1.6144  0.5311 -0.0728
 2621TIP3    H229355   3.371  -0.021  10.566  0.3172  0.6354 -0.6509
 2622TIP3   OH229356   0.617   5.694  12.589  0.0436 -0.4079 -0.0967
 2622TIP3    H129357   0.673   5.770  12.571 -0.1683 -0.3879 -0.6872
 2622TIP3    H229358   0.533   5.731  12.616 -0.6560 -0.4060 -2.2028
 2623TIP3   OH229359   1.179   2.609   4.126 -0.4284  0.3126  0.3853
 2623TIP3    H129360   1.246   2.564   4.178 -0.7178 -0.9787 -0.3386
 2623TIP3    H229361   1.207   2.597   4.035 -0.6734  1.3475  0.1670
 2624TIP3   OH229362   1.822   4.916  13.941  0.3185  0.2155  0.1947
 2624TIP3    H129363   1.782   4.884  14.022  1.4636  1.7948  1.4402
 2624TIP3    H229364   1.748   4.932  13.883 -0.6031 -0.1338  1.2397
 2625TIP3   OH229365   3.452   5.152  16.384 -0.2524  0.0491 -0.0217
 2625TIP3    H129366   3.479   5.147  16.476  1.5006 -0.3982 -0.5444
 2625TIP3    H229367   3.431   5.062  16.361 -2.0554  0.3679  0.3268
 2626TIP3   OH229368   1.424   4.689   2.896 -0.3133 -0.0943  0.2441
 2626TIP3    H129369   1.362   4.736   2.952  0.7120  0.3465  1.0415
 2626TIP3    H229370   1.455   4.756   2.835 -0.1908 -0.1601  0.2341
 2627TIP3   OH229371   5.143   4.247   1.250  0.0767 -0.1733 -0.1656
 2627TIP3    H129372   5.186   4.332   1.251  0.0858 -0.1648 -1.1644
 2627TIP3    H229373   5.116   4.234   1.159  2.1986 -2.2891 -0.5561
 2628TIP3   OH229374   1.766   0.052  14.444  0.2767  0.7784 -0.1933
 2628TIP3    H129375   1.826   0.075  14.373  0.3511  2.2402  0.3234
 2628TIP3    H229376   1.721   0.134  14.464 -0.5797  0.1043  0.6606
 2629TIP3   OH229377   3.626   2.439   5.595  0.1194  0.4678 -0.3396
 2629TIP3    H129378   3.580   2.508   5.547 -2.3893 -1.1345 -0.3240
 2629TIP3    H229379   3.630   2.473   5.685  0.1140  1.1730 -0.5957
 2630TIP3   OH229380   3.403   1.616   4.028  0.1877 -0.7002  0.0926
 2630TIP3    H129381   3.402   1.543   4.089  0.1880 -0.3965  0.4567
 2630TIP3    H229382   3.476   1.671   4.057  0.2322 -0.5906 -0.2214
 2631TIP3   OH229383   4.830   3.354  13.828 -0.3439  0.0863  0.3254
 2631TIP3    H129384   4.752   3.310  13.796  0.1320  0.5537 -1.5185
 2631TIP3    H229385   4.808   3.447  13.823  1.0524  0.3130 -2.1868
 2632TIP3   OH229386   2.111   3.809  12.221  0.0764  0.1019 -0.2238
 2632TIP3    H129387   2.113   3.904  12.217  2.4126  0.1871  1.8916
 2632TIP3    H229388   2.026   3.785  12.184 -1.2722  3.0841  0.8125
 2633TIP3   OH229389   1.117   3.113  14.673  0.3396 -0.1946 -0.3936
 2633TIP3    H129390   1.044   3.174  14.677 -0.0402 -0.6254 -0.7763
 2633TIP3    H229391   1.133   3.100  14.580  0.3305 -0.7831 -0.3152
 2634TIP3   OH229392   4.033   0.931   3.987  0.0580 -0.2751  0.1603
 2634TIP3    H129393   3.956   0.882   3.957 -0.6569  0.9148  0.0048
 2634TIP3    H229394   4.022   1.018   3.950  0.6561  0.3803  1.4684
 2635TIP3   OH229395   4.407   2.962   4.205  0.5937  0.4450  0.1385
 2635TIP3    H129396   4.470   2.891   4.207  0.1582  0.0861  1.3352
 2635TIP3    H229397   4.404   2.995   4.295 -1.6260 -0.1854  0.3244
 2636TIP3   OH229398   0.852   3.609   5.763  0.0876 -1.0410 -0.4028
 2636TIP3    H129399   0.925   3.601   5.825  0.0485 -0.1038 -0.2314
 2636TIP3    H229400   0.806   3.525   5.770 -0.0910 -0.8261  1.0623
 2637TIP3   OH229401   0.677   2.534  10.396  0.3237 -0.1354 -0.2883
 2637TIP3    H129402   0.599   2.527  10.451  0.1234 -1.9235 -0.7703
 2637TIP3    H229403   0.660   2.475  10.323  2.4701 -1.1675  0.0168
 2638TIP3   OH229404   1.788   1.657  12.914 -0.2803 -0.0797  0.1067
 2638TIP3    H129405   1.708   1.605  12.906  0.8001 -2.0740  1.8233
 2638TIP3    H229406   1.768   1.738  12.868 -2.7397 -1.1730 -0.8466
 2639TIP3   OH229407   2.235   1.952   5.587 -0.1378 -0.5637 -0.3015
 2639TIP3    H129408   2.226   1.922   5.677 -1.3194 -0.8550 -0.5061
 2639TIP3    H229409   2.271   2.040   5.594 -0.4610 -0.4904  0.4686
 2640TIP3   OH229410   2.887   0.039  13.976  0.2052  0.1219 -0.4551
 2640TIP3    H129411   2.960   0.033  13.914  0.2015 -2.5028 -0.2633
 2640TIP3    H229412   2.928   0.029  14.062 -0.0205  1.7677 -0.1546
 2641TIP3   OH229413   4.181   0.232  14.620  0.1283 -0.1456  0.0818
 2641TIP3    H129414   4.121   0.235  14.694  0.8295  2.0181  0.5978
 2641TIP3    H229415   4.265   0.261  14.655  0.5614  0.5419 -1.4549
 2642TIP3   OH229416   1.909   4.202  11.503 -0.3254 -0.1384 -0.0349
 2642TIP3    H129417   1.906   4.214  11.409  1.2170  0.1686 -0.0550
 2642TIP3    H229418   1.926   4.108  11.515  2.4695  0.3023 -0.1422
 2643TIP3   OH229419   0.570   6.583   0.068 -0.9306  0.4683  0.8502
 2643TIP3    H129420   0.620   6.615  -0.006 -1.2660  0.2573  0.5290
 2643TIP3    H229421   0.484   6.625   0.059 -1.1751 -0.0433  0.7672
 2644TIP3   OH229422   3.656   5.327   0.602  0.1878 -0.1234 -0.7339
 2644TIP3    H129423   3.683   5.285   0.521  0.5098  0.7090 -1.0709
 2644TIP3    H229424   3.694   5.274   0.672  0.7076 -0.3055 -1.1555
 2645TIP3   OH229425   1.270   3.415   5.166 -0.1185  0.5018 -0.2121
 2645TIP3    H129426   1.187   3.462   5.168 -1.1177 -1.1786 -1.1135
 2645TIP3    H229427   1.248   3.326   5.192  1.1619 -0.2666 -1.6535
 2646TIP3   OH229428   1.264   3.084  10.349 -0.0998  0.6496 -0.2901
 2646TIP3    H129429   1.199   3.105  10.416 -0.2875 -1.5762  0.2550
 2646TIP3    H229430   1.228   3.007  10.304  2.5042 -1.1375  0.5703
 2647TIP3   OH229431   0.904   2.421   5.940  0.7666 -0.0685  0.1088
 2647TIP3    H129432   0.861   2.396   6.021 -0.9180  0.6541 -0.5444
 2647TIP3    H229433   0.949   2.503   5.960  2.0688 -0.9552  0.8622
 2648TIP3   OH229434   1.629   5.330   0.703 -0.1982 -0.1442  0.7076
 2648TIP3    H129435   1.645   5.290   0.789 -1.5221 -1.3235  0.4199
 2648TIP3    H229436   1.662   5.265   0.640 -1.8276 -0.5424  0.2534
 2649TIP3   OH229437   2.417   3.215  11.963 -0.1708  0.0464 -0.1150
 2649TIP3    H129438   2.486   3.240  11.901  0.5637 -2.7219 -0.4816
 2649TIP3    H229439   2.336   3.245  11.921  0.4470 -0.5111 -1.7490
 2650TIP3   OH229440   1.472   6.091   4.935  0.1942 -0.1899 -0.0093
 2650TIP3    H129441   1.475   6.114   5.028 -0.9003 -0.6732  0.1474
 2650TIP3    H229442   1.430   6.005   4.933  1.0125 -0.5734 -0.8845
 2651TIP3   OH229443   1.809   3.802   1.147  0.0896 -0.2615  0.0731
 2651TIP3    H129444   1.805   3.722   1.199 -0.3776  0.2167  0.7846
 2651TIP3    H229445   1.764   3.779   1.065 -1.2883 -0.3304  0.8229
 2652TIP3   OH229446   3.976   1.059  16.339  0.3613  0.1128 -0.4863
 2652TIP3    H129447   3.955   1.148  16.367 -1.7173 -0.4896 -0.0789
 2652TIP3    H229448   3.981   1.008  16.420  0.5859 -0.3364 -0.7788
 2653TIP3   OH229449   1.052   1.767  11.511  0.2370 -0.2128  0.1370
 2653TIP3    H129450   1.020   1.832  11.449 -0.0161  1.4210  1.9551
 2653TIP3    H229451   0.977   1.708  11.524  0.8651 -1.6743 -2.4718
 2654TIP3   OH229452   0.472   5.789  17.030 -0.7268 -0.1900 -0.2232
 2654TIP3    H129453   0.552   5.835  17.004  0.1415 -0.4689  1.8260
 2654TIP3    H229454   0.414   5.857  17.064 -1.5480  0.0651 -2.0607
 2655TIP3   OH229455   5.490   1.300   1.002 -0.3131 -0.2847  0.4174
 2655TIP3    H129456   5.495   1.310   0.907 -0.7137 -1.0701  0.3077
 2655TIP3    H229457   5.511   1.386   1.037 -1.2074  0.2765 -0.4149
 2656TIP3   OH229458   4.793   1.593   0.260  0.3152  0.5104  0.2571
 2656TIP3    H129459   4.759   1.536   0.192  0.4011  0.9244 -0.1327
 2656TIP3    H229460   4.818   1.533   0.331 -0.6835  0.1567  0.3206
 2657TIP3   OH229461   0.900   3.396   2.935  0.0867  0.0546  0.0002
 2657TIP3    H129462   0.926   3.481   2.972 -1.6209 -0.2342  1.9908
 2657TIP3    H229463   0.845   3.419   2.859  0.9040  0.7080 -0.3953
 2658TIP3   OH229464   6.146   0.393   0.547  0.4357 -0.5897  0.0206
 2658TIP3    H129465   6.077   0.403   0.612  0.1839 -0.2689 -0.2879
 2658TIP3    H229466   6.102   0.350   0.473  0.4715 -0.0607 -0.3143
 2659TIP3   OH229467   1.894   6.257   0.129  0.0668 -0.3099  0.1966
 2659TIP3    H129468   1.821   6.201   0.102 -0.9399  0.6055  1.0038
 2659TIP3    H229469   1.931   6.289   0.046 -0.1044 -1.1902 -0.2297
 2660TIP3   OH229470   4.782   1.088  17.013 -0.0605 -0.1525 -1.0368
 2660TIP3    H129471   4.697   1.121  17.042  0.3401  0.7900 -0.9261
 2660TIP3    H229472   4.781   0.995  17.038 -0.6299  0.0972 -0.0854
 2661TIP3   OH229473   6.011   0.071  15.744  0.0718  0.6243  0.2341
 2661TIP3    H129474   6.069   0.062  15.669  1.7764  0.8990  1.5035
 2661TIP3    H229475   6.013  -0.014  15.788  0.2697  0.9166  0.8076
 2662TIP3   OH229476   4.840   0.623  12.955  0.0807  0.0345 -0.1646
 2662TIP3    H129477   4.787   0.640  13.033 -0.0457  0.0250 -0.2478
 2662TIP3    H229478   4.776   0.612  12.884  0.0220 -2.8480  0.2570
 2663TIP3   OH229479   3.326   1.660   4.582 -0.3835  0.0107 -0.4375
 2663TIP3    H129480   3.332   1.612   4.664 -2.0841  1.1140  0.3591
 2663TIP3    H229481   3.244   1.631   4.542 -0.1654  0.3672 -1.1700
 2664TIP3   OH229482   2.517   3.473   4.287 -0.3914  0.1090 -0.2499
 2664TIP3    H129483   2.592   3.469   4.347 -0.3059 -1.5585 -0.4589
 2664TIP3    H229484   2.513   3.386   4.248 -0.9486  0.9286 -2.0661
 2665TIP3   OH229485   5.690   4.286   0.686 -0.2426  0.1220  0.3219
 2665TIP3    H129486   5.762   4.323   0.737  0.6673 -1.8914  0.5568
 2665TIP3    H229487   5.616   4.285   0.747  0.4207 -0.8145  1.1387
 2666TIP3   OH229488   4.592   0.293   0.177 -0.1710 -0.5310 -0.6778
 2666TIP3    H129489   4.538   0.361   0.217  1.3556 -0.3731  1.1841
 2666TIP3    H229490   4.591   0.221   0.239  0.2133 -1.2546 -1.5009
 2667TIP3   OH229491   1.059   2.563   2.463  0.2616 -0.7476 -0.2373
 2667TIP3    H129492   1.121   2.498   2.497  0.6601 -1.5608 -2.4016
 2667TIP3    H229493   0.989   2.510   2.424 -1.0029  0.1594  0.7690
 2668TIP3   OH229494   3.924   4.083  14.529  0.1569 -0.5220 -0.2059
 2668TIP3    H129495   3.998   4.075  14.470  0.7336 -1.6165  0.6510
 2668TIP3    H229496   3.964   4.096  14.615 -0.5634 -3.8825  0.7057
 2669TIP3   OH229497   2.631   4.025  14.322  0.6170  0.2027 -0.5079
 2669TIP3    H129498   2.644   4.008  14.228  1.0029 -0.3123 -0.3619
 2669TIP3    H229499   2.536   4.013  14.335  0.0549  3.3760 -1.4424
 2670TIP3   OH229500   4.846   5.971  11.951 -0.1615 -0.2080 -0.0976
 2670TIP3    H129501   4.874   5.901  12.010  0.3088 -0.5776 -0.7607
 2670TIP3    H229502   4.750   5.963  11.949 -0.2618  0.3929  1.3340
 2671TIP3   OH229503   5.411   2.732   6.834 -0.6063 -0.2869 -0.2848
 2671TIP3    H129504   5.339   2.673   6.812  0.6454 -1.0805 -2.4209
 2671TIP3    H229505   5.372   2.819   6.834 -2.0416 -0.9005  0.9147
 2672TIP3   OH229506   4.935   0.166  10.446 -0.1102  0.2620 -0.1423
 2672TIP3    H129507   4.899   0.222  10.377  0.1857 -0.6273 -1.0340
 2672TIP3    H229508   4.999   0.110  10.401  0.0686 -0.3483  0.8432
 2673TIP3   OH229509   5.824   0.798  14.461 -0.3463  0.4807  0.1949
 2673TIP3    H129510   5.918   0.788  14.444 -0.8214 -0.6193 -1.8535
 2673TIP3    H229511   5.809   0.749  14.542  0.7985  0.5127  0.4356
 2674TIP3   OH229512   1.329   0.546  11.862 -0.9275  0.1422  0.2090
 2674TIP3    H129513   1.370   0.502  11.937 -0.4887 -0.3029 -0.2812
 2674TIP3    H229514   1.239   0.514  11.862 -0.5414 -0.9613 -0.2906
 2675TIP3   OH229515   2.073   6.642  15.605 -0.4499 -0.3009 -0.8752
 2675TIP3    H129516   2.156   6.675  15.572  0.9807 -2.3239  0.5805
 2675TIP3    H229517   2.015   6.643  15.529  0.3321  2.8742 -1.4873
 2676TIP3   OH229518   2.941   2.178  15.132 -0.0054  0.0824  0.2792
 2676TIP3    H129519   3.035   2.165  15.149  0.1293  0.4225 -0.1914
 2676TIP3    H229520   2.911   2.235  15.203  0.2094  0.2052  0.2726
 2677TIP3   OH229521   1.682   2.185   1.573  0.5761 -0.6495 -0.0011
 2677TIP3    H129522   1.663   2.193   1.479 -0.0904  2.0175  0.3128
 2677TIP3    H229523   1.605   2.223   1.616  0.5483 -2.5332  1.6504
 2678TIP3   OH229524   6.676   3.336   1.680 -0.6257 -0.4989  0.2374
 2678TIP3    H129525   6.668   3.240   1.686 -2.4009 -0.5814 -2.2418
 2678TIP3    H229526   6.766   3.354   1.707 -1.0679 -2.5608  3.4064
 2679TIP3   OH229527   1.033   0.292   0.300 -0.1596  0.7143 -0.3189
 2679TIP3    H129528   1.100   0.244   0.250 -0.0763 -0.4105  0.8582
 2679TIP3    H229529   0.954   0.285   0.247  0.5651  1.8331 -1.6006
 2680TIP3   OH229530   5.283   2.706   4.045 -0.1682  0.0541 -0.6016
 2680TIP3    H129531   5.254   2.784   4.091  0.0780  0.9279 -1.9059
 2680TIP3    H229532   5.364   2.681   4.089 -0.4619  0.2810  0.0791
 2681TIP3   OH229533   1.113   5.819  16.933  0.0167  0.0300 -0.2657
 2681TIP3    H129534   1.189   5.845  16.882  0.9167 -1.4983  0.2489
 2681TIP3    H229535   1.149   5.791  17.018 -1.2124  0.2518  0.3491
 2682TIP3   OH229536   3.063   3.713  16.346  0.2127 -0.4010  0.2236
 2682TIP3    H129537   3.054   3.809  16.344 -0.1206 -0.4011  1.7700
 2682TIP3    H229538   3.156   3.699  16.367  0.2698 -0.4231 -0.0409
 2683TIP3   OH229539   6.421   0.069  13.574  0.2155  0.2145 -0.6979
 2683TIP3    H129540   6.494   0.118  13.611 -0.3553  0.9679 -0.5530
 2683TIP3    H229541   6.382   0.129  13.511 -1.0842  0.2977  0.1812
 2684TIP3   OH229542   0.472   0.097   6.513  0.3708  0.1780  0.4949
 2684TIP3    H129543   0.391   0.071   6.467  0.4242  1.4445 -0.3420
 2684TIP3    H229544   0.542   0.053   6.465  0.2712 -0.0102  0.5209
 2685TIP3   OH229545   2.298   5.355   0.973 -0.0571 -0.0331  0.2919
 2685TIP3    H129546   2.305   5.420   0.904 -1.6770  1.8448  1.8411
 2685TIP3    H229547   2.215   5.375   1.017 -0.2163 -2.6543  1.2928
 2686TIP3   OH229548   3.880   2.904  17.231  1.0022 -0.8038  0.2982
 2686TIP3    H129549   3.882   2.830  17.169 -2.3387 -0.1948 -0.6590
 2686TIP3    H229550   3.801   2.952  17.208  1.6300  1.5276  2.7417
 2687TIP3   OH229551   3.044   6.424   0.514  0.0925 -0.1732 -0.2906
 2687TIP3    H129552   3.126   6.394   0.553 -0.8560 -0.5308  1.4575
 2687TIP3    H229553   2.978   6.410   0.582 -1.1704  1.5143 -1.1264
 2688TIP3   OH229554   6.724   5.630  15.482 -0.6838  0.2209 -0.2073
 2688TIP3    H129555   6.696   5.643  15.392 -0.8415  0.0592 -0.1819
 2688TIP3    H229556   6.644   5.605  15.529 -0.2242 -1.8463 -0.4575
 2689TIP3   OH229557   5.507   3.956   4.834  0.6295 -0.1922 -0.4353
 2689TIP3    H129558   5.537   3.898   4.763  0.1313  1.0241 -1.6646
 2689TIP3    H229559   5.477   4.035   4.789 -0.7066  0.1822  1.0612
 2690TIP3   OH229560   6.761   3.640  16.510 -0.1523  0.0225  0.4883
 2690TIP3    H129561   6.772   3.636  16.415 -0.3837 -0.2684  0.4712
 2690TIP3    H229562   6.846   3.667  16.543 -0.2476  0.7530  0.1469
 2691TIP3   OH229563   0.233   5.869   2.490  0.4119 -0.6588 -0.0478
 2691TIP3    H129564   0.200   5.805   2.426 -0.6490  0.5438 -0.7243
 2691TIP3    H229565   0.173   5.860   2.564 -1.2503  1.2436 -1.1172
 2692TIP3   OH229566   4.306   6.535  16.899 -0.1900  0.0819  0.0964
 2692TIP3    H129567   4.238   6.591  16.936 -0.1378  0.3327 -0.1863
 2692TIP3    H229568   4.387   6.586  16.907  0.3720 -1.1075  2.5082
 2693TIP3   OH229569   6.041   5.708   2.696  0.0296  0.2700  0.0499
 2693TIP3    H129570   6.004   5.768   2.631 -0.4283 -2.1980 -2.0421
 2693TIP3    H229571   6.100   5.763   2.749 -1.1828  2.7579 -1.0851
 2694TIP3   OH229572   5.483   1.650   0.235 -0.1591 -0.1150  0.3522
 2694TIP3    H129573   5.487   1.648   0.331  1.1406  1.1445  0.3542
 2694TIP3    H229574   5.480   1.744   0.214  1.0552 -0.3457 -0.8699
 2695TIP3   OH229575   3.999   6.171  15.302 -0.5074  1.1163  0.0901
 2695TIP3    H129576   3.937   6.098  15.312 -0.3318  1.1605  1.6908
 2695TIP3    H229577   4.070   6.150  15.363  0.0578  2.0876 -0.2329
 2696TIP3   OH229578   1.263   4.182  16.344 -0.8215  0.7066  0.2625
 2696TIP3    H129579   1.323   4.174  16.419 -1.6255  2.4525  1.1364
 2696TIP3    H229580   1.205   4.106  16.352  0.3638 -0.2176  0.2407
 2697TIP3   OH229581   1.189   5.498  15.429  0.1614  0.0618  0.2496
 2697TIP3    H129582   1.241   5.522  15.506  0.3329 -0.4044  0.2803
 2697TIP3    H229583   1.105   5.541  15.443 -0.2876 -1.1451  1.3743
 2698TIP3   OH229584   5.052   3.424   5.619  0.1377  0.0594  0.4304
 2698TIP3    H129585   5.119   3.364   5.650 -0.8161 -1.2850 -0.0793
 2698TIP3    H229586   5.084   3.511   5.645  2.6531 -0.4289 -0.9182
 2699TIP3   OH229587   3.815   4.881  11.744  0.4413 -0.5838  0.0154
 2699TIP3    H129588   3.757   4.936  11.797 -0.2174  0.6724 -1.9845
 2699TIP3    H229589   3.886   4.939  11.717  0.6823 -1.1764 -0.6397
 2700TIP3   OH229590   5.487   1.448  13.996 -0.0044 -0.1582  0.3119
 2700TIP3    H129591   5.409   1.446  13.941 -0.1237 -0.4787  0.4890
 2700TIP3    H229592   5.560   1.457  13.935 -0.2591  1.3996  0.2220
 2701TIP3   OH229593   0.155   0.827   6.005 -0.4665 -0.2283 -0.6559
 2701TIP3    H129594   0.211   0.834   6.082 -0.5204 -1.9122 -0.4562
 2701TIP3    H229595   0.179   0.903   5.952  0.2186  0.4473  0.5881
 2702TIP3   OH229596   3.057   0.753  11.573 -0.3412 -0.2507  0.3706
 2702TIP3    H129597   3.142   0.726  11.537  0.8068  2.3442  0.9884
 2702TIP3    H229598   3.009   0.787  11.497  0.1122  0.5284  0.4332
 2703TIP3   OH229599   4.820   2.292   1.262 -0.1244  0.8402 -0.4410
 2703TIP3    H129600   4.800   2.266   1.352 -1.1953 -1.6722 -1.3633
 2703TIP3    H229601   4.853   2.213   1.221  0.5545  2.0143 -2.2287
 2704TIP3   OH229602   3.816   6.724   6.448  0.4882  0.1337 -0.2593
 2704TIP3    H129603   3.889   6.668   6.423  0.8925 -0.0337  1.2279
 2704TIP3    H229604   3.780   6.681   6.526  2.2747  3.1781  2.3399
 2705TIP3   OH229605   2.407   3.717   5.961  0.0445  0.2029  0.9127
 2705TIP3    H129606   2.469   3.750   5.896 -1.7693  0.8708 -0.5329
 2705TIP3    H229607   2.393   3.626   5.935 -0.4123  0.3698  0.5607
 2706TIP3   OH229608   6.602   0.471   2.866  0.3552  0.0592  0.3475
 2706TIP3    H129609   6.588   0.482   2.960  0.7185  0.7532  0.3209
 2706TIP3    H229610   6.602   0.376   2.853 -4.7325 -0.0744  0.2885
 2707TIP3   OH229611   6.040   3.215   5.281 -0.3773 -0.0006 -0.1141
 2707TIP3    H129612   5.950   3.245   5.270 -0.5061  0.0603  1.0967
 2707TIP3    H229613   6.050   3.200   5.375  1.4785  1.9275  0.0445
 2708TIP3   OH229614   6.366   6.064  16.207  0.8312  0.2276 -0.1676
 2708TIP3    H129615   6.316   6.029  16.133  0.6855 -0.3946  0.2164
 2708TIP3    H229616   6.303   6.119  16.254  0.0013 -1.8452  1.2276
 2709TIP3   OH229617   4.216   6.393  11.776  0.4862 -0.1760 -0.3625
 2709TIP3    H129618   4.254   6.325  11.721  0.8127 -0.7118  0.5167
 2709TIP3    H229619   4.124   6.395  11.752  0.2721 -1.6067  0.2833
 2710TIP3   OH229620   4.431   0.985   4.638 -0.3659  0.5278 -0.2942
 2710TIP3    H129621   4.498   0.919   4.620 -1.7346 -0.8386 -0.4599
 2710TIP3    H229622   4.393   1.005   4.553 -1.1119  0.2843 -0.0181
 2711TIP3   OH229623   4.478   6.630  11.805 -0.2035 -0.0453  0.2994
 2711TIP3    H129624   4.500   6.717  11.772  0.2868 -1.1212 -2.3386
 2711TIP3    H229625   4.429   6.647  11.886 -1.4689  2.7372 -0.9657
 2712TIP3   OH229626   4.766   4.971   0.218  0.0002  0.6363 -0.1049
 2712TIP3    H129627   4.814   5.041   0.262  0.0237  1.0839 -0.8445
 2712TIP3    H229628   4.833   4.905   0.200  0.6602  1.8900 -2.4618
 2713TIP3   OH229629   5.265   5.031  14.512  0.4023  0.1705 -0.0825
 2713TIP3    H129630   5.292   4.970  14.580  1.8144  1.6149  0.6619
 2713TIP3    H229631   5.170   5.031  14.516  0.4514 -0.5584  1.1638
 2714TIP3   OH229632   0.085   2.483  13.238  0.1483 -0.1574 -0.2115
 2714TIP3    H129633   0.074   2.567  13.193  0.7884  0.0589  0.0349
 2714TIP3    H229634   0.120   2.425  13.171  2.9497  0.6698  0.4769
 2715TIP3   OH229635   1.211   5.889   3.349 -0.0857  0.2775 -0.1751
 2715TIP3    H129636   1.198   5.980   3.321  0.8265  0.2275 -0.8215
 2715TIP3    H229637   1.252   5.896   3.435  4.6168  0.6444 -2.2394
 2716TIP3   OH229638   0.721   0.411  16.970 -0.3096  0.2869  0.2225
 2716TIP3    H129639   0.775   0.378  17.042  3.4250  0.7077 -2.2465
 2716TIP3    H229640   0.735   0.349  16.899 -1.2417  1.6988 -1.2378
 2717TIP3   OH229641   3.703   4.767   1.222  0.0726 -0.8376  0.4813
 2717TIP3    H129642   3.612   4.795   1.224 -0.2123 -1.6391 -0.6830
 2717TIP3    H229643   3.753   4.848   1.231 -0.7458 -0.5764  2.8980
 2718TIP3   OH229644   0.314   5.317   0.701  0.3309 -0.2444 -0.0906
 2718TIP3    H129645   0.339   5.408   0.713 -1.6061  0.1775  0.9290
 2718TIP3    H229646   0.354   5.271   0.775 -0.0743  0.0703  0.3306
 2719TIP3   OH229647   1.627   2.285   4.522  0.1349  0.1697  0.2211
 2719TIP3    H129648   1.652   2.253   4.435 -1.6200 -0.1937 -0.1674
 2719TIP3    H229649   1.710   2.310   4.563  0.8723  1.7838 -2.1373
 2720TIP3   OH229650   5.446   3.103   0.549 -0.5492  0.1309 -0.0929
 2720TIP3    H129651   5.380   3.167   0.574 -0.2895  0.0755  0.7511
 2720TIP3    H229652   5.485   3.075   0.632 -1.1809 -1.6633 -0.3800
 2721TIP3   OH229653   5.306   4.809  11.834 -0.9970  0.2330  0.8261
 2721TIP3    H129654   5.216   4.788  11.808 -0.9515 -1.6571  2.1167
 2721TIP3    H229655   5.327   4.745  11.902  1.1748  0.9439  0.8598
 2722TIP3   OH229656   6.627   2.769  15.012  0.5264 -0.1792  0.2058
 2722TIP3    H129657   6.719   2.755  14.993  0.5215 -3.0813  2.0967
 2722TIP3    H229658   6.580   2.715  14.948  0.0763  1.3279 -0.7878
 2723TIP3   OH229659   3.343   0.770   6.305  0.2270 -0.5982  0.1180
 2723TIP3    H129660   3.338   0.816   6.220  1.6069 -1.0358 -0.2070
 2723TIP3    H229661   3.290   0.824   6.364  0.3988  0.4643 -0.6849
 2724TIP3   OH229662   1.409   3.176   1.859 -0.0037  0.2128 -0.4638
 2724TIP3    H129663   1.380   3.210   1.944 -1.7951 -0.2161 -0.8694
 2724TIP3    H229664   1.453   3.094   1.879  2.4184  1.6574  0.3261
 2725TIP3   OH229665   4.801   1.292   5.364  0.0976 -0.1897  0.2592
 2725TIP3    H129666   4.809   1.198   5.349  0.5097 -0.5993  2.9218
 2725TIP3    H229667   4.707   1.307   5.377  0.2725 -0.6233  2.1472
 2726TIP3   OH229668   4.572   3.568  14.036 -0.4025 -0.1865 -0.3619
 2726TIP3    H129669   4.617   3.484  14.047 -0.6448 -0.4498 -1.2878
 2726TIP3    H229670   4.499   3.564  14.098  1.0217  0.3998  1.4131
 2727TIP3   OH229671   2.451   6.703   1.515 -0.1949  0.3640  0.2567
 2727TIP3    H129672   2.439   6.627   1.571 -0.0568  0.5932  0.5942
 2727TIP3    H229673   2.526   6.681   1.460  0.1599  0.4632  0.6990
 2728TIP3   OH229674   6.197   2.546  13.482 -0.3079  0.1011  0.1085
 2728TIP3    H129675   6.277   2.516  13.439 -0.8931 -1.4143  0.0734
 2728TIP3    H229676   6.126   2.503  13.436 -1.2496  2.2456 -0.5336
 2729TIP3   OH229677   0.246   3.754   5.588  0.2134 -0.1699 -0.3357
 2729TIP3    H129678   0.285   3.674   5.623  1.5639 -0.1553 -1.7290
 2729TIP3    H229679   0.233   3.810   5.664 -0.8717 -1.7552  0.6795
 2730TIP3   OH229680   3.487   5.267   0.812 -0.5152  0.2620  0.4564
 2730TIP3    H129681   3.508   5.342   0.868 -1.0980 -0.8859  2.2522
 2730TIP3    H229682   3.493   5.301   0.723  2.2052  1.6633  1.1391
 2731TIP3   OH229683   4.288   1.683  10.995 -0.1551  0.8349  0.2260
 2731TIP3    H129684   4.210   1.709  11.044 -1.0113  0.8060 -1.0815
 2731TIP3    H229685   4.349   1.756  11.007 -0.3997  0.8725  1.2363
 2732TIP3   OH229686   6.034   0.769  14.939 -0.5075 -0.8477  0.6355
 2732TIP3    H129687   6.070   0.856  14.956  0.7581 -1.4000  0.8437
 2732TIP3    H229688   6.069   0.715  15.010 -0.4980 -1.7291 -0.0315
 2733TIP3   OH229689   3.390   4.125   5.415 -0.1907 -0.6893  0.2064
 2733TIP3    H129690   3.430   4.185   5.478  1.5790 -1.6124 -0.0101
 2733TIP3    H229691   3.380   4.177   5.335  0.2214 -0.3354  0.3825
 2734TIP3   OH229692   5.470   5.465  13.251 -0.3815 -0.1279 -0.3692
 2734TIP3    H129693   5.509   5.414  13.322  0.8423 -1.3944 -1.9412
 2734TIP3    H229694   5.419   5.533  13.296 -0.9323 -1.8819  1.7298
 2735TIP3   OH229695   4.161   5.319   0.174  0.2131 -0.1183  0.0859
 2735TIP3    H129696   4.155   5.406   0.135 -0.3584 -0.0833  0.2486
 2735TIP3    H229697   4.075   5.280   0.159  0.2850 -0.4421  0.5131
 2736TIP3   OH229698   6.619   5.869   0.056  0.3276 -0.6414 -0.3214
 2736TIP3    H129699   6.546   5.926   0.079  1.2958  1.0764 -1.4039
 2736TIP3    H229700   6.680   5.877   0.130  0.1987 -0.7479 -0.2025
 2737TIP3   OH229701   2.744   4.329  14.873 -0.0870 -0.2108  0.3482
 2737TIP3    H129702   2.830   4.290  14.886 -0.0957 -0.1673  0.5435
 2737TIP3    H229703   2.690   4.258  14.838 -1.1590 -1.5371  4.3668
 2738TIP3   OH229704   5.238   4.666  11.405  0.4590  0.1593  0.2880
 2738TIP3    H129705   5.146   4.638  11.406  0.4419  0.2152  0.5494
 2738TIP3    H229706   5.279   4.614  11.337  0.1886  0.2640  0.0436
 2739TIP3   OH229707   2.552   1.990   2.340  0.1323 -0.4971 -0.1732
 2739TIP3    H129708   2.579   2.032   2.422 -1.4155 -0.8610  0.5393
 2739TIP3    H229709   2.557   2.059   2.274  2.0204 -0.3670  0.0957
 2740TIP3   OH229710   2.490   2.977  12.053  0.5088 -0.3416 -0.2935
 2740TIP3    H129711   2.550   3.012  12.120 -2.6892  1.3328  1.8002
 2740TIP3    H229712   2.466   3.053  12.001 -2.5699 -0.2663  1.1490
 2741TIP3   OH229713   2.866   2.966  13.930 -0.3388 -0.6140  0.0329
 2741TIP3    H129714   2.922   2.938  13.858  0.5843  0.4420  0.3438
 2741TIP3    H229715   2.899   2.919  14.006  0.7188  0.7184  0.4006
 2742TIP3   OH229716   6.584   1.274   4.062 -0.5399  0.0755  0.7902
 2742TIP3    H129717   6.507   1.221   4.084  0.2056 -1.7339 -0.8348
 2742TIP3    H229718   6.656   1.230   4.107  0.0468 -0.1495 -0.3650
 2743TIP3   OH229719   0.001   3.660   5.136 -0.6199 -0.0225 -0.5842
 2743TIP3    H129720   0.034   3.630   5.052  0.8809  3.5553 -1.3676
 2743TIP3    H229721  -0.094   3.665   5.125 -0.6230 -1.5896 -1.3463
 2744TIP3   OH229722   6.583   3.363  16.334 -0.2602 -0.1619  0.7380
 2744TIP3    H129723   6.508   3.316  16.371 -0.5087 -0.4527 -0.1133
 2744TIP3    H229724   6.545   3.412  16.260  0.4869 -0.7625 -0.0531
 2745TIP3   OH229725   2.556   5.007  16.608  0.2739  0.7969  0.0945
 2745TIP3    H129726   2.538   4.957  16.528 -0.2944  1.0445  0.0637
 2745TIP3    H229727   2.563   4.941  16.677 -0.0160  0.6416 -0.0244
 2746TIP3   OH229728   5.039   3.089  11.921 -0.0687  0.7748  0.2760
 2746TIP3    H129729   5.064   3.002  11.951 -0.7887  0.0097 -1.2997
 2746TIP3    H229730   4.948   3.080  11.892 -0.5132  2.3134  1.1011
 2747TIP3   OH229731   5.517   4.668   5.571 -0.2902  0.3469  0.3885
 2747TIP3    H129732   5.503   4.582   5.608 -1.4956  0.0753 -0.6406
 2747TIP3    H229733   5.555   4.651   5.485 -0.8154  0.8185  0.0582
 2748TIP3   OH229734   1.452   5.454   5.809  0.0957  0.1076  0.3604
 2748TIP3    H129735   1.512   5.396   5.857  2.0321  0.4159 -1.6040
 2748TIP3    H229736   1.482   5.542   5.829  0.8997  0.2418 -1.3257
 2749TIP3   OH229737   0.294   3.383  16.636  0.4459 -0.0027 -0.2250
 2749TIP3    H129738   0.250   3.302  16.610  1.5479 -0.6095 -0.2336
 2749TIP3    H229739   0.314   3.370  16.729  4.2362 -1.4638 -1.1566
 2750TIP3   OH229740   0.774   4.216   1.635  0.3655 -0.9943  0.0641
 2750TIP3    H129741   0.698   4.163   1.611 -0.2766 -0.0637  0.0133
 2750TIP3    H229742   0.746   4.306   1.619  0.8220 -0.5194  1.8906
 2751TIP3   OH229743   4.864   2.981   0.815 -0.5293  0.4370 -0.1498
 2751TIP3    H129744   4.878   3.068   0.854  1.6200 -0.1253  0.4341
 2751TIP3    H229745   4.925   2.978   0.741  0.6869 -1.1603  0.8649
 2752TIP3   OH229746   0.969   5.826   4.811 -0.0956  0.1750 -0.2869
 2752TIP3    H129747   1.013   5.910   4.827 -2.3864  1.5457 -0.9165
 2752TIP3    H229748   0.969   5.782   4.896 -0.1570  1.4510  0.3839
 2753TIP3   OH229749   3.062   1.792   4.334 -0.5449  0.6064 -0.0247
 2753TIP3    H129750   3.023   1.738   4.266  0.6768 -0.1975 -0.1017
 2753TIP3    H229751   3.139   1.832   4.293 -0.9860  1.7965  0.2680
 2754TIP3   OH229752   0.195   4.642   1.091  0.3978  0.1112  0.0197
 2754TIP3    H129753   0.219   4.697   1.016  2.4336  0.4756  0.9152
 2754TIP3    H229754   0.206   4.552   1.060  0.4821  0.2524 -0.3587
 2755TIP3   OH229755   6.542   6.606   4.649  0.4867 -0.1017  0.2550
 2755TIP3    H129756   6.502   6.620   4.734  2.3926 -2.3788  1.5787
 2755TIP3    H229757   6.471   6.570   4.595 -0.6121  0.9413  0.9659
 2756TIP3   OH229758   5.516   4.031   1.642  0.2376  0.9232  0.1334
 2756TIP3    H129759   5.444   4.087   1.672  1.8180  3.1993 -0.2224
 2756TIP3    H229760   5.589   4.053   1.699  1.4134  0.5340 -1.1979
 2757TIP3   OH229761   4.310   2.721   3.351  0.1853  0.1880  0.5396
 2757TIP3    H129762   4.331   2.757   3.265 -0.9610  1.8824  0.9486
 2757TIP3    H229763   4.252   2.786   3.391 -0.0319 -1.0136  2.2322
 2758TIP3   OH229764   1.262   3.764   3.296  0.1961  0.0554  0.1129
 2758TIP3    H129765   1.198   3.833   3.315  0.4265  0.1907  0.4096
 2758TIP3    H229766   1.328   3.806   3.241  0.6375  0.2260  0.7692
 2759TIP3   OH229767   4.363   2.271   4.823 -0.1805 -0.0432 -0.2005
 2759TIP3    H129768   4.302   2.232   4.886 -1.5050  2.9391  0.4355
 2759TIP3    H229769   4.378   2.202   4.758 -0.1954 -2.5625  2.3763
 2760TIP3   OH229770   6.311   6.631  13.905 -0.1420  0.6034  0.1606
 2760TIP3    H129771   6.281   6.551  13.948  0.4548  1.4379  2.1407
 2760TIP3    H229772   6.340   6.688  13.976  2.1284  1.4826 -1.4089
 2761TIP3   OH229773   6.401   6.030  15.492  0.1516 -0.4088  0.2727
 2761TIP3    H129774   6.306   6.034  15.489  0.2635  3.5795 -0.2549
 2761TIP3    H229775   6.425   6.065  15.577  1.1865 -0.8404  0.1747
 2762TIP3   OH229776   6.297   4.038  15.270 -0.4224 -0.4564  0.0601
 2762TIP3    H129777   6.349   4.118  15.273  0.1335 -0.8145 -0.0014
 2762TIP3    H229778   6.225   4.054  15.331 -0.3470  0.1100  0.0041
 2763TIP3   OH229779   3.058   5.039  12.866  0.2451 -0.4381  0.5250
 2763TIP3    H129780   3.114   5.108  12.903 -0.1368 -0.5472  1.3168
 2763TIP3    H229781   3.096   4.958  12.901  0.6429 -0.6293 -0.3360
 2764TIP3   OH229782   6.280   4.307  12.799 -0.4698 -0.6284 -0.8227
 2764TIP3    H129783   6.373   4.326  12.807 -0.6018  0.2357 -1.3364
 2764TIP3    H229784   6.275   4.211  12.797  0.2494 -0.7326  1.1016
 2765TIP3   OH229785   2.751   4.874   6.097 -0.3584 -0.3276 -0.2766
 2765TIP3    H129786   2.696   4.856   6.174  0.1652 -0.5505  0.0481
 2765TIP3    H229787   2.797   4.792   6.081 -0.5026 -0.2920 -0.8567
 2766TIP3   OH229788   5.414   1.920  14.235 -0.1700  0.5232  0.4070
 2766TIP3    H129789   5.454   2.005  14.252 -0.2152  0.3881  1.1973
 2766TIP3    H229790   5.456   1.889  14.154 -0.0591  1.2307  0.1880
 2767TIP3   OH229791   5.870   6.108   3.066 -0.2548 -0.3217 -0.1787
 2767TIP3    H129792   5.914   6.044   3.011  0.9705  0.2792  0.0717
 2767TIP3    H229793   5.902   6.089   3.154 -0.9185 -0.2239  0.0816
 2768TIP3   OH229794   4.430   1.831   5.061 -0.0590 -0.1731 -0.3399
 2768TIP3    H129795   4.450   1.917   5.099 -0.9517 -0.7798  1.5633
 2768TIP3    H229796   4.506   1.777   5.082 -0.8048 -0.6711  1.1454
 2769TIP3   OH229797   6.283   0.699  11.891 -0.8383  0.3238  0.9250
 2769TIP3    H129798   6.346   0.769  11.876 -0.3833 -0.1441  0.6378
 2769TIP3    H229799   6.216   0.738  11.947 -0.4790  0.9250  0.9338
 2770TIP3   OH229800   0.875   3.591  13.922  0.8354 -0.3537 -0.2961
 2770TIP3    H129801   0.899   3.683  13.906 -0.1087 -0.1508 -0.6298
 2770TIP3    H229802   0.825   3.593  14.004  1.9431 -0.7702  0.4032
 2771TIP3   OH229803   0.117   2.649  12.345 -0.1183 -0.5251  0.1612
 2771TIP3    H129804   0.103   2.690  12.260 -0.2400 -1.1860 -0.1387
 2771TIP3    H229805   0.173   2.574  12.327  1.2391  0.2834  0.9112
 2772TIP3   OH229806   5.995   0.064   0.395  0.5058 -0.2411  0.7600
 2772TIP3    H129807   6.003  -0.015   0.341 -0.4229  1.0145 -1.2898
 2772TIP3    H229808   6.080   0.107   0.389  1.1388 -1.2659  2.1991
 2773TIP3   OH229809   0.336   2.478   5.871  0.2790 -0.9199 -0.2963
 2773TIP3    H129810   0.405   2.487   5.937 -1.2487  1.5503  1.0363
 2773TIP3    H229811   0.312   2.386   5.875  0.1375 -0.8041  2.7075
 2774TIP3   OH229812   3.278   1.186   5.044 -0.4228  0.7468  0.0822
 2774TIP3    H129813   3.213   1.119   5.021 -0.6496  0.4677  1.4594
 2774TIP3    H229814   3.265   1.199   5.138  3.0777 -0.9965  0.8956
 2775TIP3   OH229815   3.153   4.284   3.529 -0.0692  0.3176 -0.0456
 2775TIP3    H129816   3.087   4.334   3.578 -0.1112  1.1353 -0.9221
 2775TIP3    H229817   3.171   4.338   3.453 -0.2403 -1.0942 -1.0949
 2776TIP3   OH229818   5.890   4.887   5.837  0.1149 -0.1468 -0.4071
 2776TIP3    H129819   5.896   4.958   5.901  2.8020 -1.3065  0.7296
 2776TIP3    H229820   5.796   4.875   5.823 -0.3951  4.4726 -1.6577
 2777TIP3   OH229821   4.457   1.677  13.337  0.2107 -0.5153 -0.2266
 2777TIP3    H129822   4.550   1.698  13.339 -0.1672  1.0782  1.2386
 2777TIP3    H229823   4.445   1.614  13.407  0.0426 -0.1197  0.0988
 2778TIP3   OH229824   3.550   0.392   1.031 -0.5259 -0.9729 -0.0257
 2778TIP3    H129825   3.630   0.426   1.072 -1.1310 -1.5616  1.6410
 2778TIP3    H229826   3.560   0.297   1.035 -0.5623 -1.0487 -1.3375
 2779TIP3   OH229827   6.208   2.300  15.857  0.6727 -0.2690 -0.4504
 2779TIP3    H129828   6.243   2.282  15.944 -0.4366 -1.2834 -0.2085
 2779TIP3    H229829   6.285   2.296  15.800  1.3038 -0.2375  0.3829
 2780TIP3   OH229830   3.079   2.892  13.762  0.1635 -0.8524  1.1611
 2780TIP3    H129831   3.138   2.965  13.743 -3.0944  1.9612  1.3940
 2780TIP3    H229832   3.088   2.834  13.686  0.1925  1.5933 -0.7643
 2781TIP3   OH229833   3.680   5.195   4.839  0.0771  0.1382 -0.3072
 2781TIP3    H129834   3.685   5.101   4.855 -0.5969  0.0261 -0.7558
 2781TIP3    H229835   3.676   5.234   4.926 -0.4310 -0.2958 -0.1366
 2782TIP3   OH229836   1.403   6.398   1.690 -0.8629 -0.4665 -0.0773
 2782TIP3    H129837   1.355   6.442   1.760 -1.1450 -0.4667 -0.2694
 2782TIP3    H229838   1.349   6.410   1.612 -0.0955  0.3317 -0.4956
 2783TIP3   OH229839   6.151   6.746   6.182  0.4625  0.0992 -0.0562
 2783TIP3    H129840   6.212   6.720   6.252  2.1406 -1.9293 -2.1877
 2783TIP3    H229841   6.207   6.787   6.116 -0.5500 -1.3327 -1.8422
 2784TIP3   OH229842   1.736   5.966   3.210 -0.5359 -0.0004 -0.1719
 2784TIP3    H129843   1.756   5.961   3.303 -1.2108 -1.8405 -0.1051
 2784TIP3    H229844   1.644   5.992   3.206 -0.1014  1.5376 -0.3597
 2785TIP3   OH229845   4.284   4.677   4.980  0.0631 -0.5536 -0.1137
 2785TIP3    H129846   4.302   4.678   4.886  0.9881 -0.7787  0.0607
 2785TIP3    H229847   4.363   4.639   5.019 -0.7520 -1.4690  0.6636
 2786TIP3   OH229848   3.188   6.048   6.021 -0.2607 -0.5071  0.3931
 2786TIP3    H129849   3.185   6.113   6.091  0.6172  0.5905 -0.5655
 2786TIP3    H229850   3.110   5.995   6.034 -1.5458  1.3670  0.5871
 2787TIP3   OH229851   5.677   5.725  15.602 -0.2779  0.2225  0.0465
 2787TIP3    H129852   5.732   5.650  15.579 -0.5752 -0.2023  0.6881
 2787TIP3    H229853   5.651   5.708  15.693 -1.7358  0.2276 -0.3485
 2788TIP3   OH229854   4.104   6.469  14.130 -0.1596  0.7175  0.1650
 2788TIP3    H129855   4.169   6.525  14.172  2.2301 -1.7252 -0.0953
 2788TIP3    H229856   4.149   6.385  14.119 -3.3064 -0.9938 -0.2480
 2789TIP3   OH229857   6.481   6.713  16.810  0.1956  0.0868 -0.3949
 2789TIP3    H129858   6.564   6.753  16.835 -0.5193  1.6172 -0.3910
 2789TIP3    H229859   6.423   6.729  16.884 -0.4426  0.0896 -0.8905
 2790TIP3   OH229860   3.577   0.391   4.951  0.3327  0.0921 -0.3049
 2790TIP3    H129861   3.652   0.371   4.895  0.4402  0.2825 -0.2327
 2790TIP3    H229862   3.532   0.462   4.905 -0.3520 -0.6820 -0.8362
 2791TIP3   OH229863   2.323   5.993   4.651  0.6215 -0.4848 -0.1327
 2791TIP3    H129864   2.316   6.019   4.742  0.6940 -1.9735  0.3147
 2791TIP3    H229865   2.240   5.949   4.633 -0.6258  2.3380 -1.6525
 2792TIP3   OH229866   3.040   0.309   1.563  0.0125 -0.0836  0.5710
 2792TIP3    H129867   3.126   0.276   1.535 -0.8644 -1.2653 -0.8376
 2792TIP3    H229868   3.059   0.369   1.635  1.9823 -0.6657  0.5594
 2793TIP3   OH229869   1.528   0.578  11.414 -0.2931 -0.6124 -0.0667
 2793TIP3    H129870   1.584   0.650  11.385 -0.9073 -0.1078 -0.0145
 2793TIP3    H229871   1.487   0.545  11.334 -0.4207 -0.5513 -0.0270
 2794TIP3   OH229872   2.100   1.915  14.906  0.5867  0.0839 -0.6526
 2794TIP3    H129873   2.136   1.878  14.986  1.4562 -0.2263 -1.1834
 2794TIP3    H229874   2.007   1.895  14.910  0.7608 -0.6066 -0.0909
 2795TIP3   OH229875   6.695   6.418   1.093 -0.4272  0.0845 -0.0212
 2795TIP3    H129876   6.650   6.334   1.093  0.3107 -0.3083  0.7686
 2795TIP3    H229877   6.761   6.411   1.162  0.9349  0.6160 -1.2446
 2796TIP3   OH229878   6.481   5.664  17.243 -0.4156  0.9771  0.0928
 2796TIP3    H129879   6.464   5.688  17.152 -0.3509  1.9721  0.3437
 2796TIP3    H229880   6.553   5.720  17.270  1.5418 -1.3237 -0.1178
 2797TIP3   OH229881   5.016   1.575  13.311  0.1025  0.0418 -0.6988
 2797TIP3    H129882   4.995   1.574  13.404 -1.3386  1.1613 -0.9834
 2797TIP3    H229883   4.937   1.541  13.268 -0.2197  1.9006 -1.6468
 2798TIP3   OH229884   6.783   5.736  14.305 -0.0832 -0.1539  0.2312
 2798TIP3    H129885   6.814   5.655  14.346 -0.5725 -0.8592 -0.7712
 2798TIP3    H229886   6.851   5.757  14.241 -0.7205 -0.6500 -0.6207
 2799TIP3   OH229887   5.252   6.735   1.129 -0.3690 -0.2932  0.0123
 2799TIP3    H129888   5.204   6.810   1.165  0.9372  0.2877  0.5653
 2799TIP3    H229889   5.290   6.692   1.206  0.6476 -0.2949 -0.4851
 2800TIP3   OH229890   3.624   5.325  15.217 -0.7183  0.2055 -0.4503
 2800TIP3    H129891   3.566   5.379  15.272 -0.7633 -1.1412  0.8500
 2800TIP3    H229892   3.685   5.285  15.279  0.0561 -0.3309 -1.5434
 2801TIP3   OH229893   2.822   0.910  11.454 -0.0639  0.0547 -0.4827
 2801TIP3    H129894   2.807   0.824  11.416 -0.5381  0.2159 -0.6751
 2801TIP3    H229895   2.778   0.907  11.540  1.3395 -0.4380  0.2312
 2802TIP3   OH229896   5.187   1.516  13.851 -0.5253  0.6049 -0.0247
 2802TIP3    H129897   5.130   1.550  13.781 -1.2671  0.0711  0.3238
 2802TIP3    H229898   5.176   1.421  13.847 -0.9833  0.5979  1.1693
 2803TIP3   OH229899   4.980   4.743   5.106 -0.4472  0.0313 -0.2295
 2803TIP3    H129900   5.063   4.762   5.148 -0.4661 -1.3822  0.5046
 2803TIP3    H229901   4.925   4.707   5.176 -1.5372  0.5750 -0.7874
 2804TIP3   OH229902   4.720   6.253  13.356  0.5948  0.6167 -0.0761
 2804TIP3    H129903   4.689   6.344  13.356  0.7006  0.6559 -0.7725
 2804TIP3    H229904   4.815   6.260  13.362  0.4599  0.4814  2.6688
 2805TIP3   OH229905   0.669   2.689  16.057  0.2544  0.4270 -0.5329
 2805TIP3    H129906   0.723   2.731  16.124  1.0178 -1.6283  0.1628
 2805TIP3    H229907   0.583   2.680  16.097  0.2275  0.7990 -0.4967
 2806TIP3   OH229908   3.036   5.547  13.936 -0.0376  0.2657 -0.3007
 2806TIP3    H129909   3.063   5.472  13.883  1.0585  0.8229 -0.5239
 2806TIP3    H229910   2.942   5.555  13.918 -0.1357 -0.9454 -0.4022
 2807TIP3   OH229911   0.634   1.215  16.166 -0.7635 -0.4809  0.2620
 2807TIP3    H129912   0.642   1.133  16.214 -0.8901 -0.7871 -0.2349
 2807TIP3    H229913   0.606   1.279  16.232  0.4075 -0.5902  0.8774
 2808TIP3   OH229914   2.773   3.998  14.049 -0.7914  0.1644  0.1989
 2808TIP3    H129915   2.725   3.920  14.021  0.6749 -1.0466  0.9714
 2808TIP3    H229916   2.707   4.068  14.050 -2.0584 -0.9867 -0.8002
 2809TIP3   OH229917   3.955   1.229   2.918  0.4257  0.0131  0.3279
 2809TIP3    H129918   3.954   1.310   2.968  1.5736  0.1868  0.1005
 2809TIP3    H229919   3.868   1.223   2.879  0.4344  1.3125  0.0778
 2810TIP3   OH229920   6.415   3.425  15.461 -0.0331  0.1314  0.2466
 2810TIP3    H129921   6.380   3.489  15.523  1.9873  0.8829  0.6317
 2810TIP3    H229922   6.428   3.475  15.380  0.2852 -0.1109  0.1493
 2811TIP3   OH229923   4.252   3.097   0.460 -0.5807 -0.1516  0.3282
 2811TIP3    H129924   4.245   3.138   0.546 -1.2114 -0.3263  0.3623
 2811TIP3    H229925   4.206   3.013   0.470 -1.7022  0.3525 -0.5183
 2812TIP3   OH229926   4.422   2.161  12.482 -0.1784 -0.2550  0.0049
 2812TIP3    H129927   4.383   2.226  12.540 -0.1491 -1.6515  1.6276
 2812TIP3    H229928   4.348   2.115  12.443 -0.1953 -1.3337  1.2783
 2813TIP3   OH229929   3.832   1.377   6.533  0.4564 -0.5174 -0.5856
 2813TIP3    H129930   3.814   1.450   6.592 -0.7452 -0.7101 -0.6895
 2813TIP3    H229931   3.927   1.368   6.533  0.5129  0.0351  0.6424
 2814TIP3   OH229932   6.782   6.134  12.304  0.1708 -0.0536 -1.1549
 2814TIP3    H129933   6.782   6.065  12.371  0.8375  1.2136  0.1539
 2814TIP3    H229934   6.866   6.123  12.259  1.0317  1.0054  0.1914
 2815TIP3   OH229935   0.051   3.509   0.516 -0.2551 -0.1342  0.0764
 2815TIP3    H129936   0.106   3.563   0.572 -2.5107  1.9844  0.3025
 2815TIP3    H229937   0.061   3.420   0.550  1.3625  0.5477  1.4106
 2816TIP3   OH229938   2.650   4.015  13.778 -0.0288 -0.4649 -0.2096
 2816TIP3    H129939   2.693   4.087  13.732 -0.2390  0.4917  1.0597
 2816TIP3    H229940   2.635   3.948  13.711 -1.1124  1.2492 -1.6972
 2817TIP3   OH229941   4.985   3.104   4.767  0.2342 -0.4559  0.2467
 2817TIP3    H129942   5.033   3.142   4.841  0.7674 -1.2341  0.3144
 2817TIP3    H229943   5.046   3.112   4.693 -0.1791  0.0418 -0.0403
 2818TIP3   OH229944   3.258   1.643   2.634  0.0997 -0.4316 -0.1259
 2818TIP3    H129945   3.168   1.614   2.642 -0.3515  1.0627  0.3356
 2818TIP3    H229946   3.274   1.649   2.540  0.3494 -2.6020 -0.2328
 2819TIP3   OH229947   6.103   2.038   5.668  1.2867  0.5331 -0.0962
 2819TIP3    H129948   6.189   2.021   5.708  0.8786  0.8102  0.9011
 2819TIP3    H229949   6.044   2.051   5.742 -0.2351 -2.4963 -0.6962
 2820TIP3   OH229950   3.071   0.563  11.252  0.0199 -0.2273  0.3463
 2820TIP3    H129951   3.146   0.564  11.192 -0.3247  1.3839 -0.0794
 2820TIP3    H229952   3.013   0.495  11.216  0.9432 -0.9735  0.2644
 2821TIP3   OH229953   4.461   1.390  14.838 -0.3717  0.4620 -0.3985
 2821TIP3    H129954   4.492   1.383  14.748  1.7579  0.7917  0.2789
 2821TIP3    H229955   4.506   1.467  14.873 -0.3655 -0.2727  1.2575
 2822TIP3   OH229956   6.716   0.515  13.842  0.1580  0.0715  0.3841
 2822TIP3    H129957   6.740   0.572  13.768 -2.6510  0.5365 -0.2319
 2822TIP3    H229958   6.755   0.430  13.820  0.8369  0.6583 -0.7647
 2823TIP3   OH229959   2.377   6.674   5.157  0.3151 -0.7359  0.7811
 2823TIP3    H129960   2.329   6.709   5.232  0.9593  1.7622  0.0560
 2823TIP3    H229961   2.318   6.609   5.120 -1.7645  1.0108  0.9724
 2824TIP3   OH229962   2.291   0.162   2.800  0.6860 -0.1628 -0.1074
 2824TIP3    H129963   2.263   0.092   2.741 -0.3379  0.4074 -0.3146
 2824TIP3    H229964   2.324   0.231   2.742 -2.1001  1.1988 -0.1924
 2825TIP3   OH229965   3.522   3.358   6.196  0.1448  0.2820  0.2112
 2825TIP3    H129966   3.528   3.387   6.287 -1.1533  1.5114 -0.0816
 2825TIP3    H229967   3.536   3.263   6.200  1.3312  0.4905  1.5417
 2826TIP3   OH229968   1.990   4.303   5.530  0.5257 -0.2337  0.5692
 2826TIP3    H129969   2.083   4.320   5.547  0.0459  1.1473  1.9373
 2826TIP3    H229970   1.958   4.386   5.493 -0.1467 -0.7349  0.0255
 2827TIP3   OH229971   5.940   2.416   6.444 -0.2970  0.2894 -0.0078
 2827TIP3    H129972   5.859   2.367   6.436 -0.1860 -0.2695  1.9610
 2827TIP3    H229973   5.979   2.413   6.357 -1.7619 -0.5254 -0.6474
 2828TIP3   OH229974   1.898   1.722  14.355 -0.0830  0.5226  0.0460
 2828TIP3    H129975   1.922   1.739  14.265  0.5055 -1.6759 -0.2353
 2828TIP3    H229976   1.976   1.683  14.395 -0.6315  0.6147  1.2447
 2829TIP3   OH229977   0.263   2.509  13.613 -0.1657 -0.8469  0.1022
 2829TIP3    H129978   0.195   2.485  13.675  0.8628 -1.9918  0.7924
 2829TIP3    H229979   0.295   2.426  13.578 -0.6258 -0.2400 -1.8668
 2830TIP3   OH229980   4.948   5.453  14.627 -0.0054  0.1386  0.4368
 2830TIP3    H129981   4.872   5.400  14.650  0.6598 -0.7016  0.7323
 2830TIP3    H229982   5.014   5.389  14.601  0.9580  0.7973  1.2300
 2831TIP3   OH229983   1.754   4.015  14.777 -0.0624  0.1035  0.6839
 2831TIP3    H129984   1.771   4.108  14.764  0.3487  0.1743  1.7450
 2831TIP3    H229985   1.837   3.972  14.758  0.0459  0.0483  1.2825
 2832TIP3   OH229986   2.921   1.519  16.568 -0.1881  0.7306 -0.1410
 2832TIP3    H129987   2.934   1.557  16.655  0.5450 -1.5413  0.7771
 2832TIP3    H229988   3.007   1.486  16.543 -0.8613 -0.6256 -0.7356
 2833TIP3   OH229989   3.897   3.236  13.146 -0.9200 -0.2786 -0.3600
 2833TIP3    H129990   3.931   3.268  13.229 -1.1331 -1.5547  0.2287
 2833TIP3    H229991   3.814   3.283  13.135 -1.3452 -0.7791  0.6072
 2834TIP3   OH229992   2.051   5.622   5.973 -0.7458 -0.6770 -0.3158
 2834TIP3    H129993   2.039   5.544   5.919  0.0655  0.0586 -1.5694
 2834TIP3    H229994   1.986   5.684   5.940  0.2737  0.0512 -1.0032
 2835TIP3   OH229995   2.235   5.670   4.082  0.2963 -0.5611 -0.2889
 2835TIP3    H129996   2.273   5.626   4.158  0.1922 -0.2399 -0.0439
 2835TIP3    H229997   2.174   5.607   4.044 -0.4080 -0.3698  0.4970
 2836TIP3   OH229998   1.887   2.335   3.977 -0.6615  0.4992  0.6425
 2836TIP3    H129999   1.959   2.391   4.006 -1.2692  1.7874 -0.3369
 2836TIP3    H230000   1.901   2.325   3.883 -0.6028 -0.9432  0.7955
 2837TIP3   OH230001   0.030   1.017  14.412 -0.0584 -0.8620 -0.8727
 2837TIP3    H130002  -0.037   1.003  14.479  0.4373  1.9957  0.3118
 2837TIP3    H230003   0.088   0.941  14.419 -0.9924 -1.4460  0.7771
 2838TIP3   OH230004   1.480   5.783  16.243  0.1718 -1.0273 -0.0427
 2838TIP3    H130005   1.558   5.751  16.286 -0.1242 -1.3354  0.2652
 2838TIP3    H230006   1.419   5.709  16.244 -0.8583 -0.1900  1.5124
 2839TIP3   OH230007   0.425   6.322  17.066  0.1045 -0.6726  0.6177
 2839TIP3    H130008   0.381   6.370  17.136  0.5823  0.2526  0.2907
 2839TIP3    H230009   0.381   6.237  17.064 -1.4947  0.1405  0.4593
 2840TIP3   OH230010   3.657   4.442   0.363 -0.3456  0.0406  0.4917
 2840TIP3    H130011   3.600   4.505   0.319  1.9857  1.5487 -0.4815
 2840TIP3    H230012   3.635   4.450   0.455 -1.7362  0.5504  0.1274
 2841TIP3   OH230013   4.710   6.333  16.412 -0.3870  0.0165  0.5314
 2841TIP3    H130014   4.678   6.308  16.499 -0.4279 -0.2392  0.4422
 2841TIP3    H230015   4.769   6.406  16.429 -1.4784  0.8827  0.6415
 2842TIP3   OH230016   1.979   0.156   0.635 -0.8831  0.4081  0.0275
 2842TIP3    H130017   2.067   0.171   0.670 -0.6675 -0.2896 -0.2188
 2842TIP3    H230018   1.929   0.231   0.666 -1.0984 -0.9571  3.1635
 2843TIP3   OH230019   3.365   1.399  11.015 -0.2698  0.1313 -0.1101
 2843TIP3    H130020   3.416   1.408  10.934  0.2763 -1.5229  0.0206
 2843TIP3    H230021   3.430   1.402  11.085 -0.2756 -2.2396  0.0466
 2844TIP3   OH230022   4.481   1.978   4.078 -0.2461 -0.4150 -0.4757
 2844TIP3    H130023   4.491   1.911   4.145  0.5902  0.1899  0.0155
 2844TIP3    H230024   4.571   2.001   4.053 -0.5440 -0.7922 -1.9679
 2845TIP3   OH230025   5.594   0.956   0.766 -0.0539  0.3196  0.1014
 2845TIP3    H130026   5.512   0.995   0.736 -0.4113  1.2194  2.1538
 2845TIP3    H230027   5.567   0.878   0.813  0.1729  1.2198  1.7432
 2846TIP3   OH230028   0.043   6.163  14.555  0.0881  0.0130  0.3470
 2846TIP3    H130029   0.025   6.073  14.525 -1.1690  0.2745  0.3069
 2846TIP3    H230030   0.021   6.218  14.480  0.6282  0.3807  0.4561
 2847TIP3   OH230031   5.278   0.918   5.552 -0.4392  0.8658 -0.1549
 2847TIP3    H130032   5.314   0.980   5.615 -1.5811 -0.1769  1.5601
 2847TIP3    H230033   5.184   0.923   5.564 -0.6083 -0.1949 -0.9571
 2848TIP3   OH230034   5.046   3.037  13.081  0.8730 -0.6041 -0.4298
 2848TIP3    H130035   5.134   3.036  13.044  0.8851  0.1411 -0.4440
 2848TIP3    H230036   4.988   3.030  13.005  0.8979  1.0042 -0.6209
 2849TIP3   OH230037   3.510   3.458   3.317 -0.6878 -0.1858  0.2126
 2849TIP3    H130038   3.468   3.529   3.365 -2.0600 -0.3893 -0.6289
 2849TIP3    H230039   3.486   3.378   3.365 -1.5921 -0.3366 -0.4726
 2850TIP3   OH230040   3.986   4.654   1.726 -0.3591  0.1261 -0.6671
 2850TIP3    H130041   4.022   4.737   1.694  0.6628 -0.1120 -0.1442
 2850TIP3    H230042   3.911   4.680   1.780 -0.5347  0.6657 -1.1663
 2851TIP3   OH230043   2.065   4.684   3.405 -0.2516  0.6236 -0.9014
 2851TIP3    H130044   2.031   4.751   3.346  0.4526 -0.9202 -3.1236
 2851TIP3    H230045   1.996   4.618   3.410  0.6599 -0.4405 -1.9987
 2852TIP3   OH230046   6.317   4.832  16.478  0.2276  0.0733  0.0727
 2852TIP3    H130047   6.243   4.773  16.465  0.3243  0.3282 -1.8841
 2852TIP3    H230048   6.391   4.775  16.497 -0.6960 -0.1107  3.3528
 2853TIP3   OH230049   1.283   6.438  13.842  0.2536 -0.0071 -0.0433
 2853TIP3    H130050   1.250   6.480  13.763 -0.6717  0.6154  0.6564
 2853TIP3    H230051   1.378   6.450  13.837  0.2622 -0.5230 -1.3532
 2854TIP3   OH230052   2.679   1.077  14.047 -0.1601  0.0161 -0.2949
 2854TIP3    H130053   2.711   1.165  14.065  0.0162 -0.3251  1.0735
 2854TIP3    H230054   2.618   1.088  13.974  1.8370  0.8980 -1.8672
 2855TIP3   OH230055   3.069   0.708  15.671 -0.2996 -0.2932  0.2354
 2855TIP3    H130056   3.059   0.613  15.669 -0.9086 -0.2445 -4.5119
 2855TIP3    H230057   3.161   0.723  15.651 -0.7489  0.1159 -1.6214
 2856TIP3   OH230058   4.121   2.890   5.792  0.7663  0.6896 -0.3316
 2856TIP3    H130059   4.208   2.850   5.794  0.9858  1.1807  0.0937
 2856TIP3    H230060   4.098   2.894   5.700  0.6082 -0.7139 -0.3661
 2857TIP3   OH230061   1.970   0.346  14.735  0.5607 -0.4001 -0.2084
 2857TIP3    H130062   1.992   0.275  14.796 -0.5072 -1.2556 -0.7895
 2857TIP3    H230063   1.999   0.426  14.779 -0.0918 -1.0117  1.3662
 2858TIP3   OH230064   5.593   0.324   2.836 -0.2498  0.4278  0.2964
 2858TIP3    H130065   5.634   0.241   2.860  0.2400  0.7965  0.7383
 2858TIP3    H230066   5.659   0.369   2.784 -0.1626  0.9383  0.8439
 2859TIP3   OH230067   5.812   0.422  16.185 -0.1726  0.0754  0.7421
 2859TIP3    H130068   5.786   0.456  16.099 -0.7010  0.3979  1.0277
 2859TIP3    H230069   5.744   0.453  16.245  0.8598  0.8977  1.4931
 2860TIP3   OH230070   1.752   3.161  15.062  0.2844  0.0638 -0.2341
 2860TIP3    H130071   1.703   3.195  14.988  0.2418  0.9610  0.2060
 2860TIP3    H230072   1.758   3.234  15.123  2.5719  0.1196 -0.4874
 2861TIP3   OH230073   4.056   2.753   6.525 -0.2462 -0.4021 -0.2024
 2861TIP3    H130074   4.113   2.697   6.578 -0.0318  0.6204  0.6559
 2861TIP3    H230075   4.098   2.754   6.439  1.9699  1.6067  0.8186
 2862TIP3   OH230076   2.050   0.258   3.354  0.2673 -0.2705 -0.3302
 2862TIP3    H130077   2.100   0.290   3.279  0.2183 -2.6663 -1.4663
 2862TIP3    H230078   1.966   0.232   3.316 -0.5218  0.3897  0.9345
 2863TIP3   OH230079   3.193   3.243  16.990  0.4970  0.4737  0.5243
 2863TIP3    H130080   3.108   3.280  17.013 -0.6232 -0.8729 -1.3037
 2863TIP3    H230081   3.179   3.149  16.990  1.9695  0.2448  0.1007
 2864TIP3   OH230082   5.122   5.429   1.229  0.0423  0.0128  0.2942
 2864TIP3    H130083   5.075   5.349   1.253  0.1706 -0.2919 -0.4570
 2864TIP3    H230084   5.093   5.448   1.139  1.4040 -0.2313 -0.2162
 2865TIP3   OH230085   4.360   2.651   0.257 -0.3217  0.1982 -0.0276
 2865TIP3    H130086   4.321   2.634   0.343 -1.4476 -2.0073 -0.9294
 2865TIP3    H230087   4.289   2.689   0.205 -0.3646 -0.7628 -0.6940
 2866TIP3   OH230088   1.808   6.520  15.704 -0.3381 -0.0697 -0.4008
 2866TIP3    H130089   1.854   6.525  15.621  0.9552  0.6953  0.3414
 2866TIP3    H230090   1.786   6.611  15.725 -3.2515 -0.5181 -1.3018
 2867TIP3   OH230091   3.497   6.034   6.155 -0.1037  0.8288  0.2715
 2867TIP3    H130092   3.514   6.127   6.148 -1.4863  1.0290 -0.6380
 2867TIP3    H230093   3.402   6.025   6.142  0.6040 -1.1442 -4.9258
 2868TIP3   OH230094   2.969   5.487   0.405  0.1788 -0.2046 -0.3212
 2868TIP3    H130095   2.876   5.502   0.420  0.4248  0.6929  0.3081
 2868TIP3    H230096   2.986   5.529   0.321  0.2169  0.4268  0.0031
 2869TIP3   OH230097   5.917   3.463  11.831 -0.3831 -0.0710 -0.8493
 2869TIP3    H130098   5.994   3.407  11.841  0.5990  1.4389  0.1333
 2869TIP3    H230099   5.910   3.477  11.736  0.0145 -0.9230 -1.0111
 2870TIP3   OH230100   2.498   3.560   0.193  1.1496  0.5459 -0.0324
 2870TIP3    H130101   2.530   3.470   0.187  3.2324  1.2601 -0.0024
 2870TIP3    H230102   2.404   3.553   0.179  0.9590 -1.8888  2.0775
 2871TIP3   OH230103   1.056   3.588   0.787  0.0412  0.1311  0.5112
 2871TIP3    H130104   1.020   3.538   0.861 -2.9306 -0.2201 -1.0668
 2871TIP3    H230105   0.999   3.664   0.780  1.1012  0.8298 -0.5968
 2872TIP3   OH230106   6.071   0.596  12.501  0.1120 -0.6262 -0.1874
 2872TIP3    H130107   6.157   0.572  12.533 -1.2854 -2.9458  2.0091
 2872TIP3    H230108   6.051   0.531  12.433  0.8602  1.0987 -2.1293
 2873TIP3   OH230109   0.091   5.854   6.203  0.2999 -0.2630  0.4180
 2873TIP3    H130110   0.151   5.785   6.174 -1.4839 -1.0464 -1.5864
 2873TIP3    H230111   0.009   5.808   6.221 -0.1349  0.9780  1.6964
 2874TIP3   OH230112   5.675   4.827  15.422  0.1126 -0.3974 -0.7749
 2874TIP3    H130113   5.620   4.904  15.439 -1.3830 -1.5792 -0.0409
 2874TIP3    H230114   5.764   4.860  15.422 -0.4755  1.2603  0.0618
 2875TIP3   OH230115   5.130   1.854  14.665  0.7133  0.1797  0.6623
 2875TIP3    H130116   5.036   1.848  14.683  0.4547  0.1115 -0.6652
 2875TIP3    H230117   5.135   1.890  14.577  1.9725  1.8548  1.3885
 2876TIP3   OH230118   3.089   2.777   1.617  0.4857 -0.0183 -0.5177
 2876TIP3    H130119   3.012   2.778   1.560  0.2790 -1.7961 -0.2820
 2876TIP3    H230120   3.052   2.775   1.706  0.7752 -1.8084 -0.4191
 2877TIP3   OH230121   5.298   4.862   5.629  0.5061 -0.4897  0.5122
 2877TIP3    H130122   5.292   4.799   5.558 -1.5706 -0.2348  0.4340
 2877TIP3    H230123   5.235   4.930   5.606 -0.5421 -0.6347  2.7997
 2878TIP3   OH230124   2.136   2.995  10.478  0.0137 -0.7206 -0.1297
 2878TIP3    H130125   2.184   2.916  10.504 -1.1827 -1.6469 -0.6507
 2878TIP3    H230126   2.087   3.019  10.557 -2.0639 -2.3624 -0.8772
 2879TIP3   OH230127   0.434   1.414  11.461 -0.4947 -0.1047  0.3785
 2879TIP3    H130128   0.382   1.336  11.480  1.2653 -1.7585 -1.3681
 2879TIP3    H230129   0.523   1.381  11.449  0.1248  2.0557 -1.2619
 2880TIP3   OH230130   4.664   5.938  14.710  0.7064 -0.7238 -0.3507
 2880TIP3    H130131   4.687   6.029  14.692 -0.2359 -0.3645  0.2019
 2880TIP3    H230132   4.660   5.933  14.806  0.8659 -1.3726 -0.3748
 2881TIP3   OH230133   0.384   2.567  16.847 -0.7120 -0.8703  0.0036
 2881TIP3    H130134   0.391   2.643  16.904 -1.3009 -1.0382  0.3006
 2881TIP3    H230135   0.469   2.523  16.855 -0.0811  0.1732 -0.7722
 2882TIP3   OH230136   5.172   2.260   6.064  0.2740 -0.2657  0.7821
 2882TIP3    H130137   5.106   2.305   6.011  0.5059  0.7995  1.3961
 2882TIP3    H230138   5.251   2.262   6.010  0.5475  0.9456  1.2223
 2883TIP3   OH230139   0.941   1.304  13.595  0.0875 -0.3265 -0.1920
 2883TIP3    H130140   0.967   1.367  13.662  2.7641  0.4276 -1.8626
 2883TIP3    H230141   0.974   1.220  13.625 -0.2304 -0.3005  0.2400
 2884TIP3   OH230142   1.188   0.079   5.959 -0.4212  0.6651 -0.5909
 2884TIP3    H130143   1.147   0.090   6.044 -0.3964  1.7596 -0.7084
 2884TIP3    H230144   1.264   0.024   5.976 -1.0326 -0.0306 -0.0972
 2885TIP3   OH230145   2.815   6.110   1.949  0.1263 -0.3018 -0.0915
 2885TIP3    H130146   2.810   6.025   1.906 -1.2536 -0.7793  0.9792
 2885TIP3    H230147   2.781   6.095   2.037 -0.6248  1.4438 -0.0497
 2886TIP3   OH230148   4.725   4.840  14.956 -0.4915  0.1663 -0.4502
 2886TIP3    H130149   4.757   4.752  14.978 -1.6954  0.4579  2.7181
 2886TIP3    H230150   4.802   4.896  14.961 -0.1668 -0.3109  0.0032
 2887TIP3   OH230151   4.813   2.792  13.827 -0.1762  0.0513 -0.1211
 2887TIP3    H130152   4.738   2.852  13.824 -0.5906 -0.5022 -0.9235
 2887TIP3    H230153   4.778   2.708  13.800  0.9639  0.0253 -1.5888
 2888TIP3   OH230154   2.314   0.185   4.922 -0.0828 -0.3105  0.0504
 2888TIP3    H130155   2.323   0.233   4.840 -2.8533 -0.5623 -0.4491
 2888TIP3    H230156   2.313   0.253   4.990 -2.7003  0.3148 -0.5579
 2889TIP3   OH230157   4.241   6.703  13.029 -0.6434  0.6224  0.3899
 2889TIP3    H130158   4.158   6.685  13.074 -1.7569  3.4983 -0.4184
 2889TIP3    H230159   4.289   6.761  13.088  1.2091 -1.6788  1.2285
 2890TIP3   OH230160   4.023   3.512   1.384  0.2607 -0.1883  0.4446
 2890TIP3    H130161   3.974   3.589   1.412 -2.0368 -1.7567  0.8323
 2890TIP3    H230162   4.005   3.446   1.451  1.0929 -1.5064 -0.5968
 2891TIP3   OH230163   2.713   4.317   4.107  0.1611  0.6313  0.0017
 2891TIP3    H130164   2.637   4.261   4.093  1.0181 -0.5503  0.0435
 2891TIP3    H230165   2.758   4.319   4.023 -0.5535  2.3216 -0.3694
 2892TIP3   OH230166   0.813   1.394  14.705  0.3501  0.1254  0.2847
 2892TIP3    H130167   0.904   1.423  14.702  0.7868 -1.0816  1.2447
 2892TIP3    H230168   0.763   1.474  14.725  1.5953  0.1568  3.6956
 2893TIP3   OH230169   3.533   3.152  15.227  0.2643 -0.1656 -0.0889
 2893TIP3    H130170   3.611   3.125  15.275 -0.1419  2.4610  2.1512
 2893TIP3    H230171   3.462   3.146  15.290 -0.5071  2.0686 -0.6873
 2894TIP3   OH230172   2.074   4.518  13.264 -0.0472  0.3543 -0.7593
 2894TIP3    H130173   1.980   4.535  13.256 -0.5833 -1.8947  0.1847
 2894TIP3    H230174   2.113   4.561  13.188 -2.1593 -0.8663 -2.5861
 2895TIP3   OH230175   4.045   5.035  11.688 -0.1038 -0.0621  0.1596
 2895TIP3    H130176   4.091   5.116  11.666 -1.5690  0.5373 -0.7472
 2895TIP3    H230177   4.107   4.987  11.744  1.1888  1.1999 -0.1508
 2896TIP3   OH230178   5.823   6.664  14.477  0.4560 -0.0862  0.2293
 2896TIP3    H130179   5.812   6.586  14.532  0.1280 -0.2191 -0.0233
 2896TIP3    H230180   5.789   6.638  14.391 -0.4111  0.5825  0.3539
 2897TIP3   OH230181   3.860   0.645   0.359  0.6458  0.3503 -0.2948
 2897TIP3    H130182   3.894   0.697   0.432  0.5442  0.5329 -0.3796
 2897TIP3    H230183   3.884   0.555   0.382 -2.0416  0.0360  1.4945
 2898TIP3   OH230184   6.002   1.414  16.657 -0.3058 -0.0799 -0.1036
 2898TIP3    H130185   6.083   1.452  16.691  0.4104 -1.9699  0.3710
 2898TIP3    H230186   5.938   1.426  16.727 -0.3247  1.0405 -0.3109
 2899TIP3   OH230187   6.518   2.430  12.498 -0.4101  0.7309  0.2547
 2899TIP3    H130188   6.516   2.519  12.464 -0.0981  0.2735 -0.9872
 2899TIP3    H230189   6.428   2.413  12.526 -0.8088  0.9064 -0.9034
 2900TIP3   OH230190   4.538   6.623  14.932  0.4233  0.6217  0.5145
 2900TIP3    H130191   4.602   6.610  14.863 -0.2523  0.8996 -0.1758
 2900TIP3    H230192   4.494   6.538  14.941 -0.8939  1.1299 -0.8460
 2901TIP3   OH230193   0.453   4.974  13.488  0.5931  0.4696  0.1083
 2901TIP3    H130194   0.361   4.985  13.513 -0.0830 -1.7313 -1.2407
 2901TIP3    H230195   0.468   4.880  13.493  1.7834  0.4280 -2.9858
 2902TIP3   OH230196   2.968   4.450   5.084 -0.3493  0.1380  0.0349
 2902TIP3    H130197   3.049   4.486   5.047 -0.5792 -2.1177 -2.8219
 2902TIP3    H230198   2.901   4.515   5.063  0.1092  0.3970 -0.6318
 2903TIP3   OH230199   0.288   6.056   3.636  0.3593 -0.6942 -0.0444
 2903TIP3    H130200   0.302   5.976   3.687  0.8013 -0.7132 -0.1932
 2903TIP3    H230201   0.295   6.028   3.545  0.1047 -0.5600 -0.1066
 2904TIP3   OH230202   0.365   0.136   5.187  0.6255  0.7464  0.5899
 2904TIP3    H130203   0.356   0.041   5.200 -1.0763  0.9076  0.6767
 2904TIP3    H230204   0.432   0.162   5.250 -0.1172 -0.1442  1.7766
 2905TIP3   OH230205   0.984   5.007   4.588 -0.1223  0.1426  0.4513
 2905TIP3    H130206   0.974   4.924   4.542  1.2483 -1.2230  2.5677
 2905TIP3    H230207   1.079   5.019   4.597 -0.2638  2.3684 -0.5583
 2906TIP3   OH230208   2.209   4.954  12.940 -0.0389  0.4518 -0.5543
 2906TIP3    H130209   2.144   4.964  12.870 -0.0044  3.0395 -0.2505
 2906TIP3    H230210   2.290   4.986  12.902  0.0334  1.6535  0.5552
 2907TIP3   OH230211   2.104   1.533   1.436 -0.2579  0.8867  0.0119
 2907TIP3    H130212   2.061   1.496   1.360 -1.4355  0.9624  0.6251
 2907TIP3    H230213   2.085   1.627   1.431 -1.8297  0.6597  1.3183
 2908TIP3   OH230214   6.355   1.433   1.286 -0.4089 -0.6032 -0.2103
 2908TIP3    H130215   6.366   1.521   1.250  1.6726 -0.2573  1.1814
 2908TIP3    H230216   6.356   1.445   1.380  1.2574 -2.2672  0.0023
 2909TIP3   OH230217   1.828   6.164   0.400  0.1904  0.1800 -0.2279
 2909TIP3    H130218   1.837   6.207   0.315  0.1973 -1.6259 -1.1424
 2909TIP3    H230219   1.738   6.181   0.426 -0.3904 -0.9274 -1.5058
 2910TIP3   OH230220   5.882   2.798  11.494 -0.0890  0.3474  0.2749
 2910TIP3    H130221   5.914   2.738  11.427  0.0569 -1.2087  1.7026
 2910TIP3    H230222   5.954   2.858  11.510  1.2572 -1.5768  1.6640
 2911TIP3   OH230223   3.344   1.343   1.264 -0.6480  0.1538  0.9020
 2911TIP3    H130224   3.385   1.429   1.268 -0.0157 -0.0636 -0.4222
 2911TIP3    H230225   3.411   1.283   1.299  0.0526 -0.1481 -0.8754
 2912TIP3   OH230226   1.605   1.391   1.965 -0.2540  0.0652  0.2090
 2912TIP3    H130227   1.672   1.387   1.896 -0.4446 -0.0785  0.0317
 2912TIP3    H230228   1.548   1.317   1.947 -0.3824  0.1071  0.4440
 2913TIP3   OH230229   5.035   4.704  13.695  0.9461  0.0924 -1.0970
 2913TIP3    H130230   5.112   4.683  13.642  1.5165 -0.4322 -0.0739
 2913TIP3    H230231   4.971   4.637  13.670  1.3957 -0.4754 -0.7427
 2914TIP3   OH230232   0.335   4.041   6.160  0.0945 -0.1614 -0.0683
 2914TIP3    H130233   0.258   3.990   6.137 -0.4586  1.3140 -1.6660
 2914TIP3    H230234   0.384   3.986   6.221 -1.2443 -1.9170 -0.5465
 2915TIP3   OH230235   0.821   6.723   4.686  0.3661  0.0669 -0.1457
 2915TIP3    H130236   0.779   6.720   4.772  0.5030 -2.5927 -0.1277
 2915TIP3    H230237   0.914   6.709   4.704  0.6157  1.0943 -0.6026
 2916TIP3   OH230238   1.745   3.918   3.600 -0.2724  0.5491  0.2200
 2916TIP3    H130239   1.682   3.927   3.672 -1.2727  1.4218 -0.7603
 2916TIP3    H230240   1.737   3.827   3.573  0.4417  0.0838  1.5031
 2917TIP3   OH230241   4.004   2.515   1.518 -0.3567  0.4013  0.5759
 2917TIP3    H130242   4.036   2.452   1.453  0.3837  0.7092  0.6417
 2917TIP3    H230243   4.050   2.596   1.497 -1.7050  1.0820  0.1509
 2918TIP3   OH230244   6.187   1.028  13.690  0.2502  0.0890  0.5333
 2918TIP3    H130245   6.106   1.020  13.740 -0.1379  1.5421  0.1594
 2918TIP3    H230246   6.257   1.026  13.755 -0.1357 -0.3152  0.9347
 2919TIP3   OH230247   4.459   3.505  13.530  0.2854  0.1005 -0.1855
 2919TIP3    H130248   4.509   3.560  13.590  1.8295 -1.0721 -0.3571
 2919TIP3    H230249   4.370   3.507  13.564  1.0387 -0.1413  1.8611
 2920TIP3   OH230250   6.465   6.071   5.232 -0.4038  0.4814  0.1234
 2920TIP3    H130251   6.426   5.985   5.214 -0.3560  0.2449  1.1185
 2920TIP3    H230252   6.429   6.128   5.165 -0.7325 -0.2335 -0.3191
 2921TIP3   OH230253   3.288   4.765  11.783 -0.0218  0.1026 -0.0917
 2921TIP3    H130254   3.201   4.731  11.800 -0.4563  0.7071 -1.0297
 2921TIP3    H230255   3.309   4.819  11.859 -1.5267  2.0214 -0.9955
 2922TIP3   OH230256   3.091   2.151  11.267 -0.0531 -0.1864  0.9778
 2922TIP3    H130257   3.068   2.058  11.276  0.4996 -0.4687 -0.2908
 2922TIP3    H230258   3.060   2.192  11.347 -2.5383 -1.0235  0.4846
 2923TIP3   OH230259   2.457   3.632  16.116  0.1680  0.6983  0.1729
 2923TIP3    H130260   2.431   3.633  16.208 -0.0693 -0.8915  0.1375
 2923TIP3    H230261   2.545   3.592  16.117  1.2202  2.9278 -0.0498
 2924TIP3   OH230262   4.420   2.193   2.311  0.4375 -0.1849  0.3668
 2924TIP3    H130263   4.423   2.263   2.376 -2.9009 -1.1795  1.6779
 2924TIP3    H230264   4.351   2.219   2.250  1.9741 -0.3872 -1.5270
 2925TIP3   OH230265   4.643   2.876  13.395  0.1869 -0.1474 -0.2196
 2925TIP3    H130266   4.666   2.932  13.320 -0.5886 -0.4245 -0.6683
 2925TIP3    H230267   4.602   2.936  13.458  0.6123  0.0406 -0.1215
 2926TIP3   OH230268   4.061   0.091  12.906  0.4189  0.4239 -0.2361
 2926TIP3    H130269   4.084   0.065  12.995 -0.6436  2.1122  0.5586
 2926TIP3    H230270   4.020   0.177  12.916 -0.6499  0.1804 -2.2472
 2927TIP3   OH230271   6.512   1.677  14.198  0.2579 -0.2145 -0.1827
 2927TIP3    H130272   6.480   1.592  14.228  2.5130 -0.9877  0.1082
 2927TIP3    H230273   6.590   1.657  14.147  0.1992  1.6168 -1.0387
 2928TIP3   OH230274   1.654   4.379   2.674  0.2848 -0.1144 -0.1487
 2928TIP3    H130275   1.620   4.437   2.742  0.1253  0.5866 -0.8267
 2928TIP3    H230276   1.673   4.436   2.600  0.9647 -0.7990 -0.5154
 2929TIP3   OH230277   3.988   4.278  16.606  0.0454 -0.0274  0.1034
 2929TIP3    H130278   4.049   4.245  16.672  0.0531 -0.8632 -0.3128
 2929TIP3    H230279   3.986   4.210  16.539  0.4778  1.0561 -1.0409
 2930TIP3   OH230280   3.265   1.812  13.875  0.0441  0.7247 -0.3032
 2930TIP3    H130281   3.182   1.822  13.829 -0.6020  1.1128  0.9221
 2930TIP3    H230282   3.281   1.897  13.916 -0.2901 -0.1038  1.6388
 2931TIP3   OH230283   1.788   1.146  12.130  0.1358 -0.4319 -0.1859
 2931TIP3    H130284   1.700   1.161  12.096  0.1674 -1.0317 -0.5332
 2931TIP3    H230285   1.776   1.112  12.218  0.0480  0.9341  0.3388
 2932TIP3   OH230286   0.970   0.932   5.280 -0.0205  0.0031  0.3526
 2932TIP3    H130287   0.966   0.924   5.375 -1.2286 -0.6702  0.2592
 2932TIP3    H230288   0.897   0.879   5.248  1.1869 -0.8742 -1.0150
 2933TIP3   OH230289   3.001   2.920   3.217 -0.0691  0.2275  0.5515
 2933TIP3    H130290   2.935   2.933   3.285 -1.7091 -0.8839 -0.7901
 2933TIP3    H230291   2.953   2.929   3.135  1.7324  0.7776 -0.4629
 2934TIP3   OH230292   3.045   2.546   5.631 -0.2918  0.2638  0.0415
 2934TIP3    H130293   3.026   2.624   5.579  1.6937  0.8915  0.2264
 2934TIP3    H230294   3.108   2.497   5.579  0.7395  0.2645  1.2786
 2935TIP3   OH230295   1.951   1.035   6.185 -0.3767  0.4451  0.2545
 2935TIP3    H130296   1.963   1.130   6.184  0.0167  0.3896 -1.3441
 2935TIP3    H230297   1.993   1.006   6.266 -0.9619  1.6891  1.0076
 2936TIP3   OH230298   4.707   5.919  11.425 -0.1268  0.1155  0.0624
 2936TIP3    H130299   4.714   5.827  11.399 -0.1438  0.1656 -0.1159
 2936TIP3    H230300   4.662   5.962  11.352  0.1252  0.3173  0.0233
 2937TIP3   OH230301   2.159   4.157   4.629 -0.0937 -0.2914 -0.2999
 2937TIP3    H130302   2.252   4.172   4.648 -0.0145 -0.3944 -0.5907
 2937TIP3    H230303   2.113   4.225   4.678  0.1275 -0.3130 -0.0572
 2938TIP3   OH230304   2.002   4.679  11.895  0.6916 -0.2043 -0.0440
 2938TIP3    H130305   2.011   4.618  11.822  0.7759  0.4970 -0.6185
 2938TIP3    H230306   1.940   4.636  11.955  0.6605 -0.7949 -0.4992
 2939TIP3   OH230307   1.264   5.891  11.834  0.4466  0.0645  0.1876
 2939TIP3    H130308   1.251   5.983  11.811  1.0441  0.3710  1.0219
 2939TIP3    H230309   1.195   5.873  11.898 -0.6623 -0.5285 -1.1674
 2940TIP3   OH230310   1.084   5.603   5.634 -0.5558 -0.2698  0.6072
 2940TIP3    H130311   1.120   5.662   5.701 -0.4192  0.7930 -0.3824
 2940TIP3    H230312   1.019   5.657   5.588  0.9800 -0.2672 -1.6080
 2941TIP3   OH230313   0.765   4.899  13.859  0.2228  0.7322 -0.5675
 2941TIP3    H130314   0.708   4.949  13.800  1.6379  0.9436 -1.7851
 2941TIP3    H230315   0.750   4.807  13.835  0.2905  0.7772 -0.7803
 2942TIP3   OH230316   3.941   0.196   1.759  0.2510 -0.1087 -0.3250
 2942TIP3    H130317   3.937   0.161   1.670 -1.8018  1.1576 -0.7776
 2942TIP3    H230318   3.903   0.127   1.813 -0.2759 -0.1109 -0.6934
 2943TIP3   OH230319   6.193   5.283  15.652 -0.1909 -0.0925  0.3783
 2943TIP3    H130320   6.238   5.246  15.576 -0.5629 -3.0317  1.5305
 2943TIP3    H230321   6.120   5.333  15.615  0.8565  0.2496 -1.2632
 2944TIP3   OH230322   1.985   5.689  15.651  0.7842  0.0456 -0.0705
 2944TIP3    H130323   1.920   5.717  15.586  0.1638 -0.4287  0.3521
 2944TIP3    H230324   1.943   5.703  15.735  1.9983  1.7210  0.2873
 2945TIP3   OH230325   6.596   0.635   0.741 -0.5741 -0.6720 -0.3555
 2945TIP3    H130326   6.646   0.690   0.680 -0.0058 -0.9012 -0.0950
 2945TIP3    H230327   6.531   0.591   0.686 -1.9333  1.2930 -0.3748
 2946TIP3   OH230328   5.745   5.905   1.880  0.8918 -0.2598 -0.3789
 2946TIP3    H130329   5.744   5.868   1.969  0.9321  0.9781  0.1418
 2946TIP3    H230330   5.805   5.848   1.832  1.2807 -0.6266  0.5194
 2947TIP3   OH230331   4.156   1.713   6.210  0.2346 -0.5472 -0.4221
 2947TIP3    H130332   4.102   1.702   6.288  0.3930 -0.6606 -0.3257
 2947TIP3    H230333   4.241   1.676   6.236  0.3960 -0.2463 -0.5237
 2948TIP3   OH230334   2.633   4.851  14.180  0.8900  0.0142 -0.2358
 2948TIP3    H130335   2.662   4.923  14.123 -0.9034  1.5356  0.7392
 2948TIP3    H230336   2.556   4.816  14.136 -0.4028  1.0886  1.1560
 2949TIP3   OH230337   4.718   3.494   1.211 -0.3922 -0.0868  0.0698
 2949TIP3    H130338   4.663   3.571   1.195 -0.1648 -0.1463 -1.0915
 2949TIP3    H230339   4.709   3.442   1.131 -1.0847 -1.6092  1.1201
 2950TIP3   OH230340   4.795   0.070   0.663  0.5371 -0.5719 -0.4757
 2950TIP3    H130341   4.747  -0.012   0.653  1.4371 -1.1607 -0.0182
 2950TIP3    H230342   4.755   0.129   0.599  1.9596 -2.3239 -3.0607
 2951TIP3   OH230343   2.960   5.238  13.703  0.0216 -0.4822  0.3947
 2951TIP3    H130344   2.913   5.162  13.668 -1.4342  0.1598  0.9651
 2951TIP3    H230345   3.028   5.255  13.637 -0.1802 -1.7386 -0.1654
 2952TIP3   OH230346   2.465   3.395  15.746 -0.6807 -0.4263  0.5848
 2952TIP3    H130347   2.446   3.405  15.839  1.1622  1.8038  0.7684
 2952TIP3    H230348   2.558   3.374  15.742 -0.5668  0.2923 -0.7784
 2953TIP3   OH230349   5.059   4.349  14.820 -0.7721 -0.0268 -0.4229
 2953TIP3    H130350   5.048   4.443  14.810 -1.3673  0.1970  1.9686
 2953TIP3    H230351   4.970   4.314  14.821 -0.6118 -0.4398  0.0807
 2954TIP3   OH230352   4.293   3.051   1.507  0.2288  0.2225 -0.8302
 2954TIP3    H130353   4.371   3.102   1.486 -0.1970  0.8315 -0.9650
 2954TIP3    H230354   4.235   3.113   1.551  0.3974 -0.5896  0.5730
 2955TIP3   OH230355   5.734   1.957   3.439 -1.0032 -0.1100 -0.2151
 2955TIP3    H130356   5.788   1.895   3.487 -0.0461 -0.6841 -1.9804
 2955TIP3    H230357   5.709   1.911   3.359 -1.2484  1.3578 -1.0078
 2956TIP3   OH230358   5.629   2.569  10.655 -0.4727  0.1908 -0.6973
 2956TIP3    H130359   5.712   2.605  10.626 -0.2305 -1.8187 -2.6032
 2956TIP3    H230360   5.572   2.574  10.578 -2.1935  1.6832  0.6249
 2957TIP3   OH230361   3.973   6.713  10.704 -0.4220  0.2745  0.7245
 2957TIP3    H130362   4.023   6.795  10.701 -0.4181  0.3069  1.5740
 2957TIP3    H230363   3.899   6.728  10.645 -0.8604  1.1880  1.4986
 2958TIP3   OH230364   1.983   1.577   3.335 -0.0685 -0.3270 -0.0920
 2958TIP3    H130365   1.906   1.522   3.349  0.5311 -0.8011  1.3946
 2958TIP3    H230366   1.948   1.660   3.303 -1.0707 -1.1044 -1.0688
 2959TIP3   OH230367   6.259   0.614   6.288  0.5629  0.2045  0.5622
 2959TIP3    H130368   6.193   0.650   6.347  0.7618  0.4976  0.6106
 2959TIP3    H230369   6.239   0.653   6.203  0.6622  0.2833  0.5740
 2960TIP3   OH230370   6.222   2.028   1.018  0.1345 -0.4833  0.7844
 2960TIP3    H130371   6.311   2.059   1.030 -0.4102  0.7205  1.8322
 2960TIP3    H230372   6.167   2.106   1.030 -1.1477 -1.4871  1.6847
 2961TIP3   OH230373   4.558   3.808  13.241  0.2026 -0.7494 -0.0917
 2961TIP3    H130374   4.577   3.794  13.149  3.4206 -0.4692  0.4724
 2961TIP3    H230375   4.464   3.822  13.245  0.0817 -0.4312 -3.3627
 2962TIP3   OH230376   5.959   3.907   4.169  0.1329  0.1098  0.5394
 2962TIP3    H130377   5.959   3.836   4.233  0.4889 -0.4107 -0.0301
 2962TIP3    H230378   6.052   3.928   4.157  0.0808  0.0028 -0.0383
 2963TIP3   OH230379   1.920   4.268   2.384  0.1706  0.0489 -0.3459
 2963TIP3    H130380   1.868   4.189   2.404  0.2320  0.3340  1.0008
 2963TIP3    H230381   1.917   4.275   2.289 -0.5365 -1.1152 -0.4240
 2964TIP3   OH230382   5.978   1.802   2.532  0.4547  0.3177 -0.3632
 2964TIP3    H130383   5.900   1.772   2.484  0.6126 -0.8377  0.0714
 2964TIP3    H230384   6.051   1.778   2.475  0.6277 -0.8450  0.3304
 2965TIP3   OH230385   0.718   2.816  12.603  0.1373 -0.0854  0.1699
 2965TIP3    H130386   0.729   2.862  12.520  1.1378  2.0307  1.4184
 2965TIP3    H230387   0.677   2.733  12.580 -0.7968  1.0128 -2.2855
 2966TIP3   OH230388   1.651   2.343  12.177  0.4805 -0.6770  0.1211
 2966TIP3    H130389   1.698   2.361  12.095  2.1176 -2.1163  0.7010
 2966TIP3    H230390   1.624   2.429  12.208  0.8328 -0.0027 -1.3538
 2967TIP3   OH230391   4.581   4.113  15.571  0.3159  1.1733 -0.7269
 2967TIP3    H130392   4.605   4.048  15.505 -1.3011  0.4473 -0.6347
 2967TIP3    H230393   4.664   4.149  15.601  1.2085 -0.3928 -1.2576
 2968TIP3   OH230394   0.460   3.750   5.165 -0.3895 -0.1997  0.0012
 2968TIP3    H130395   0.428   3.796   5.088  0.3751 -1.2176 -0.9601
 2968TIP3    H230396   0.383   3.736   5.220 -0.9206  0.6177 -0.5454
 2969TIP3   OH230397   1.361   2.792   2.125  0.3062 -0.3803 -0.2516
 2969TIP3    H130398   1.353   2.698   2.106 -0.8853  0.0879 -2.3168
 2969TIP3    H230399   1.451   2.803   2.156  1.2105 -1.8775 -2.2120
 2970TIP3   OH230400   4.951   4.435   3.603 -0.1564 -0.0718 -0.1738
 2970TIP3    H130401   4.879   4.437   3.540  0.1580  3.3272 -0.4810
 2970TIP3    H230402   5.029   4.451   3.550  0.0504  3.4120  1.1172
 2971TIP3   OH230403   6.231   2.344   5.936  0.6093  0.0748  0.1788
 2971TIP3    H130404   6.241   2.254   5.964  1.1858 -0.5462 -1.8769
 2971TIP3    H230405   6.271   2.396   6.005 -1.4402 -1.0994  2.3027
 2972TIP3   OH230406   4.359   4.711   0.858  0.2298  0.0470 -0.3279
 2972TIP3    H130407   4.297   4.726   0.787  0.0239 -0.3418 -0.2280
 2972TIP3    H230408   4.305   4.698   0.936  0.4174 -0.8607 -0.3462
 2973TIP3   OH230409   6.675   0.806   2.970  0.0669 -0.2530  0.5191
 2973TIP3    H130410   6.602   0.854   2.932  1.1166  0.0914 -1.0940
 2973TIP3    H230411   6.728   0.777   2.895 -0.0065 -3.1124  1.4790
 2974TIP3   OH230412   2.328   0.671  16.059  0.0514  0.2524  0.5419
 2974TIP3    H130413   2.322   0.586  16.014 -0.6310  0.8164 -0.4514
 2974TIP3    H230414   2.378   0.652  16.138  2.2324 -0.5584 -0.9614
 2975TIP3   OH230415   2.958   3.633  16.794 -0.5369  0.1166  0.2241
 2975TIP3    H130416   2.955   3.645  16.699 -2.9192  2.1030  0.4888
 2975TIP3    H230417   2.900   3.701  16.828  0.4109 -0.4755  3.1204
 2976TIP3   OH230418   4.161   1.949  15.042 -0.3001 -0.3890 -0.3960
 2976TIP3    H130419   4.124   1.862  15.028  0.5372 -1.2522  2.5454
 2976TIP3    H230420   4.089   2.001  15.075 -0.2938 -0.5287 -0.1599
 2977TIP3   OH230421   1.254   4.399  14.155 -0.1685 -0.5299 -0.1061
 2977TIP3    H130422   1.294   4.343  14.089  2.2491  0.5842  0.3585
 2977TIP3    H230423   1.302   4.380  14.236 -0.6648  0.7150  0.5120
 2978TIP3   OH230424   4.812   4.421  12.653 -0.1900  0.5683  0.1991
 2978TIP3    H130425   4.895   4.463  12.675  2.3170 -3.1482 -1.5937
 2978TIP3    H230426   4.795   4.449  12.563  0.4580 -0.5849 -0.2989
 2979TIP3   OH230427   4.321   3.640   4.497 -0.1747  0.1610 -0.4526
 2979TIP3    H130428   4.314   3.734   4.481 -0.8273  0.5401  1.8511
 2979TIP3    H230429   4.326   3.600   4.410  0.6819  2.3668 -1.4332
 2980TIP3   OH230430   2.196   1.700   4.706 -0.1611  0.0051  0.3369
 2980TIP3    H130431   2.112   1.671   4.671 -0.4282  0.7856  0.3291
 2980TIP3    H230432   2.177   1.783   4.749  0.9690  1.1073 -1.2613
 2981TIP3   OH230433   4.191   2.028  14.697 -0.4067 -0.4085 -0.1619
 2981TIP3    H130434   4.180   1.934  14.684 -0.4372 -0.4776  0.3667
 2981TIP3    H230435   4.276   2.037  14.741 -0.8654 -0.2689  0.7148
 2982TIP3   OH230436   4.275   1.336   2.262  0.5409  0.1813  0.4734
 2982TIP3    H130437   4.364   1.355   2.232  0.5057  0.4320  0.5271
 2982TIP3    H230438   4.242   1.420   2.294 -0.9884  0.9177 -2.8115
 2983TIP3   OH230439   5.014   2.485  15.313  0.5336  0.1585 -0.0538
 2983TIP3    H130440   4.939   2.433  15.342 -0.1457  1.8787  1.3500
 2983TIP3    H230441   5.089   2.426  15.323 -0.4699 -1.2143 -0.4345
 2984TIP3   OH230442   1.284   6.081   0.103 -0.0515  0.4086 -0.5288
 2984TIP3    H130443   1.235   6.103   0.183  1.8844  1.2223  0.4637
 2984TIP3    H230444   1.335   6.160   0.084 -0.4052  0.1715 -2.5134
 2985TIP3   OH230445   2.140   5.157   4.248 -0.0755 -0.0102  0.3828
 2985TIP3    H130446   2.059   5.205   4.265 -1.8428 -2.4273 -0.9263
 2985TIP3    H230447   2.119   5.066   4.267  2.1152 -0.7926 -0.7269
 2986TIP3   OH230448   0.093   2.562  16.780  0.5181  0.0002 -0.6652
 2986TIP3    H130449   0.179   2.545  16.743 -0.9707 -4.7524 -2.3137
 2986TIP3    H230450   0.096   2.523  16.867 -0.1453 -0.8119 -0.9952
 2987TIP3   OH230451   0.482   1.766  14.434  0.2985 -0.1985 -0.1020
 2987TIP3    H130452   0.407   1.739  14.380  1.1226 -0.6451 -1.0358
 2987TIP3    H230453   0.445   1.831  14.494 -1.2864 -1.9371  0.8429
 2988TIP3   OH230454   1.622   5.410  10.345  0.2172 -0.1468  0.4968
 2988TIP3    H130455   1.638   5.374  10.432  1.8614  0.4164  0.4461
 2988TIP3    H230456   1.690   5.477  10.334 -2.0693  2.1992  0.1453
 2989TIP3   OH230457   6.331   3.935  13.873 -0.4746  0.5551 -0.4139
 2989TIP3    H130458   6.307   4.023  13.846 -3.0156 -0.7562 -2.6537
 2989TIP3    H230459   6.249   3.895  13.901  0.6223 -1.1507  0.4972
 2990TIP3   OH230460   4.559   5.559   0.726 -0.5714  0.1562 -0.6128
 2990TIP3    H130461   4.574   5.628   0.661  0.6519  1.0885  0.6203
 2990TIP3    H230462   4.531   5.483   0.674 -0.5324  1.1545 -2.1342
 2991TIP3   OH230463   2.194   6.492  14.576 -0.4370  0.0837  0.3131
 2991TIP3    H130464   2.108   6.468  14.542  1.0681 -3.2012 -1.4217
 2991TIP3    H230465   2.218   6.421  14.634  1.8533  0.0190 -0.6496
 2992TIP3   OH230466   3.718   3.834  10.646 -0.0443 -0.8862 -0.1052
 2992TIP3    H130467   3.683   3.858  10.560  0.3112  1.4332  0.3643
 2992TIP3    H230468   3.642   3.833  10.704 -0.1268 -1.3797 -0.2185
 2993TIP3   OH230469   5.500   1.242  11.140 -0.7375 -0.0043 -0.0513
 2993TIP3    H130470   5.456   1.239  11.055 -0.2743 -1.3487 -0.2557
 2993TIP3    H230471   5.576   1.299  11.126  0.0750 -1.2857 -0.9025
 2994TIP3   OH230472   2.652   1.693  16.491  0.3368 -0.7304  0.2159
 2994TIP3    H130473   2.601   1.671  16.569 -0.0170 -1.6418 -0.2697
 2994TIP3    H230474   2.732   1.642  16.500  0.1932 -1.0167 -0.1338
 2995TIP3   OH230475   3.715   1.249   0.720  0.1632 -0.2856  0.2355
 2995TIP3    H130476   3.759   1.288   0.796 -1.6949  2.7118 -0.1595
 2995TIP3    H230477   3.622   1.250   0.743 -0.5155  1.3948 -2.3790
 2996TIP3   OH230478   5.399   5.586  14.532 -0.0304 -0.4106  0.0691
 2996TIP3    H130479   5.419   5.648  14.602  1.1626  0.3570 -0.9276
 2996TIP3    H230480   5.393   5.639  14.453  0.8486 -1.5231 -0.7712
 2997TIP3   OH230481   0.040   0.171  16.587 -0.3053 -0.3237  0.2446
 2997TIP3    H130482   0.094   0.112  16.535 -0.4074  0.0414 -0.2701
 2997TIP3    H230483   0.082   0.257  16.578 -0.0719 -0.3428  1.1117
 2998TIP3   OH230484   2.821   0.126   5.070  0.5090  0.4846 -0.0142
 2998TIP3    H130485   2.809   0.072   4.992 -0.0503  1.6668 -0.7672
 2998TIP3    H230486   2.872   0.071   5.129  0.7754 -0.5117 -1.1329
 2999TIP3   OH230487   3.829   3.063   2.003  0.3112 -0.0794 -0.3961
 2999TIP3    H130488   3.903   3.123   1.989 -0.0764  0.6163  0.4610
 2999TIP3    H230489   3.770   3.079   1.929  0.4015  0.3043 -0.3838
 3000TIP3   OH230490   4.787   6.446   3.301  0.0455 -0.2968  0.6805
 3000TIP3    H130491   4.822   6.509   3.363  1.4396 -1.2769  0.9110
 3000TIP3    H230492   4.763   6.497   3.224 -0.9731  0.8151  1.7190
 3001TIP3   OH230493   0.725   4.638   1.754  0.4969 -0.3419 -0.1102
 3001TIP3    H130494   0.727   4.727   1.720  1.8651  0.0900  1.0312
 3001TIP3    H230495   0.700   4.648   1.846  0.7522 -1.1355  0.0486
 3002TIP3   OH230496   1.469   5.466  12.749 -0.3918  0.2065 -0.3320
 3002TIP3    H130497   1.531   5.538  12.762  0.9105 -1.2148  1.7526
 3002TIP3    H230498   1.490   5.432  12.662  0.6550  0.7773 -0.3179
 3003TIP3   OH230499   1.478   3.437  14.582 -0.1855 -0.3986  0.0893
 3003TIP3    H130500   1.471   3.514  14.637  0.6447 -0.2608  0.0124
 3003TIP3    H230501   1.520   3.371  14.637 -3.5219 -1.7723  1.1258
 3004TIP3   OH230502   5.380   4.252  15.505 -0.4352 -0.1283  0.2096
 3004TIP3    H130503   5.394   4.162  15.535 -0.3132 -0.0757  0.3085
 3004TIP3    H230504   5.446   4.303  15.551  0.5421 -0.2242 -1.0233
 3005TIP3   OH230505   3.076   1.020   4.965 -0.7818  0.1358 -0.2641
 3005TIP3    H130506   3.009   1.058   5.022 -2.4397 -0.7654 -1.5650
 3005TIP3    H230507   3.031   0.950   4.919  0.1805  1.5885 -3.5538
 3006TIP3   OH230508   3.549   0.348   0.603  0.3947  0.2285  0.0058
 3006TIP3    H130509   3.470   0.324   0.650 -1.2499 -0.5654 -3.0752
 3006TIP3    H230510   3.552   0.444   0.608 -0.2268  0.1979  0.9492
 3007TIP3   OH230511   4.994   1.651  14.283  0.6237 -0.7638 -0.2624
 3007TIP3    H130512   5.034   1.729  14.322 -0.6041 -0.7852  1.0788
 3007TIP3    H230513   5.068   1.591  14.267  1.2634 -0.3442  1.0990
 3008TIP3   OH230514   1.793   6.703  15.130  0.1538  0.2221  0.5816
 3008TIP3    H130515   1.867   6.743  15.084 -0.3168 -1.6235 -1.8353
 3008TIP3    H230516   1.723   6.769  15.125  0.3644  0.3613 -0.6412
 3009TIP3   OH230517   0.906   0.485   4.723 -0.3591 -0.1314 -0.7364
 3009TIP3    H130518   0.837   0.550   4.734  1.0906  1.0214  2.0203
 3009TIP3    H230519   0.876   0.410   4.775 -0.3076 -0.2394 -0.8631
 3010TIP3   OH230520   5.252   1.331   1.445  0.1893  0.0831 -0.1595
 3010TIP3    H130521   5.304   1.411   1.441 -0.4040  0.4917  0.1428
 3010TIP3    H230522   5.271   1.285   1.364 -0.9944  1.5011 -1.2726
 3011TIP3   OH230523   1.473   4.769  12.597  0.3663 -0.3184 -0.1208
 3011TIP3    H130524   1.428   4.823  12.531  0.1183  0.0637  0.3600
 3011TIP3    H230525   1.468   4.820  12.677 -2.4483 -2.3194  1.0650
 3012TIP3   OH230526   6.768   1.651   2.132 -0.6769  0.3472 -0.0736
 3012TIP3    H130527   6.787   1.571   2.084 -0.9981 -0.3036  0.8781
 3012TIP3    H230528   6.675   1.645   2.152 -0.4897  0.5000  0.8460
 3013TIP3   OH230529   4.329   6.779  15.135 -0.4811 -0.1790 -0.2575
 3013TIP3    H130530   4.276   6.812  15.062 -1.1273 -1.4415 -0.3688
 3013TIP3    H230531   4.359   6.693  15.107  0.4486 -0.0822  0.4018
 3014TIP3   OH230532   1.475   6.619   3.015 -0.1729  0.5957  0.2697
 3014TIP3    H130533   1.509   6.668   2.940  0.1195  0.0151  0.0231
 3014TIP3    H230534   1.477   6.528   2.987 -0.0069  0.3730  1.0089
 3015TIP3   OH230535   4.322   1.024  14.708 -0.0465 -0.2179 -0.4000
 3015TIP3    H130536   4.374   1.099  14.678 -0.4091 -0.1996 -0.9828
 3015TIP3    H230537   4.301   0.975  14.628 -1.3717  0.0590 -0.2302
 3016TIP3   OH230538   2.326   2.927  14.126 -0.1414  0.0702 -0.2006
 3016TIP3    H130539   2.379   2.916  14.047  0.1113 -0.3037  0.0157
 3016TIP3    H230540   2.346   2.849  14.178 -0.7399  0.0338 -0.0224
 3017TIP3   OH230541   3.711   5.075   5.980  0.0840  0.4869  0.4266
 3017TIP3    H130542   3.723   4.981   5.991  1.3632  0.4137 -1.3864
 3017TIP3    H230543   3.773   5.099   5.911 -2.1816  2.1645 -1.0902
 3018TIP3   OH230544   3.002   4.951  16.846  0.2455  0.4390  0.9112
 3018TIP3    H130545   2.995   4.873  16.901 -0.7682 -0.0424  0.1101
 3018TIP3    H230546   2.984   5.024  16.906  3.7786  0.2989  2.2573
 3019TIP3   OH230547   6.376   0.290   4.359 -0.0228 -0.1902 -0.3172
 3019TIP3    H130548   6.382   0.325   4.270  0.1749  0.8483  0.0997
 3019TIP3    H230549   6.354   0.198   4.346 -0.1270 -0.0247 -1.4414
 3020TIP3   OH230550   5.425   4.732   3.565 -0.2109  0.3233  0.4001
 3020TIP3    H130551   5.356   4.773   3.618 -2.1615 -1.1321 -0.9394
 3020TIP3    H230552   5.400   4.640   3.559  1.6982 -0.1765 -0.3793
 3021TIP3   OH230553   6.005   2.104   0.539  0.0093  0.0844  0.4549
 3021TIP3    H130554   5.948   2.180   0.534 -1.6882 -1.1037  1.2833
 3021TIP3    H230555   6.049   2.113   0.624  1.5682  1.3269 -0.4554
 3022TIP3   OH230556   1.061   3.953   3.084 -0.2131  0.1853 -0.8244
 3022TIP3    H130557   1.122   4.006   3.137  1.0308 -1.7652 -0.2314
 3022TIP3    H230558   0.979   3.954   3.134  0.0999  0.7201 -0.3065
 3023TIP3   OH230559   3.026   1.453   3.116 -0.5072 -0.4340  0.3605
 3023TIP3    H130560   3.044   1.461   3.210 -0.3208  0.7498  0.2383
 3023TIP3    H230561   3.102   1.494   3.074 -0.6926 -0.7684 -0.2969
 3024TIP3   OH230562   1.264   0.318   4.285 -0.8431 -0.5130 -0.4809
 3024TIP3    H130563   1.328   0.266   4.334 -0.7226  0.1381  0.0548
 3024TIP3    H230564   1.316   0.381   4.236 -1.0865  0.1913  0.1607
 3025TIP3   OH230565   5.177   5.402  13.196 -0.3204  0.2208 -0.0946
 3025TIP3    H130566   5.257   5.450  13.176 -0.8439  0.8771 -0.6059
 3025TIP3    H230567   5.107   5.464  13.179 -0.9399 -0.3311  0.4307
 3026TIP3   OH230568   6.482   5.054   2.251 -0.0993  0.0490  0.4156
 3026TIP3    H130569   6.416   5.004   2.203 -0.3615  0.3252  0.4899
 3026TIP3    H230570   6.565   5.026   2.212 -0.4323  1.8121 -1.6269
 3027TIP3   OH230571   1.439   1.704  11.776 -0.0945 -0.4585 -0.2271
 3027TIP3    H130572   1.530   1.676  11.769  0.1986  1.0870 -3.6168
 3027TIP3    H230573   1.444   1.799  11.787 -1.3128 -0.0732 -2.7530
 3028TIP3   OH230574   0.703   5.602   6.103 -0.0547  0.1695 -0.3798
 3028TIP3    H130575   0.635   5.665   6.126 -1.8546 -0.9138 -2.5598
 3028TIP3    H230576   0.724   5.622   6.012  1.1245 -0.7965 -0.3301
 3029TIP3   OH230577   2.650   5.992   4.074  0.1987  0.0364  0.1466
 3029TIP3    H130578   2.591   6.004   4.148  1.0462  0.3923  0.7772
 3029TIP3    H230579   2.643   5.899   4.052  1.0234 -0.3927  1.6136
 3030TIP3   OH230580   5.041   3.555  15.047 -0.3920 -0.0758 -0.4666
 3030TIP3    H130581   5.062   3.632  14.993 -1.8050  0.9996  0.4640
 3030TIP3    H230582   5.027   3.485  14.984  0.2316  0.6005 -1.3770
 3031TIP3   OH230583   6.652   5.434   1.090 -0.4402  0.5682 -0.6055
 3031TIP3    H130584   6.692   5.467   1.010  2.6022  0.6131  0.8498
 3031TIP3    H230585   6.637   5.341   1.073 -0.0580  0.6339 -1.3241
 3032TIP3   OH230586   3.188   2.641  12.512  0.3825  0.0396  0.7641
 3032TIP3    H130587   3.228   2.632  12.426 -1.1379 -0.1020  0.0572
 3032TIP3    H230588   3.093   2.641  12.495  0.0797  3.8064  2.0583
 3033TIP3   OH230589   3.518   4.931   1.995 -0.1174  0.1930 -0.1948
 3033TIP3    H130590   3.476   4.996   2.051 -1.2900 -0.8023  0.0978
 3033TIP3    H230591   3.448   4.901   1.937  0.5228 -0.5040 -0.6107
 3034TIP3   OH230592   1.951   3.036  16.441  0.1594  0.1225 -0.5801
 3034TIP3    H130593   1.876   2.996  16.486 -0.4345  0.5071 -1.2168
 3034TIP3    H230594   2.019   2.969  16.442  0.4373  0.4027  1.6158
 3035TIP3   OH230595   0.174   2.528   2.590 -0.5120  0.2860 -0.5346
 3035TIP3    H130596   0.091   2.566   2.619 -1.5299  0.2588 -3.2507
 3035TIP3    H230597   0.158   2.502   2.499  2.4175  0.0902 -1.0461
 3036TIP3   OH230598   5.700   2.065  14.545  0.2678  0.7932 -0.6478
 3036TIP3    H130599   5.707   2.087  14.452 -0.1317  1.0149 -0.6257
 3036TIP3    H230600   5.618   2.106  14.574 -0.1458 -0.1742 -0.4480
 3037TIP3   OH230601   4.243   1.137  14.000 -0.2426  0.1329  0.2559
 3037TIP3    H130602   4.297   1.063  14.025  0.9284  1.6627  2.3978
 3037TIP3    H230603   4.157   1.099  13.981  0.8196 -1.9592 -0.4878
 3038TIP3   OH230604   4.183   3.266   1.650 -0.0920  0.0529 -0.0166
 3038TIP3    H130605   4.089   3.248   1.641 -0.6225  2.2730  0.5650
 3038TIP3    H230606   4.188   3.362   1.654  2.2963 -0.0029 -0.9636
 3039TIP3   OH230607   0.445   1.651   1.340  0.1853 -0.1864  0.8564
 3039TIP3    H130608   0.401   1.566   1.347  0.6473 -0.6130 -1.0773
 3039TIP3    H230609   0.475   1.670   1.429 -0.3897 -1.7918  1.4104
 3040TIP3   OH230610   3.470   3.529  13.269 -0.0353  0.0183  0.2621
 3040TIP3    H130611   3.497   3.568  13.186 -1.0586 -0.5078 -0.3407
 3040TIP3    H230612   3.443   3.603  13.324  0.2382  0.3324 -0.0262
 3041TIP3   OH230613   4.314   5.279   3.944  0.0564 -0.0968 -0.3154
 3041TIP3    H130614   4.367   5.221   3.891  1.3413  0.1232  0.7033
 3041TIP3    H230615   4.313   5.362   3.897  2.0604  0.4109  0.4940
 3042TIP3   OH230616   1.711   4.093   2.654  0.4118 -0.2137 -0.2254
 3042TIP3    H130617   1.703   4.189   2.657  0.2964 -0.1779 -1.3105
 3042TIP3    H230618   1.749   4.069   2.738  0.6934  0.8172 -0.0544
 3043TIP3   OH230619   4.929   3.774   6.426  0.2676 -0.2084 -0.0527
 3043TIP3    H130620   4.856   3.713   6.426  0.3873 -0.3623 -0.9068
 3043TIP3    H230621   4.938   3.801   6.335  2.9814 -2.2925 -0.4949
 3044TIP3   OH230622   2.203   3.344  11.226  0.0041  0.2742 -0.2235
 3044TIP3    H130623   2.221   3.434  11.197 -0.2678  0.1614 -0.7388
 3044TIP3    H230624   2.114   3.326  11.196  0.7178 -0.8290 -1.7458
 3045TIP3   OH230625   5.365   4.427   1.096  0.5206  0.3191  0.1714
 3045TIP3    H130626   5.423   4.409   1.022 -0.2003  2.2388 -0.9344
 3045TIP3    H230627   5.283   4.454   1.055 -0.2856  0.2451  1.6981
 3046TIP3   OH230628   6.611   6.622  11.140  0.5244  0.3097 -0.4114
 3046TIP3    H130629   6.525   6.663  11.140 -0.3821 -1.5451  0.6564
 3046TIP3    H230630   6.659   6.668  11.209 -0.5412 -0.4733  0.8917
 3047TIP3   OH230631   2.819   4.137  12.974 -0.3996 -0.0991  0.8117
 3047TIP3    H130632   2.881   4.064  12.964 -1.0575 -0.8151  1.8392
 3047TIP3    H230633   2.745   4.114  12.917  0.3645  0.8640 -0.5841
 3048TIP3   OH230634   0.929   6.125  16.984 -0.1818  0.6274  0.9780
 3048TIP3    H130635   0.998   6.061  17.000 -1.4968 -0.7462  1.3001
 3048TIP3    H230636   0.913   6.165  17.070 -0.4923  0.1962  1.1257
 3049TIP3   OH230637   6.754   0.472   5.190  0.5936 -0.5456 -0.0082
 3049TIP3    H130638   6.673   0.428   5.166 -0.0176  0.0234  0.9745
 3049TIP3    H230639   6.760   0.547   5.130  0.2291 -0.4033  0.1354
 3050TIP3   OH230640   6.217   1.192  15.832 -0.6983 -0.3348 -0.0010
 3050TIP3    H130641   6.174   1.252  15.771 -3.1047 -1.0997  0.8741
 3050TIP3    H230642   6.146   1.138  15.866  0.7042 -0.4603  2.8615
 3051TIP3   OH230643   0.799   6.756  16.862 -0.0110 -0.2442  0.0325
 3051TIP3    H130644   0.874   6.746  16.920 -0.6501  0.5566  1.0044
 3051TIP3    H230645   0.818   6.836  16.812  0.7691 -1.1961 -1.2328
 3052TIP3   OH230646   5.016   2.079  13.325  0.0633  0.1603 -0.0538
 3052TIP3    H130647   5.061   2.039  13.251 -0.9582  0.0766 -0.6434
 3052TIP3    H230648   5.042   2.027  13.400  0.9243  0.0982 -0.3967
 3053TIP3   OH230649   0.128   1.409  17.179 -0.3404 -0.0419  0.6441
 3053TIP3    H130650   0.072   1.358  17.238  0.0553 -1.5304 -0.2261
 3053TIP3    H230651   0.210   1.419  17.227 -0.9236  1.0619  1.4130
 3054TIP3   OH230652   4.669   3.755   4.153 -0.4045  0.2867 -0.3582
 3054TIP3    H130653   4.641   3.763   4.244  0.0310 -0.5312 -0.1430
 3054TIP3    H230654   4.752   3.804   4.149 -0.4260  0.3263 -0.3164
 3055TIP3   OH230655   0.943   1.439  14.347 -0.4824 -0.0492 -1.0993
 3055TIP3    H130656   0.927   1.349  14.374 -4.3596  1.3923  2.0131
 3055TIP3    H230657   0.857   1.472  14.320  0.2111  3.5405  0.7392
 3056TIP3   OH230658   4.191   4.456   6.507 -0.4954 -0.2830  0.0579
 3056TIP3    H130659   4.149   4.540   6.491 -0.5304 -0.3974 -0.4434
 3056TIP3    H230660   4.260   4.450   6.442  0.2811 -0.1180  0.8550
 3057TIP3   OH230661   2.812   3.136   5.034  0.3940  0.3592  0.0506
 3057TIP3    H130662   2.786   3.121   4.943 -1.2832  1.4738  0.3205
 3057TIP3    H230663   2.905   3.117   5.036  0.0370 -1.7007 -1.4479
 3058TIP3   OH230664   3.877   3.232  12.020 -0.4327  0.0289  0.7245
 3058TIP3    H130665   3.901   3.189  11.938  1.3167  1.7805  0.2932
 3058TIP3    H230666   3.905   3.171  12.088 -0.8103 -0.8983  0.0661
 3059TIP3   OH230667   1.114   6.325   0.814  0.0672  0.0646  0.5832
 3059TIP3    H130668   1.069   6.277   0.884 -1.9429  0.4717 -0.3944
 3059TIP3    H230669   1.203   6.338   0.848 -0.5798 -0.6064  2.6473
 3060TIP3   OH230670   6.346   0.927  12.320 -0.0206 -0.3266  0.1724
 3060TIP3    H130671   6.253   0.922  12.341 -0.3176  2.4789 -0.3259
 3060TIP3    H230672   6.349   0.936  12.225  0.8026 -1.2110  0.1070
 3061TIP3   OH230673   5.201   6.656  12.557 -0.0320 -0.0113  0.3224
 3061TIP3    H130674   5.149   6.695  12.486  0.4388 -1.0914 -0.6442
 3061TIP3    H230675   5.169   6.697  12.637  0.2358  2.1225 -0.6321
 3062TIP3   OH230676   2.421   5.618  11.832 -0.5340 -0.2090 -0.2545
 3062TIP3    H130677   2.328   5.635  11.847 -0.4443 -0.6178  0.8808
 3062TIP3    H230678   2.438   5.649  11.743 -1.9131 -0.7701 -0.7303
 3063TIP3   OH230679   5.512   5.519   6.306  0.7048  0.1704 -0.0213
 3063TIP3    H130680   5.602   5.541   6.332  1.9373 -2.9617 -1.4097
 3063TIP3    H230681   5.481   5.460   6.375  0.6120 -0.6607 -0.7624
 3064TIP3   OH230682   5.439   1.116  12.213  0.0796 -0.0146  0.3660
 3064TIP3    H130683   5.468   1.200  12.178 -1.0927  0.2274 -0.0637
 3064TIP3    H230684   5.484   1.051  12.159  1.4887  0.3145  1.1124
 3065TIP3   OH230685   2.625   5.458   2.677 -0.0597 -0.1259 -0.3678
 3065TIP3    H130686   2.558   5.485   2.614 -0.2796  0.3554  0.0712
 3065TIP3    H230687   2.575   5.423   2.751  0.1887 -0.1212 -0.1996
 3066TIP3   OH230688   6.516   3.168  13.445 -0.3664  0.0123 -0.3622
 3066TIP3    H130689   6.494   3.250  13.401  0.6576  0.5606  0.1412
 3066TIP3    H230690   6.593   3.188  13.497 -0.3280 -1.1789  0.0602
 3067TIP3   OH230691   4.771   0.911   4.873  0.2079  0.0438 -0.4205
 3067TIP3    H130692   4.787   0.817   4.860  0.4603  0.2925 -1.9912
 3067TIP3    H230693   4.852   0.944   4.911 -0.1313 -0.5005  0.7938
 3068TIP3   OH230694   2.173   3.041  13.072 -0.1279  0.3641  0.0206
 3068TIP3    H130695   2.081   3.017  13.062 -0.0440  0.3201 -0.7124
 3068TIP3    H230696   2.220   2.977  13.019  0.2033  1.3442 -0.8815
 3069TIP3   OH230697   4.615   2.279  13.763  0.3322  0.1279  0.0631
 3069TIP3    H130698   4.710   2.272  13.772  0.8273  2.6669 -2.4875
 3069TIP3    H230699   4.592   2.215  13.696  0.0029 -1.4909  1.6812
 3070TIP3   OH230700   3.354   1.435  15.395 -0.2185  0.0389 -0.2717
 3070TIP3    H130701   3.286   1.391  15.343 -2.2925  2.0812  0.6196
 3070TIP3    H230702   3.340   1.403  15.484  0.2461  0.1785 -0.1492
 3071TIP3   OH230703   3.961   1.790   0.924  0.5719 -1.3871  0.0136
 3071TIP3    H130704   3.981   1.804   1.017 -0.5665 -1.6396  0.3079
 3071TIP3    H230705   3.894   1.855   0.905  0.8263 -1.3191 -0.6454
 3072TIP3   OH230706   6.058   0.552  12.060 -0.4080  0.5656 -0.1422
 3072TIP3    H130707   6.138   0.498  12.064  0.0651  1.1968 -1.0086
 3072TIP3    H230708   6.017   0.528  11.977 -0.2206  1.5121 -0.5050
 3073TIP3   OH230709   1.767   6.551   6.680  0.3798 -0.4634 -0.1943
 3073TIP3    H130710   1.803   6.474   6.636  0.5540 -0.8733  0.6708
 3073TIP3    H230711   1.689   6.520   6.725  0.8742 -0.3063  0.7900
 3074TIP3   OH230712   1.013   5.188   3.008 -0.2636 -0.0369  0.5277
 3074TIP3    H130713   1.038   5.237   2.930 -0.2944  0.5624  0.8803
 3074TIP3    H230714   0.997   5.256   3.074 -1.5428 -0.4705  0.6754
 3075TIP3   OH230715   1.482   6.356   2.934 -0.0481 -0.8770  0.5485
 3075TIP3    H130716   1.431   6.369   2.854 -0.5877  0.0516  1.0279
 3075TIP3    H230717   1.521   6.269   2.924  0.4057 -0.5163 -0.9992
 3076TIP3   OH230718   6.173   6.362   3.112  0.0970  0.9224  0.2489
 3076TIP3    H130719   6.202   6.373   3.202  2.7653  2.5607 -0.7504
 3076TIP3    H230720   6.163   6.452   3.079 -0.8142  0.3476 -1.0902
 3077TIP3   OH230721   6.103   0.939  13.189 -0.4317 -0.0829  0.9724
 3077TIP3    H130722   6.010   0.963  13.188 -0.4595 -0.2026 -0.7764
 3077TIP3    H230723   6.128   0.938  13.096  1.3707  0.1684  1.4442
 3078TIP3   OH230724   6.424   0.946   1.457  0.1254 -0.0151 -0.6470
 3078TIP3    H130725   6.463   0.861   1.436 -0.4940 -0.1816 -1.1257
 3078TIP3    H230726   6.376   0.971   1.379 -1.9668 -0.5053  0.4473
 3079TIP3   OH230727   1.479   4.422   2.936 -0.4443 -0.3485 -0.3781
 3079TIP3    H130728   1.458   4.509   2.902  0.0290 -0.7006 -1.6132
 3079TIP3    H230729   1.475   4.431   3.031 -0.7731  0.9250 -0.5076
 3080TIP3   OH230730   2.121   4.687   3.046  0.0146  0.4363  0.3925
 3080TIP3    H130731   2.202   4.734   3.068  1.2455 -1.2167 -0.4470
 3080TIP3    H230732   2.053   4.732   3.094  1.4273  1.9806  0.9922
 3081TIP3   OH230733   3.527   5.862  17.018 -0.0839  0.3467  0.5581
 3081TIP3    H130734   3.479   5.942  17.038 -0.2288  0.5738 -0.6394
 3081TIP3    H230735   3.484   5.794  17.069 -1.8025  0.5198 -0.6182
 3082TIP3   OH230736   1.761   6.383  11.801  0.1414  0.1224 -0.1253
 3082TIP3    H130737   1.723   6.421  11.880 -2.0321  0.7471 -1.4170
 3082TIP3    H230738   1.717   6.298  11.792  0.7126 -0.1433 -0.4281
 3083TIP3   OH230739   2.784   3.067  15.061  0.1917  0.3674 -0.2939
 3083TIP3    H130740   2.698   3.026  15.065  0.5284 -0.1517  2.6205
 3083TIP3    H230741   2.844   2.996  15.040  0.2461  0.2154  0.3859
 3084TIP3   OH230742   1.820   4.336   0.190  0.5159  0.6327 -0.2933
 3084TIP3    H130743   1.829   4.291   0.106  2.5958  1.8652 -0.7785
 3084TIP3    H230744   1.809   4.428   0.167  0.7518  0.9300  0.7673
 3085TIP3   OH230745   5.454   4.802   0.852  0.6769  0.1104 -0.6183
 3085TIP3    H130746   5.494   4.838   0.773 -1.6354  0.0891 -1.8603
 3085TIP3    H230747   5.510   4.728   0.875  1.8309  0.5885 -1.7877
 3086TIP3   OH230748   3.766   4.154  11.045 -0.3516  0.5115  0.5801
 3086TIP3    H130749   3.746   4.066  11.013  0.6214  0.2267  0.7493
 3086TIP3    H230750   3.783   4.205  10.965  2.2448 -0.2417  0.5864
 3087TIP3   OH230751   4.405   0.641   6.536  0.1290 -0.7355 -0.2366
 3087TIP3    H130752   4.379   0.730   6.511 -1.1251 -0.9484  0.2519
 3087TIP3    H230753   4.497   0.649   6.560 -0.1743  0.5946  0.5764
 3088TIP3   OH230754   1.759   2.942  16.722  0.5579 -0.1179 -0.1661
 3088TIP3    H130755   1.815   2.874  16.758  0.5710  0.6835  1.3636
 3088TIP3    H230756   1.737   2.997  16.797 -2.6092 -0.6490 -0.6361
 3089TIP3   OH230757   1.402   6.304  17.265 -0.2429  0.4730 -0.0906
 3089TIP3    H130758   1.445   6.257  17.193  2.4433  1.0478  1.0543
 3089TIP3    H230759   1.355   6.375  17.222  2.0555  1.3361 -1.2673
 3090TIP3   OH230760   1.462   6.682   1.193 -0.6497 -0.6572 -1.0245
 3090TIP3    H130761   1.536   6.742   1.189  0.8505 -2.2021  1.6476
 3090TIP3    H230762   1.498   6.598   1.164 -1.8863 -1.0135 -1.5745
 3091TIP3   OH230763   3.107   4.486   3.335 -0.1474  0.4286  0.0084
 3091TIP3    H130764   3.175   4.510   3.272 -0.2254 -0.8859 -0.6103
 3091TIP3    H230765   3.114   4.551   3.405  0.2626  1.6205 -1.1270
 3092TIP3   OH230766   5.329   1.972  13.824 -0.4930 -0.3189 -0.3504
 3092TIP3    H130767   5.366   1.915  13.892 -3.0484 -1.2164  0.3685
 3092TIP3    H230768   5.401   1.985  13.762  1.4736 -0.6568  1.7658
 3093TIP3   OH230769   2.524   0.527  16.235 -0.0749 -0.4402 -0.0697
 3093TIP3    H130770   2.553   0.600  16.290  0.6863 -0.9989  0.2814
 3093TIP3    H230771   2.599   0.508  16.179 -0.8712  0.1662 -1.3542
 3094TIP3   OH230772   4.924   3.992  15.865  0.7524 -0.1953  0.2063
 3094TIP3    H130773   4.972   4.054  15.920  2.9402 -1.8764  0.2625
 3094TIP3    H230774   4.854   3.960  15.921  0.4034  1.2187  0.6087
 3095TIP3   OH230775   0.533   4.031  11.160  0.5480  0.2766 -0.2367
 3095TIP3    H130776   0.559   3.955  11.108 -1.9268 -1.1172  0.4467
 3095TIP3    H230777   0.565   4.012  11.249  0.6819  0.4345 -0.2519
 3096TIP3   OH230778   1.498   1.165  14.904  0.2102 -0.2429 -0.1147
 3096TIP3    H130779   1.557   1.092  14.922  0.7700  0.2161 -0.0566
 3096TIP3    H230780   1.555   1.243  14.907 -0.7230  0.3831  1.7231
 3097TIP3   OH230781   4.476   2.064  14.797 -0.5432  0.0720 -0.3151
 3097TIP3    H130782   4.556   2.077  14.848  0.7943 -2.4643 -1.6606
 3097TIP3    H230783   4.489   2.117  14.718 -0.3559 -0.0660 -0.3751
 3098TIP3   OH230784   1.931   0.053  13.952 -0.7358 -0.1091 -0.2269
 3098TIP3    H130785   1.887   0.047  13.867 -3.1863 -3.2765  1.1703
 3098TIP3    H230786   1.966  -0.035  13.967  0.9108  0.7981  1.4260
 3099TIP3   OH230787   1.504   3.621   1.137  0.0813  0.5638 -0.4490
 3099TIP3    H130788   1.477   3.667   1.057  1.3584 -1.8522 -2.3040
 3099TIP3    H230789   1.427   3.569   1.162  0.8170 -1.3106 -2.0507
 3100TIP3   OH230790   0.476   2.337  15.329  0.1170 -0.8824 -0.2181
 3100TIP3    H130791   0.558   2.350  15.280 -1.2295 -1.0549 -2.6120
 3100TIP3    H230792   0.425   2.276  15.275 -1.9846 -0.0145  0.7274
 3101TIP3   OH230793   5.303   6.301   1.289  0.3429  0.6436  0.4217
 3101TIP3    H130794   5.286   6.258   1.373  1.6598  0.3418  0.5480
 3101TIP3    H230795   5.218   6.302   1.245 -0.1505 -0.1174  1.3318
 3102TIP3   OH230796   1.758   3.002   5.389  0.3727  0.7982 -0.0558
 3102TIP3    H130797   1.813   3.071   5.425  0.1400  0.5657  0.7600
 3102TIP3    H230798   1.680   3.002   5.445  0.4953 -0.3164  0.1348
 3103TIP3   OH230799   6.185   4.958   4.459  0.2540 -0.3863  0.2271
 3103TIP3    H130800   6.149   5.036   4.501  0.1311  0.4988 -1.4579
 3103TIP3    H230801   6.276   4.956   4.488  0.2128  0.2992  0.4234
 3104TIP3   OH230802   4.567   4.180   0.758  0.0508  0.2897  0.5107
 3104TIP3    H130803   4.475   4.206   0.761  0.0815  0.3405  1.0507
 3104TIP3    H230804   4.585   4.145   0.845  0.7507  1.0018  0.6636
 3105TIP3   OH230805   3.254   6.373  12.460 -0.0736  0.1426  0.1716
 3105TIP3    H130806   3.192   6.426  12.510 -0.3212  0.4267 -0.4339
 3105TIP3    H230807   3.233   6.391  12.369  0.5387 -0.1891 -0.0369
 3106TIP3   OH230808   1.620   4.751   5.165 -0.1094 -0.4820  0.0963
 3106TIP3    H130809   1.662   4.831   5.133  1.4253 -0.5038  1.9584
 3106TIP3    H230810   1.550   4.782   5.222  1.1449 -0.4495  1.6394
 3107TIP3   OH230811   2.477   6.750  12.428 -0.3168 -0.1443  0.2528
 3107TIP3    H130812   2.463   6.672  12.482  2.2570  0.2409  1.5427
 3107TIP3    H230813   2.450   6.823  12.484 -0.5478  0.0525 -0.1114
 3108TIP3   OH230814   1.770   5.199  12.716  0.0059  0.4654  0.5129
 3108TIP3    H130815   1.721   5.139  12.660 -0.1488 -0.3519  1.5171
 3108TIP3    H230816   1.739   5.180  12.805  2.2037 -0.1569  1.1835
 3109TIP3   OH230817   2.089   2.376  13.376  0.0023 -0.3210  0.6975
 3109TIP3    H130818   2.064   2.432  13.303 -1.3403 -0.7816  0.7775
 3109TIP3    H230819   2.183   2.389  13.387 -0.3820  2.3071  1.0583
 3110TIP3   OH230820   2.820   6.767  11.043  0.0486 -0.0768  0.3079
 3110TIP3    H130821   2.876   6.690  11.053 -0.4828 -0.6854 -1.2315
 3110TIP3    H230822   2.873   6.830  10.994 -0.2996 -0.3184 -0.3828
 3111TIP3   OH230823   6.184   1.680  13.815 -0.1345 -0.5064 -0.0771
 3111TIP3    H130824   6.140   1.635  13.743 -0.6542 -0.6179  0.3083
 3111TIP3    H230825   6.161   1.629  13.893  1.5913 -1.2474 -0.0136
 3112TIP3   OH230826   0.726   3.022   5.922  0.1232 -0.3509 -0.0195
 3112TIP3    H130827   0.760   3.044   6.009  1.0710  1.8193 -0.9074
 3112TIP3    H230828   0.649   3.078   5.912  0.9086  0.5405 -1.1707
 3113TIP3   OH230829   1.868   5.667  17.191  0.4829 -0.7717  0.6873
 3113TIP3    H130830   1.892   5.758  17.210 -0.2973 -0.8632  2.2384
 3113TIP3    H230831   1.827   5.671  17.104  0.7404  0.3092  0.6047
 3114TIP3   OH230832   1.728   1.728   0.438  0.6997  0.1969 -0.9254
 3114TIP3    H130833   1.643   1.771   0.446  1.3468  1.6010 -1.4407
 3114TIP3    H230834   1.739   1.714   0.343  0.6999 -0.6793 -0.7984
 3115TIP3   OH230835   5.555   4.450  14.538 -0.9338 -0.3690  0.4361
 3115TIP3    H130836   5.504   4.496  14.472 -0.1055  0.2318  0.2150
 3115TIP3    H230837   5.585   4.370  14.494 -1.0755 -0.3681  0.3407
 3116TIP3   OH230838   4.384   6.446   1.678 -0.2237 -0.2731  0.7272
 3116TIP3    H130839   4.419   6.459   1.589  0.0342  1.7880  1.1080
 3116TIP3    H230840   4.406   6.527   1.724  0.0998 -1.5323  2.8327
 3117TIP3   OH230841   4.425   6.404  11.402 -0.4301  0.2464  0.0503
 3117TIP3    H130842   4.467   6.414  11.488 -0.0390  0.7467 -0.1977
 3117TIP3    H230843   4.394   6.491  11.380 -0.2993  0.1675 -0.4372
 3118TIP3   OH230844   4.870   2.449  12.853 -0.8742 -0.0944 -0.0560
 3118TIP3    H130845   4.915   2.484  12.776 -0.5590  0.1870  0.2531
 3118TIP3    H230846   4.785   2.420  12.820 -0.9012  0.3979 -0.4353
 3119TIP3   OH230847   2.606   1.565  14.040  0.5186  0.1232  0.6923
 3119TIP3    H130848   2.618   1.553  14.134  0.3532  0.0506  0.7028
 3119TIP3    H230849   2.623   1.479  14.002 -0.0084  0.0045  0.7125
 3120TIP3   OH230850   2.057   5.344   2.577 -0.5933 -0.3877  0.2607
 3120TIP3    H130851   1.964   5.320   2.572 -1.1326  1.8447 -1.2081
 3120TIP3    H230852   2.068   5.411   2.509  1.9664 -0.1925  0.8211
 3121TIP3   OH230853   5.683   0.714  14.966 -0.2317  0.8631 -0.0421
 3121TIP3    H130854   5.676   0.620  14.948  1.4350  1.1410 -2.2949
 3121TIP3    H230855   5.636   0.756  14.895  0.0685  1.7821  0.2931
 3122TIP3   OH230856   5.593   2.198  13.955  0.0831  0.4548  0.0200
 3122TIP3    H130857   5.658   2.135  13.984 -1.2176 -1.9257 -2.0329
 3122TIP3    H230858   5.512   2.172  13.999 -0.8420 -0.3731 -2.1185
 3123TIP3   OH230859   4.788   1.786  13.656  0.0326 -0.0442  0.4297
 3123TIP3    H130860   4.710   1.806  13.604  0.6498  0.0486 -0.4678
 3123TIP3    H230861   4.759   1.795  13.747 -0.4465  2.1091  0.0929
 3124TIP3   OH230862   0.465   0.373  11.357 -0.6623 -0.0673  0.3048
 3124TIP3    H130863   0.370   0.371  11.369 -0.6596  1.1977  0.6270
 3124TIP3    H230864   0.477   0.413  11.271 -0.4341 -0.4495  0.1619
 3125TIP3   OH230865   5.135   2.189  13.052  0.3522  0.0259  0.3573
 3125TIP3    H130866   5.095   2.159  12.970  1.9525  1.3838 -0.9375
 3125TIP3    H230867   5.109   2.281  13.059  1.8234  0.4526  0.3705
 3126TIP3   OH230868   1.844   3.333  14.315  0.2121  0.6974 -0.0130
 3126TIP3    H130869   1.848   3.373  14.401  3.0938 -0.8034  0.6116
 3126TIP3    H230870   1.818   3.404  14.256 -0.2882  2.0788  1.8516
 3127TIP3   OH230871   1.230   3.492  16.719 -0.0457  0.6899  0.1328
 3127TIP3    H130872   1.205   3.498  16.627 -1.8837 -0.0888  0.5554
 3127TIP3    H230873   1.309   3.439  16.720 -0.2318  0.3920 -0.9617
 3128TIP3   OH230874   1.618   4.249  11.052  0.0211 -0.0242  0.0302
 3128TIP3    H130875   1.694   4.296  11.019  0.5308 -0.6830  0.2496
 3128TIP3    H230876   1.575   4.215  10.973  0.3648 -0.2644 -0.0582
 3129TIP3   OH230877   2.050   6.366  13.518 -0.3971 -0.1003 -0.1631
 3129TIP3    H130878   1.983   6.435  13.518 -1.4557 -1.1017  0.5754
 3129TIP3    H230879   2.132   6.412  13.506 -1.1192  1.2774  0.1018
 3130TIP3   OH230880   4.171   3.554  15.178 -0.9711  0.0704  0.2914
 3130TIP3    H130881   4.131   3.492  15.239  0.4748 -2.5171 -1.2963
 3130TIP3    H230882   4.216   3.499  15.114 -1.7399  2.7108 -2.6527
 3131TIP3   OH230883   6.320   6.291   5.413  0.3258  0.6667  0.3680
 3131TIP3    H130884   6.399   6.301   5.361 -0.2058  0.6059 -0.4659
 3131TIP3    H230885   6.276   6.215   5.376 -1.1705  1.9642 -0.5668
 3132TIP3   OH230886   4.792   0.574  16.336  0.3047  0.0418  0.0882
 3132TIP3    H130887   4.704   0.602  16.310  0.8080  1.0065 -0.6343
 3132TIP3    H230888   4.798   0.599  16.428 -0.0026  0.4432  0.0080
 3133TIP3   OH230889   3.410   2.096   5.318 -0.1020  0.1691 -0.1229
 3133TIP3    H130890   3.414   2.141   5.233  2.5859 -0.4278 -0.3692
 3133TIP3    H230891   3.326   2.123   5.355 -0.8626  1.2904 -2.4989
 3134TIP3   OH230892   2.947   4.879  12.188 -0.4719  0.1591  0.0632
 3134TIP3    H130893   2.941   4.805  12.249 -0.6540 -0.6140 -0.8971
 3134TIP3    H230894   2.878   4.938  12.216 -2.1498 -1.3007 -0.8838
 3135TIP3   OH230895   2.637   4.252  12.157 -0.4084  0.1921 -0.3199
 3135TIP3    H130896   2.644   4.275  12.250  0.3233 -0.4821 -0.2032
 3135TIP3    H230897   2.546   4.223  12.147 -0.2752 -0.4813  0.3687
 3136TIP3   OH230898   6.162   3.290  11.889 -0.4427 -0.0698  0.4244
 3136TIP3    H130899   6.181   3.197  11.879  1.1544  0.2035  0.7579
 3136TIP3    H230900   6.231   3.334  11.839 -0.9927  0.9383  0.5439
 3137TIP3   OH230901   0.184   1.596  13.095  0.6315  0.2016  0.2098
 3137TIP3    H130902   0.163   1.555  13.180  0.9974 -0.2710  0.0767
 3137TIP3    H230903   0.112   1.657  13.079  1.2096  1.2557  1.4844
 3138TIP3   OH230904   6.119   6.721   6.886  0.1604  0.5112  0.1999
 3138TIP3    H130905   6.034   6.765   6.891  0.4792  1.2329 -0.5156
 3138TIP3    H230906   6.183   6.790   6.903  0.7128  0.5535 -1.9357
 3139TIP3   OH230907   4.475   0.045   3.612  0.2129 -0.3277 -0.0511
 3139TIP3    H130908   4.508   0.051   3.702  0.1494  0.4541 -0.0700
 3139TIP3    H230909   4.401  -0.015   3.618 -1.4484  1.7403  0.9374
 3140TIP3   OH230910   0.441   3.717   1.917 -0.6230  0.0204  0.5651
 3140TIP3    H130911   0.501   3.704   1.990  0.0999  0.7726  0.1126
 3140TIP3    H230912   0.482   3.671   1.844  0.1470  1.7494 -0.1187
 3141TIP3   OH230913   5.186   4.520  16.188 -0.1323 -1.1066 -0.8578
 3141TIP3    H130914   5.146   4.518  16.101 -0.5096 -2.9102 -0.6646
 3141TIP3    H230915   5.223   4.608  16.196 -0.8876 -0.6294 -2.4796
 3142TIP3   OH230916   1.647   0.245   0.395  0.3125 -0.0324 -0.6222
 3142TIP3    H130917   1.568   0.292   0.423  0.0254 -1.2123  0.5982
 3142TIP3    H230918   1.653   0.170   0.455  1.3724 -0.9407 -1.8352
 3143TIP3   OH230919   2.589   0.023   1.699  0.1282  0.4995  0.2378
 3143TIP3    H130920   2.645  -0.051   1.721  1.4422  0.7430 -2.0950
 3143TIP3    H230921   2.542  -0.004   1.620 -2.4936  0.6093  1.7135
 3144TIP3   OH230922   2.435   5.491  16.021 -0.1400  0.6960 -0.1929
 3144TIP3    H130923   2.497   5.417  16.021 -1.1047 -0.1253  0.3101
 3144TIP3    H230924   2.393   5.487  15.935 -0.6539  0.2593  0.0745
 3145TIP3   OH230925   0.159   2.929   6.559  0.1648 -0.3735 -0.2841
 3145TIP3    H130926   0.223   2.873   6.516 -0.4850 -1.6945  0.4274
 3145TIP3    H230927   0.075   2.888   6.540 -0.5373  1.6165 -1.6292
 3146TIP3   OH230928   3.021   4.628  12.359  0.3706 -0.2285 -0.8730
 3146TIP3    H130929   3.062   4.706  12.397  3.2282 -2.5722  1.1703
 3146TIP3    H230930   3.095   4.576  12.328 -1.3614 -2.7569 -0.8677
 3147TIP3   OH230931   4.303   4.970  15.868 -0.0465  0.1007 -0.3639
 3147TIP3    H130932   4.238   5.016  15.815  1.0840  0.6848 -1.2862
 3147TIP3    H230933   4.357   5.040  15.906 -0.2029 -0.3584  0.7178
 3148TIP3   OH230934   0.458   4.136  12.658  0.0321 -0.4899  0.1537
 3148TIP3    H130935   0.447   4.080  12.581  1.6374 -0.0913 -0.3737
 3148TIP3    H230936   0.369   4.146  12.692 -1.4102  2.6368 -3.9739
 3149TIP3   OH230937   5.652   6.405   6.185  0.6427 -0.0014  0.0429
 3149TIP3    H130938   5.618   6.339   6.246 -2.7419  1.1157 -0.5487
 3149TIP3    H230939   5.713   6.356   6.129  0.1222 -2.0828  1.2228
 3150TIP3   OH230940   6.719   5.143  14.213  0.4314  0.0572 -0.0968
 3150TIP3    H130941   6.721   5.219  14.271  1.1806  1.5545 -2.0340
 3150TIP3    H230942   6.626   5.131  14.192  0.2796  0.2425  0.4673
 3151TIP3   OH230943   4.443   2.933  12.951  0.7043 -0.1731 -0.3126
 3151TIP3    H130944   4.355   2.939  12.988  1.0044 -0.9222  0.5654
 3151TIP3    H230945   4.476   2.848  12.983  1.5772 -0.0917 -0.9828
 3152TIP3   OH230946   4.539   2.811   3.198 -0.1890 -0.4609 -0.0272
 3152TIP3    H130947   4.529   2.784   3.289 -0.1369 -1.2374 -0.2500
 3152TIP3    H230948   4.609   2.756   3.164 -1.1885 -1.1810 -0.9412
 3153TIP3   OH230949   5.406   0.069   6.046  0.4014 -0.4311  0.6436
 3153TIP3    H130950   5.424   0.054   6.139 -0.8239 -1.1648  0.7683
 3153TIP3    H230951   5.331   0.128   6.046  1.8942  1.5065  0.1212
 3154TIP3   OH230952   3.032   6.589   4.074  0.0910 -0.3218  0.1884
 3154TIP3    H130953   2.951   6.614   4.030  0.0059  1.0698  1.1019
 3154TIP3    H230954   3.010   6.509   4.123 -0.8479  0.2984  0.7839
 3155TIP3   OH230955   4.849   6.727  16.292 -0.0460 -0.6589  0.2611
 3155TIP3    H130956   4.895   6.770  16.220 -1.3481 -0.4598 -0.4845
 3155TIP3    H230957   4.765   6.700  16.253 -1.5600  1.1100  2.2020
 3156TIP3   OH230958   1.982   1.463   3.915  0.2249 -0.0049 -0.4929
 3156TIP3    H130959   2.017   1.548   3.889  2.0444 -0.3632  0.6370
 3156TIP3    H230960   2.042   1.433   3.984 -0.4993 -2.1010 -0.7281
 3157TIP3   OH230961   2.519   3.233   1.789  0.2438 -0.5680  0.2001
 3157TIP3    H130962   2.506   3.204   1.880 -2.0110  0.3928  0.2323
 3157TIP3    H230963   2.443   3.197   1.742  0.2071  0.8359 -0.8279
 3158TIP3   OH230964   6.717   3.391  12.768  0.0751  0.1253  0.1908
 3158TIP3    H130965   6.793   3.423  12.720 -0.3004  0.3640 -0.2459
 3158TIP3    H230966   6.743   3.396  12.860  2.0621 -3.5196 -0.0692
 3159TIP3   OH230967   2.246   6.274   5.077 -0.3051  0.0641 -0.5795
 3159TIP3    H130968   2.270   6.366   5.089 -0.7659  0.2802 -1.2902
 3159TIP3    H230969   2.171   6.276   5.018 -1.1068 -0.6966  0.3960
 3160TIP3   OH230970   2.527   4.962  12.829 -0.3052 -0.5927  0.5114
 3160TIP3    H130971   2.617   4.984  12.806 -0.4498  0.3302  0.8095
 3160TIP3    H230972   2.512   5.008  12.912 -1.1860 -0.4005  0.2462
 3161TIP3   OH230973   5.157   5.429   5.784  0.0039 -0.1466 -0.2475
 3161TIP3    H130974   5.096   5.496   5.816  2.4988  1.8543  0.4462
 3161TIP3    H230975   5.144   5.355   5.843 -0.0563  1.1287  1.3844
 3162TIP3   OH230976   0.699   0.476  16.258  0.2121 -0.6211  0.0362
 3162TIP3    H130977   0.605   0.456  16.260  0.2726 -1.0409 -1.2875
 3162TIP3    H230978   0.703   0.568  16.232  0.1946 -0.7877 -0.5522
 3163TIP3   OH230979   0.835   5.792  15.299 -0.5041  0.3204 -0.3417
 3163TIP3    H130980   0.803   5.864  15.354  0.6547  1.2894 -0.8997
 3163TIP3    H230981   0.878   5.836  15.226  0.0280 -0.9514 -0.8077
 3164TIP3   OH230982   2.719   1.444  16.832 -0.4681  0.4115 -0.4786
 3164TIP3    H130983   2.714   1.431  16.927  0.0057  2.2350 -0.1845
 3164TIP3    H230984   2.804   1.485  16.818  0.5101 -1.9986 -1.9917
 3165TIP3   OH230985   6.088   3.972   1.226 -0.1613 -0.1406 -0.2197
 3165TIP3    H130986   6.041   4.027   1.163 -1.0367 -0.8300 -0.1810
 3165TIP3    H230987   6.174   4.014   1.235 -0.0590  0.0119 -1.8042
 3166TIP3   OH230988   6.503   1.473   6.332 -0.5985  0.0343  0.4570
 3166TIP3    H130989   6.507   1.512   6.245 -1.4368 -2.1084 -0.5751
 3166TIP3    H230990   6.561   1.396   6.326  0.9671  1.0240  2.4118
 3167TIP3   OH230991   0.841   0.228   4.806  0.1806 -0.0664 -0.2553
 3167TIP3    H130992   0.888   0.206   4.726 -0.9826  0.2295 -1.0218
 3167TIP3    H230993   0.874   0.166   4.871  1.5695  0.0816 -0.7967
 3168TIP3   OH230994   5.252   1.663   6.265  0.0055  0.1508  0.3337
 3168TIP3    H130995   5.168   1.630   6.298 -0.8825 -1.7047 -3.5665
 3168TIP3    H230996   5.244   1.758   6.271 -1.7575 -0.0266  1.4020
 3169TIP3   OH230997   0.799   2.834   1.173 -0.3695  0.8855  0.4731
 3169TIP3    H130998   0.738   2.894   1.217 -1.7861 -0.3106  0.1770
 3169TIP3    H230999   0.821   2.878   1.091 -1.2295  1.1199  0.3577
 3170TIP3   OH231000   0.711   1.869  17.006 -0.0401  0.3256  0.1027
 3170TIP3    H131001   0.633   1.815  16.989 -0.5626  1.1998 -0.3270
 3170TIP3    H231002   0.734   1.905  16.920  0.8353  0.0798  0.2296
 3171TIP3   OH231003   1.158   3.711   2.570 -0.6675  0.4148 -0.8136
 3171TIP3    H131004   1.193   3.797   2.546 -1.9004  0.8922 -0.9205
 3171TIP3    H231005   1.074   3.730   2.611 -1.6376 -0.8182 -2.1768
 3172TIP3   OH231006   2.968   0.261  12.380 -0.1141  0.5810 -0.7254
 3172TIP3    H131007   2.933   0.178  12.414  0.6773 -0.1183 -1.5575
 3172TIP3    H231008   2.943   0.260  12.287  1.4353  0.4053 -1.1656
 3173TIP3   OH231009   6.582   1.259   4.924 -0.0034  0.2461 -0.5403
 3173TIP3    H131010   6.528   1.184   4.898  0.5910 -0.0224 -1.0221
 3173TIP3    H231011   6.547   1.285   5.009  1.3447 -2.1015  0.7645
 3174TIP3   OH231012   1.080   0.542   3.488 -0.2262 -0.0947 -0.3091
 3174TIP3    H131013   1.010   0.596   3.526 -0.7871 -0.5635 -0.6579
 3174TIP3    H231014   1.087   0.467   3.547  0.8657  0.5666  0.4272
 3175TIP3   OH231015   1.920   4.591  16.096  0.5633 -0.2886  0.1253
 3175TIP3    H131016   1.846   4.581  16.035 -0.7842 -1.2523  1.8829
 3175TIP3    H231017   1.991   4.626  16.042 -1.7217  2.4262 -1.2205
 3176TIP3   OH231018   3.018   3.763  17.130 -0.0251 -0.5160  0.5211
 3176TIP3    H131019   3.086   3.701  17.156 -0.6837 -1.9571 -1.1078
 3176TIP3    H231020   2.962   3.770  17.208 -2.0016 -4.8013 -0.3149
 3177TIP3   OH231021   1.506   1.236   3.362  0.0136  0.1087  0.1466
 3177TIP3    H131022   1.418   1.274   3.359 -0.3471 -0.7129 -0.0379
 3177TIP3    H231023   1.524   1.224   3.456 -0.1592  0.0843  0.1768
 3178TIP3   OH231024   6.502   1.408  16.561 -0.1774 -0.0665  0.6598
 3178TIP3    H131025   6.521   1.349  16.488 -1.7132 -0.8854  0.8877
 3178TIP3    H231026   6.582   1.459  16.574 -0.2126  0.7645 -2.2194
 3179TIP3   OH231027   4.211   3.484   2.237 -0.0892  0.6100  0.1725
 3179TIP3    H131028   4.180   3.398   2.209 -0.8846  0.9033  0.1390
 3179TIP3    H231029   4.258   3.467   2.319  0.1539  0.0891 -0.0719
 3180TIP3   OH231030   1.213   3.478   5.762 -0.1787  0.2569  0.2001
 3180TIP3    H131031   1.140   3.447   5.816 -0.9302  0.2143 -0.8318
 3180TIP3    H231032   1.238   3.562   5.802 -0.5934  0.1255  0.7416
 3181TIP3   OH231033   3.814   1.248  12.673 -0.1335 -0.4583 -0.0820
 3181TIP3    H131034   3.807   1.152  12.674  1.1763 -0.5579 -0.5324
 3181TIP3    H231035   3.726   1.277  12.648 -0.4834 -1.5470 -0.1563
 3182TIP3   OH231036   6.011   4.187   1.986 -0.3424 -0.5193 -0.3172
 3182TIP3    H131037   5.922   4.202   2.019  0.0209  1.4038 -0.1605
 3182TIP3    H231038   6.025   4.257   1.922  0.7069 -1.4067 -1.0855
 3183TIP3   OH231039   5.350   2.728  14.898 -0.3248 -0.0802  0.2043
 3183TIP3    H131040   5.428   2.736  14.953  0.3714  0.6559 -0.8924
 3183TIP3    H231041   5.339   2.633  14.888  0.3944 -0.1902  0.4017
 3184TIP3   OH231042   2.502   0.643  15.620  0.5745 -0.4489 -0.4113
 3184TIP3    H131043   2.473   0.663  15.709 -0.1644  1.3439 -1.0320
 3184TIP3    H231044   2.535   0.727  15.586  1.3934 -1.2461 -1.6296
 3185TIP3   OH231045   1.782   5.040  16.623 -0.1422 -0.1698  0.2979
 3185TIP3    H131046   1.769   4.956  16.668  2.2370 -0.4536  0.5042
 3185TIP3    H231047   1.778   5.018  16.530 -0.8620 -0.2750  0.3484
 3186TIP3   OH231048   4.857   2.182   0.316 -0.4329  0.6407  0.5402
 3186TIP3    H131049   4.820   2.246   0.255 -0.9254 -0.5359 -0.3944
 3186TIP3    H231050   4.946   2.167   0.284 -0.8988 -0.4414 -0.2531
 3187TIP3   OH231051   1.260   1.391   2.779 -0.1079  0.1092 -0.2257
 3187TIP3    H131052   1.240   1.364   2.869  2.1494 -0.0370  0.2626
 3187TIP3    H231053   1.183   1.365   2.729 -1.3856  0.1439  1.6522
 3188TIP3   OH231054   4.192   2.576   5.465 -0.0357 -0.0561 -0.3703
 3188TIP3    H131055   4.148   2.647   5.418  0.4033 -0.9910 -2.2716
 3188TIP3    H231056   4.121   2.530   5.510 -0.0769  2.7790  2.5919
 3189TIP3   OH231057   5.990   1.715  15.684  0.1722 -0.2159  0.4687
 3189TIP3    H131058   6.045   1.744  15.611 -0.0348  0.8103  0.7195
 3189TIP3    H231059   6.051   1.702  15.757  0.1690  0.2606  0.5549
 3190TIP3   OH231060   5.892   1.226  15.720 -0.1189 -0.0381  0.4556
 3190TIP3    H131061   5.839   1.289  15.769 -0.5092 -2.0575  2.6907
 3190TIP3    H231062   5.829   1.164  15.684  0.3145  0.4993 -1.2627
 3191TIP3   OH231063   2.217   2.342   0.781 -0.3688 -0.1201  0.3680
 3191TIP3    H131064   2.197   2.249   0.767 -2.3328  0.2863  0.3421
 3191TIP3    H231065   2.222   2.379   0.692  0.4739 -0.1998  0.3763
 3192TIP3   OH231066   5.001   6.303   4.964  0.0969 -0.5543  0.2930
 3192TIP3    H131067   5.005   6.389   5.007 -2.2089 -0.5091  0.4975
 3192TIP3    H231068   4.955   6.319   4.882  1.0381 -1.3324 -0.3948
 3193TIP3   OH231069   1.702   0.955   3.880  0.3507  0.1528  0.4550
 3193TIP3    H131070   1.698   0.874   3.931 -1.1355  0.9429  1.6581
 3193TIP3    H231071   1.616   0.996   3.895  0.0777  0.6518 -2.2791
 3194TIP3   OH231072   4.912   3.092   2.569 -0.1248 -1.3414 -0.2225
 3194TIP3    H131073   4.918   3.053   2.482  1.1490 -1.9695  0.1331
 3194TIP3    H231074   4.984   3.052   2.618 -0.7119 -0.8429  1.0586
 3195TIP3   OH231075   1.001   0.693  14.704 -0.1916 -0.0538 -0.2187
 3195TIP3    H131076   1.011   0.744  14.784 -1.0571  2.0908 -1.4526
 3195TIP3    H231077   0.909   0.700  14.681 -0.0067 -0.8560 -1.2830
 3196TIP3   OH231078   5.503   2.446   2.680  0.0302  0.2402 -0.4919
 3196TIP3    H131079   5.496   2.502   2.757 -0.5356  0.5422 -0.7588
 3196TIP3    H231080   5.592   2.410   2.684  0.6026  1.6030 -0.6236
 3197TIP3   OH231081   5.442   3.703  12.227 -0.3106  0.0229  0.9356
 3197TIP3    H131082   5.494   3.718  12.149  2.2977 -1.4324  2.3232
 3197TIP3    H231083   5.373   3.643  12.199  0.4474 -0.2889 -0.3001
 3198TIP3   OH231084   1.184   2.967   4.755  0.3078  0.4561  0.1454
 3198TIP3    H131085   1.144   3.007   4.832  0.8019 -0.8352  1.0840
 3198TIP3    H231086   1.122   2.899   4.728  0.3885  0.5452 -0.2776
 3199TIP3   OH231087   3.767   5.803   0.034 -0.4340 -0.0098 -0.0093
 3199TIP3    H131088   3.783   5.857  -0.044 -2.7367 -0.1541 -0.6078
 3199TIP3    H231089   3.705   5.854   0.086 -0.5947 -0.9015  0.6767
 3200TIP3   OH231090   4.032   0.072   0.544  0.2612  0.4727 -0.1035
 3200TIP3    H131091   4.112   0.098   0.591 -0.0613  1.1474  0.0816
 3200TIP3    H231092   3.969   0.140   0.567 -0.4147 -0.1532 -0.1166
 3201TIP3   OH231093   5.845   6.691  13.656 -0.8364  0.1003 -0.3039
 3201TIP3    H131094   5.848   6.772  13.604 -2.3170 -1.2561 -2.6061
 3201TIP3    H231095   5.937   6.667  13.668 -0.4456  0.4325 -2.4013
 3202TIP3   OH231096   3.929   1.314  12.966  0.0099 -0.0079  0.0717
 3202TIP3    H131097   3.982   1.394  12.960 -0.5902  0.3909  0.0833
 3202TIP3    H231098   3.868   1.320  12.892  0.1888 -0.6196 -0.1238
 3203TIP3   OH231099   3.443   1.549   0.186  0.5536  0.4711  0.1422
 3203TIP3    H131100   3.369   1.597   0.222  0.1453 -0.2598  0.2832
 3203TIP3    H231101   3.494   1.523   0.263  0.4790  0.1993  0.0986
 3204TIP3   OH231102   1.071   2.898  10.805 -0.3810  0.0045  0.1579
 3204TIP3    H131103   1.088   2.815  10.850 -0.4692 -0.6432 -0.9997
 3204TIP3    H231104   1.092   2.881  10.714 -0.5298  1.2265 -0.1102
 3205TIP3   OH231105   1.139   0.295  15.859  0.3326  0.2679 -0.4717
 3205TIP3    H131106   1.156   0.221  15.917 -0.8141  0.9046  0.6980
 3205TIP3    H231107   1.044   0.295  15.846  0.1257  2.3900  0.7461
 3206TIP3   OH231108   5.645   2.123   0.744 -0.2323 -0.4470  0.4811
 3206TIP3    H131109   5.633   2.215   0.720  2.7562 -0.7130 -2.2029
 3206TIP3    H231110   5.676   2.126   0.835  0.8295  1.2787  0.0837
 3207TIP3   OH231111   4.767   6.166   3.220  0.6338  0.3758  0.3677
 3207TIP3    H131112   4.863   6.163   3.224  0.8851  3.4585 -1.7603
 3207TIP3    H231113   4.745   6.252   3.256 -1.2569  0.1680 -0.2530
 3208TIP3   OH231114   4.122   4.124  13.817 -0.2732  0.0022  0.7619
 3208TIP3    H131115   4.177   4.187  13.770 -1.4783  0.4143 -0.1245
 3208TIP3    H231116   4.049   4.107  13.758 -2.1639  1.0355  2.7140
 3209TIP3   OH231117   4.989   5.992   0.765  0.1143 -0.5351 -0.6482
 3209TIP3    H131118   4.968   6.073   0.813 -1.2574 -1.1992 -0.1144
 3209TIP3    H231119   5.084   5.984   0.773  0.1841  0.6841 -0.1503
 3210TIP3   OH231120   2.595   6.076  10.428 -0.0326 -0.1819 -0.6402
 3210TIP3    H131121   2.564   6.140  10.492  1.4357 -0.0286 -0.0613
 3210TIP3    H231122   2.515   6.035  10.395 -0.9432  1.4197 -0.4847
 3211TIP3   OH231123   2.547   0.296   1.854 -0.1000 -0.3060  0.7608
 3211TIP3    H131124   2.587   0.289   1.767  0.4117  1.5826  0.8196
 3211TIP3    H231125   2.462   0.253   1.845  1.2965 -3.0798  0.2394
 3212TIP3   OH231126   0.568   1.162   1.550 -0.3644  0.2660  0.0815
 3212TIP3    H131127   0.561   1.182   1.643 -0.0997  0.3264  0.0895
 3212TIP3    H231128   0.662   1.153   1.534 -0.3852  0.6256 -0.2603
 3213TIP3   OH231129   2.806   5.025  15.920 -0.4158 -0.3208 -0.4753
 3213TIP3    H131130   2.897   5.035  15.948 -0.7833  0.2823  0.5095
 3213TIP3    H231131   2.799   5.081  15.842  0.0730 -0.4230 -0.5958
 3214TIP3   OH231132   4.153   5.112   6.081  0.3542 -0.1543  0.0673
 3214TIP3    H131133   4.110   5.157   6.153 -0.2971 -0.5042 -0.1017
 3214TIP3    H231134   4.128   5.020   6.091 -0.2116 -0.1131 -0.9356
 3215TIP3   OH231135   1.311   2.374   1.255 -0.1263 -0.2493  0.1021
 3215TIP3    H131136   1.285   2.324   1.332 -1.9531  0.5405  0.0442
 3215TIP3    H231137   1.263   2.457   1.263  1.3693  0.7259 -0.7615
 3216TIP3   OH231138   1.724   6.491  11.147 -0.3403 -0.0666  0.6376
 3216TIP3    H131139   1.630   6.505  11.159 -0.5388 -0.6172 -0.2434
 3216TIP3    H231140   1.730   6.435  11.070  0.7564  0.6294  0.2150
 3217TIP3   OH231141   0.098   0.418  16.505 -0.6463 -0.1360  0.8135
 3217TIP3    H131142   0.024   0.474  16.480  0.8494  1.5765  0.0863
 3217TIP3    H231143   0.174   0.477  16.503  1.1830 -2.4674 -1.0736
 3218TIP3   OH231144   6.677   4.014   5.821 -0.3147 -0.2205  0.2785
 3218TIP3    H131145   6.729   4.093   5.835 -1.8067  0.6078  1.2030
 3218TIP3    H231146   6.658   4.015   5.727 -0.7022  0.7638  0.3597
 3219TIP3   OH231147   2.047   6.266  16.936 -0.3981  0.6224 -0.1842
 3219TIP3    H131148   2.031   6.360  16.924 -0.6537  0.8753  1.9660
 3219TIP3    H231149   2.126   6.248  16.884  1.4798  2.6854  1.8427
 3220TIP3   OH231150   6.050   1.940  15.964  0.0305  0.0417 -0.0910
 3220TIP3    H131151   6.114   1.946  15.893  1.2995 -0.4337  0.9927
 3220TIP3    H231152   6.002   2.023  15.961  0.6917  0.4004 -0.9097
 3221TIP3   OH231153   0.817   1.671   1.862 -0.1122  0.4954 -0.2059
 3221TIP3    H131154   0.886   1.727   1.827 -1.5161  3.5440  1.7121
 3221TIP3    H231155   0.832   1.669   1.957 -0.9047 -1.2515 -0.0899
 3222TIP3   OH231156   5.309   0.202   4.228 -0.3879  0.7229 -0.0486
 3222TIP3    H131157   5.309   0.289   4.269  0.1683  0.3632  0.7342
 3222TIP3    H231158   5.340   0.218   4.139 -0.6830  1.3841 -0.0382
 3223TIP3   OH231159   4.601   0.397  15.199 -0.2817 -0.2588  0.3613
 3223TIP3    H131160   4.587   0.489  15.180  0.4180 -0.4713 -1.2680
 3223TIP3    H231161   4.696   0.388  15.210 -0.4283 -0.6281  1.3800
 3224TIP3   OH231162   5.944   6.212  16.426  0.1775  0.2184  0.5220
 3224TIP3    H131163   5.978   6.237  16.512 -0.8756  1.3938  0.6319
 3224TIP3    H231164   5.863   6.165  16.445  0.8325 -1.0523  0.2171
 3225TIP3   OH231165   5.841   6.142   0.947 -0.3246  0.1721 -0.0157
 3225TIP3    H131166   5.879   6.166   0.862  0.6419 -0.8279  0.1200
 3225TIP3    H231167   5.755   6.104   0.925 -0.4727  0.7581 -0.4645
 3226TIP3   OH231168   0.982   2.944  11.952  0.1147 -0.7516 -0.1365
 3226TIP3    H131169   0.948   2.855  11.949 -0.9522 -0.3313 -0.6786
 3226TIP3    H231170   0.956   2.983  11.868 -1.2475  0.7192  0.9210
 3227TIP3   OH231171   2.153   1.539   0.691  0.6000 -0.2366  0.0094
 3227TIP3    H131172   2.100   1.587   0.627 -0.2223 -0.2489  0.6643
 3227TIP3    H231173   2.199   1.473   0.640  0.1115 -0.1104 -0.5988
 3228TIP3   OH231174   3.998   3.354   1.909 -0.1703  0.1497 -0.3125
 3228TIP3    H131175   4.053   3.431   1.894 -1.8812  1.3153 -0.6106
 3228TIP3    H231176   3.939   3.350   1.834 -1.4881 -0.2573  0.7184
 3229TIP3   OH231177   2.606   3.437   2.483 -0.1245 -0.0647  0.0678
 3229TIP3    H131178   2.534   3.500   2.481 -0.7999 -0.8514 -2.7930
 3229TIP3    H231179   2.565   3.353   2.459  1.7189 -0.5304 -1.5213
 3230TIP3   OH231180   4.039   3.768  16.715 -0.4802 -0.1605  0.1135
 3230TIP3    H131181   4.109   3.796  16.656 -1.7937  0.3209 -1.2655
 3230TIP3    H231182   4.050   3.821  16.793  0.5938  0.0149 -0.1507
 3231TIP3   OH231183   6.072   1.682   1.257 -0.3506 -0.2477 -0.2975
 3231TIP3    H131184   6.138   1.673   1.326  1.5039  2.9052 -1.5583
 3231TIP3    H231185   5.993   1.713   1.303  0.3118  0.0495  0.6509
 3232TIP3   OH231186   5.886   5.684   5.643  0.6133 -0.7905  0.8170
 3232TIP3    H131187   5.810   5.741   5.634  0.5381 -1.1839 -1.5529
 3232TIP3    H231188   5.876   5.643   5.729 -0.6928  0.7988  1.4436
 3233TIP3   OH231189   0.727   0.978  11.320  0.3861  0.0472  0.3353
 3233TIP3    H131190   0.655   0.997  11.380 -0.3121 -1.1233 -0.1225
 3233TIP3    H231191   0.715   1.040  11.248  0.8514  1.0177  1.0796
 3234TIP3   OH231192   1.823   1.236   5.185 -0.1587  0.2588 -0.2458
 3234TIP3    H131193   1.894   1.171   5.177 -0.1146  0.1159  1.1396
 3234TIP3    H231194   1.743   1.186   5.168 -0.0269  0.1230 -0.4714
 3235TIP3   OH231195   4.838   0.728  16.015  0.0448 -0.1781  0.2251
 3235TIP3    H131196   4.866   0.681  15.936  0.0705 -0.3255  0.3202
 3235TIP3    H231197   4.742   0.725  16.011  0.0363  0.4922 -0.1997
 3236TIP3   OH231198   4.581   3.131   1.497  0.1891 -0.2303 -0.4636
 3236TIP3    H131199   4.598   3.123   1.403 -0.1259 -2.8734 -0.3268
 3236TIP3    H231200   4.609   3.220   1.519 -2.2310  1.3536 -3.5457
 3237TIP3   OH231201   3.106   6.319   1.565  0.2316  0.2239 -0.1061
 3237TIP3    H131202   3.034   6.256   1.572  0.1869  0.3836  0.9123
 3237TIP3    H231203   3.125   6.323   1.471 -1.0152  0.0947 -0.3734
 3238TIP3   OH231204   1.560   5.875   3.663  0.0754 -0.2515  0.0193
 3238TIP3    H131205   1.481   5.928   3.660  0.0310 -0.1160  2.5257
 3238TIP3    H231206   1.557   5.822   3.583 -1.7167  0.8959 -0.6918
 3239TIP3   OH231207   0.656   3.232   2.533  0.2597  0.6669 -0.0158
 3239TIP3    H131208   0.677   3.153   2.583  0.2855 -0.1024 -1.2080
 3239TIP3    H231209   0.562   3.244   2.545 -0.1204 -0.7012 -1.4199
 3240TIP3   OH231210   2.128   1.126  13.424  0.0462  0.0599 -0.1723
 3240TIP3    H131211   2.104   1.123  13.331 -2.3724 -0.2887  0.4343
 3240TIP3    H231212   2.185   1.202  13.431  1.7348 -0.9493 -2.2589
 3241TIP3   OH231213   3.656   5.156   1.428 -0.6084  0.3845  0.5600
 3241TIP3    H131214   3.578   5.156   1.371 -1.1903  0.8710  1.3380
 3241TIP3    H231215   3.621   5.141   1.515  0.4121 -1.5642  0.6408
 3242TIP3   OH231216   2.205   2.740  13.822 -0.4482  0.0740  0.6705
 3242TIP3    H131217   2.249   2.825  13.828  0.7159 -0.4265 -0.7245
 3242TIP3    H231218   2.274   2.678  13.802 -1.6331 -0.8802 -0.5413
 3243TIP3   OH231219   2.241   0.328   5.816  0.2305  0.0090 -0.4798
 3243TIP3    H131220   2.217   0.238   5.797  0.4788 -0.7102  2.4062
 3243TIP3    H231221   2.219   0.340   5.908 -1.2048  3.3765 -1.1592
 3244TIP3   OH231222   6.574   6.386   2.612  0.3791  0.2074  0.2247
 3244TIP3    H131223   6.519   6.455   2.575  0.0575 -0.1904 -0.0428
 3244TIP3    H231224   6.654   6.431   2.639 -0.2290  0.8602  0.9748
 3245TIP3   OH231225   5.301   0.941   1.088  0.3863  0.0350 -0.1200
 3245TIP3    H131226   5.233   1.005   1.067 -0.4647  0.6754  3.9721
 3245TIP3    H231227   5.374   0.993   1.121  1.6920 -0.8402 -1.5669
 3246TIP3   OH231228   3.722   0.004   5.129  0.0692  0.1307  0.5532
 3246TIP3    H131229   3.640  -0.033   5.164  0.0469  0.0449  0.4125
 3246TIP3    H231230   3.781  -0.071   5.122  0.3554  0.2936  1.2135
 3247TIP3   OH231231   2.460   1.096  13.064 -0.2882  0.1097 -0.4053
 3247TIP3    H131232   2.543   1.054  13.039  0.3134  1.0097  0.0508
 3247TIP3    H231233   2.454   1.081  13.158  0.5247  2.0544 -0.0226
 3248TIP3   OH231234   4.069   1.871  16.377 -0.6209  0.5692  0.4083
 3248TIP3    H131235   4.158   1.836  16.367 -0.9271  0.2853 -1.6912
 3248TIP3    H231236   4.013   1.803  16.339 -1.6917  1.0092  1.1937
 3249TIP3   OH231237   3.032   0.705  14.617  0.3712 -0.3969 -0.0431
 3249TIP3    H131238   3.079   0.663  14.689  1.5706 -0.1988 -0.6916
 3249TIP3    H231239   2.946   0.724  14.653  0.4341 -1.7151  0.8442
 3250TIP3   OH231240   6.646   3.076  11.120  0.3859 -0.1533 -0.0603
 3250TIP3    H131241   6.572   3.121  11.077  0.0495  0.3101  1.0027
 3250TIP3    H231242   6.667   3.004  11.060 -0.8956 -0.2622 -0.4038
 3251TIP3   OH231243   0.657   2.682  14.723 -0.2051 -0.3994  0.1497
 3251TIP3    H131244   0.750   2.700  14.711 -0.6423  1.0040 -1.3370
 3251TIP3    H231245   0.630   2.637  14.643 -0.9470 -0.2429  0.3005
 3252TIP3   OH231246   4.151   6.744   2.055  0.1517  0.4495 -0.9943
 3252TIP3    H131247   4.203   6.822   2.073  1.1694 -0.9546  2.5325
 3252TIP3    H231248   4.215   6.673   2.050 -1.0416 -0.6700 -0.6996
 3253TIP3   OH231249   1.730   3.874  13.773  0.6332  0.6219  0.0851
 3253TIP3    H131250   1.774   3.801  13.729 -0.5585 -0.5014  0.7352
 3253TIP3    H231251   1.649   3.836  13.807 -0.1767  2.3461  0.0970
 3254TIP3   OH231252   3.424   6.352   6.222  0.7951  0.1492 -0.3785
 3254TIP3    H131253   3.392   6.415   6.157 -1.4628  0.0106  0.5451
 3254TIP3    H231254   3.519   6.364   6.224  0.6761  1.4895 -2.3023
 3255TIP3   OH231255   6.435   1.925  11.562 -0.3023 -0.1616 -0.3603
 3255TIP3    H131256   6.433   2.020  11.552  0.1845 -0.1920 -0.8079
 3255TIP3    H231257   6.350   1.903  11.600  0.2559  0.6187  1.3526
 3256TIP3   OH231258   6.499   0.962  14.359  0.6618  0.0710 -0.3102
 3256TIP3    H131259   6.509   0.885  14.302  0.7113  0.9465 -1.4859
 3256TIP3    H231260   6.458   0.927  14.439  1.7036 -1.3711 -0.3886
 3257TIP3   OH231261   5.109   3.850  12.388  0.0809  0.2615 -0.0918
 3257TIP3    H131262   5.106   3.757  12.410 -0.9622  1.1596  3.8512
 3257TIP3    H231263   5.203   3.871  12.386  0.3396 -0.9098 -1.4368
 3258TIP3   OH231264   5.510   6.159   2.381  0.0939 -0.8048 -0.5177
 3258TIP3    H131265   5.525   6.246   2.417 -0.9231 -1.1782  0.8814
 3258TIP3    H231266   5.490   6.174   2.289 -1.2340  0.5663 -0.0291
 3259TIP3   OH231267   2.054   6.663   3.608 -0.7262 -0.0516  0.0746
 3259TIP3    H131268   1.994   6.635   3.539 -0.9521 -1.6699  0.9304
 3259TIP3    H231269   1.998   6.680   3.684 -0.2899  0.1782  0.3494
 3260TIP3   OH231270   0.547   1.767   1.577  0.5085  0.2933 -0.0040
 3260TIP3    H131271   0.622   1.744   1.521 -0.6450  1.1979 -1.9625
 3260TIP3    H231272   0.549   1.702   1.647  2.2239 -0.6227 -0.8618
 3261TIP3   OH231273   5.307   4.022   1.209  0.0242 -0.3841 -0.1071
 3261TIP3    H131274   5.348   4.025   1.296  0.9760 -0.1163 -0.5569
 3261TIP3    H231275   5.251   4.099   1.206 -1.2179 -1.2430  0.8565
 3262TIP3   OH231276   4.675   5.665  16.863  0.5610 -0.7200 -0.5916
 3262TIP3    H131277   4.755   5.671  16.915  0.6329 -1.2545 -0.6327
 3262TIP3    H231278   4.626   5.594  16.904  0.3456 -0.7409 -0.8860
 3263TIP3   OH231279   3.011   0.845   0.585 -0.1103  0.4572 -0.1634
 3263TIP3    H131280   2.937   0.891   0.544  0.1478  2.4656  1.5393
 3263TIP3    H231281   3.067   0.821   0.511 -2.0401 -0.3775 -1.4065
 3264TIP3   OH231282   4.858   2.668  17.090 -0.2783 -0.2141 -0.4738
 3264TIP3    H131283   4.845   2.728  17.163 -1.1459  1.4674 -1.9900
 3264TIP3    H231284   4.776   2.670  17.041 -0.5572 -3.1248 -0.2125
 3265TIP3   OH231285   6.724   4.085   6.284 -0.3038  0.2966 -0.7260
 3265TIP3    H131286   6.666   4.158   6.305 -1.5096 -0.9143  0.2197
 3265TIP3    H231287   6.812   4.116   6.306 -0.9635  0.9692  1.0179
 3266TIP3   OH231288   5.251   6.380  12.908 -0.3528 -0.5744  0.1264
 3266TIP3    H131289   5.167   6.427  12.911 -0.3054 -0.4760 -0.0502
 3266TIP3    H231290   5.298   6.420  12.835 -0.4886 -1.2012 -0.3061
 3267TIP3   OH231291   2.491   4.143   0.462 -0.0719  0.0230 -0.1248
 3267TIP3    H131292   2.503   4.118   0.554 -1.8651  0.7188  0.3164
 3267TIP3    H231293   2.425   4.083   0.429 -0.5064  0.7237 -0.5461
 3268TIP3   OH231294   1.124   1.000   4.593  0.4516 -0.5374  0.1918
 3268TIP3    H131295   1.093   1.057   4.522 -0.2333 -0.9169  0.1803
 3268TIP3    H231296   1.170   1.059   4.653 -0.6198  0.1040  0.4007
 3269TIP3   OH231297   2.763   0.154  11.346  0.2998  0.1680 -0.0077
 3269TIP3    H131298   2.745   0.063  11.323  0.1268 -0.3964  2.2287
 3269TIP3    H231299   2.856   0.166  11.324 -0.1827  0.0883 -2.2089
 3270TIP3   OH231300   2.519   4.959   1.961  0.6017  0.4037  0.6644
 3270TIP3    H131301   2.467   4.887   1.926  3.8116 -1.4273 -0.5844
 3270TIP3    H231302   2.461   5.004   2.021 -2.7334 -0.8929 -1.4591
 3271TIP3   OH231303   2.215   6.081  16.509 -0.3945 -0.5825 -0.1812
 3271TIP3    H131304   2.150   6.134  16.556  0.7271  1.3817 -0.8169
 3271TIP3    H231305   2.297   6.096  16.555 -0.0347 -1.6532 -0.4617
 3272TIP3   OH231306   1.680   3.022   3.253 -0.3500  0.1419  0.1666
 3272TIP3    H131307   1.696   2.972   3.173  0.2729  0.0990  0.3094
 3272TIP3    H231308   1.763   3.015   3.301 -1.0588 -0.6598  1.2673
 3273TIP3   OH231309   4.728   3.561  13.648 -0.1596 -0.2946 -0.5310
 3273TIP3    H131310   4.732   3.639  13.592 -0.4135  0.8252  0.9964
 3273TIP3    H231311   4.816   3.523  13.641  0.0331  0.2386 -1.1049
 3274TIP3   OH231312   2.546   2.073  13.019 -0.3868  0.2923  0.3174
 3274TIP3    H131313   2.499   1.997  13.052 -1.1549  0.7376  0.2698
 3274TIP3    H231314   2.488   2.111  12.953 -0.6410  1.7150  1.3257
 3275TIP3   OH231315   5.493   2.411  16.870 -0.0751 -0.4856  0.8632
 3275TIP3    H131316   5.429   2.390  16.802 -0.8409 -1.5389  1.9085
 3275TIP3    H231317   5.484   2.506  16.883 -0.2782 -0.3645 -0.1279
 3276TIP3   OH231318   0.775   4.993  14.996 -0.0713  0.3520  0.0117
 3276TIP3    H131319   0.687   5.017  15.026 -0.9491 -2.4393 -0.2282
 3276TIP3    H231320   0.760   4.942  14.916  1.7132 -1.0639  0.5659
 3277TIP3   OH231321   4.653   1.841  13.251 -0.9345  0.1746 -0.3870
 3277TIP3    H131322   4.670   1.932  13.277  0.2564 -0.6765  1.8570
 3277TIP3    H231323   4.708   1.828  13.173  2.1147  0.1481  1.6845
 3278TIP3   OH231324   4.451   5.042  12.620 -0.6697 -0.1359  0.1700
 3278TIP3    H131325   4.410   5.110  12.673  1.0276  0.3518  0.8931
 3278TIP3    H231326   4.398   4.964  12.634 -1.7310  0.6552  0.5526
 3279TIP3   OH231327   4.235   3.871  12.433  0.2566  0.2846 -0.1731
 3279TIP3    H131328   4.328   3.850  12.423 -0.2292 -1.4124 -1.2283
 3279TIP3    H231329   4.195   3.841  12.352 -1.3524  0.1892  0.6481
 3280TIP3   OH231330   1.143   5.915   2.707 -0.4917 -0.2562 -0.1883
 3280TIP3    H131331   1.106   5.910   2.795 -1.5619 -1.6395 -0.7125
 3280TIP3    H231332   1.071   5.893   2.648  0.0116  1.3870 -1.4672
 3281TIP3   OH231333   0.952   2.714   3.361  0.0222  0.4795 -0.0809
 3281TIP3    H131334   1.046   2.726   3.376  0.0561 -0.1787  0.2817
 3281TIP3    H231335   0.911   2.769   3.428  0.1655 -0.3693  0.7238
 3282TIP3   OH231336   2.202   0.064   3.497 -0.2369  0.4191 -0.1786
 3282TIP3    H131337   2.154   0.017   3.565 -0.0736  0.5320  0.0162
 3282TIP3    H231338   2.138   0.125   3.460 -0.6264 -0.3948 -0.8658
 3283TIP3   OH231339   5.120   0.104   0.221 -0.1220  0.2198  0.0961
 3283TIP3    H131340   5.071   0.078   0.299 -0.5417 -0.1060 -0.2776
 3283TIP3    H231341   5.204   0.134   0.255 -0.5598  0.7300  0.7281
 3284TIP3   OH231342   1.696   2.703  15.278 -0.0227 -0.0901 -0.0591
 3284TIP3    H131343   1.626   2.768  15.272  1.4475  1.7479  1.8192
 3284TIP3    H231344   1.768   2.750  15.321  2.3734 -1.9058 -1.9668
 3285TIP3   OH231345   4.733   5.115  12.525 -0.1084 -0.1819 -0.5920
 3285TIP3    H131346   4.783   5.104  12.606  0.9481 -0.7634 -1.3131
 3285TIP3    H231347   4.642   5.102  12.551 -0.0887  2.5323  1.0565
 3286TIP3   OH231348   2.693   1.114  12.465 -0.5601  0.1124  0.4671
 3286TIP3    H131349   2.681   1.052  12.393  1.1119 -0.0806  0.3465
 3286TIP3    H231350   2.618   1.098  12.523 -0.5853 -1.4410  0.0296
 3287TIP3   OH231351   6.345   4.826  15.538 -0.0788  0.4928 -0.4088
 3287TIP3    H131352   6.395   4.752  15.503 -0.3342 -0.3949  1.0213
 3287TIP3    H231353   6.405   4.900  15.533  1.0912 -0.3634  0.4336
 3288TIP3   OH231354   3.059   6.558  14.634 -0.0079 -0.1356  0.2279
 3288TIP3    H131355   3.012   6.517  14.707  0.1883 -1.2119 -0.2444
 3288TIP3    H231356   3.139   6.592  14.674  0.0712 -0.6687  0.5413
 3289TIP3   OH231357   2.819   2.645  13.535 -0.4087 -0.2380  0.2572
 3289TIP3    H131358   2.915   2.641  13.541 -0.4608 -0.2079  1.2024
 3289TIP3    H231359   2.801   2.736  13.511 -0.1641 -0.4650 -0.8182
 3290TIP3   OH231360   1.276   6.322   4.048 -0.0962  0.0458 -0.1226
 3290TIP3    H131361   1.317   6.407   4.065  0.0421 -0.1668  0.5830
 3290TIP3    H231362   1.345   6.258   4.062 -0.8157 -0.3591  1.6828
 3291TIP3   OH231363   2.058   5.833  14.062  0.1428 -0.1687  0.1489
 3291TIP3    H131364   1.976   5.789  14.039  1.8334 -4.2914  1.5236
 3291TIP3    H231365   2.075   5.891  13.988 -3.0246 -0.6034 -1.0278
 3292TIP3   OH231366   4.695   2.803   4.179 -0.4455 -0.8474 -0.0164
 3292TIP3    H131367   4.685   2.847   4.264 -0.8393  0.3239 -0.6704
 3292TIP3    H231368   4.731   2.717   4.202  1.2372  0.1425  1.2113
 3293TIP3   OH231369   0.197   4.563  14.026  0.2668 -0.7703 -0.4442
 3293TIP3    H131370   0.273   4.557  14.083 -0.7884 -0.0814  1.0542
 3293TIP3    H231371   0.166   4.653  14.035 -0.8096 -1.0756 -0.9321
 3294TIP3   OH231372   4.560   5.730   4.139  0.6754  0.2757  0.0072
 3294TIP3    H131373   4.633   5.670   4.154 -0.4435 -1.0089  0.4589
 3294TIP3    H231374   4.589   5.813   4.176  1.7498 -0.3259  0.5422
 3295TIP3   OH231375   3.535   0.117  14.637  0.1477 -0.7855 -0.6283
 3295TIP3    H131376   3.555   0.199  14.681 -0.0869 -0.2357 -1.5416
 3295TIP3    H231377   3.617   0.067  14.640  0.1513 -0.7316  0.3666
 3296TIP3   OH231378   0.986   3.823  14.158  0.3079 -0.2511  0.0420
 3296TIP3    H131379   0.986   3.773  14.240 -1.2585  2.0734  1.4941
 3296TIP3    H231380   0.895   3.824  14.130  0.4412  1.1653 -0.3639
 3297TIP3   OH231381   4.940   6.667  12.014  0.3804 -0.4126  0.1565
 3297TIP3    H131382   4.957   6.573  12.026 -0.5383 -0.8682 -1.8818
 3297TIP3    H231383   5.026   6.708  12.018  0.8016 -1.3433  0.9281
 3298TIP3   OH231384   4.351   2.279  11.384 -0.1650  0.3110  0.2837
 3298TIP3    H131385   4.267   2.317  11.358 -0.5303 -0.1279  0.7862
 3298TIP3    H231386   4.327   2.200  11.433  0.6109 -1.2541 -1.8002
 3299TIP3   OH231387   4.822   1.040   5.283  0.4837  0.1795 -0.0050
 3299TIP3    H131388   4.782   0.955   5.264 -0.3526  0.7589 -0.8515
 3299TIP3    H231389   4.912   1.031   5.253 -0.0683  0.1563 -1.7429
 3300TIP3   OH231390   0.027   5.492   5.234 -0.1385 -0.0574 -0.5809
 3300TIP3    H131391   0.027   5.532   5.321  0.3792 -1.0935 -0.0878
 3300TIP3    H231392   0.118   5.501   5.204 -0.1809 -0.2196 -0.7601
 3301TIP3   OH231393   3.309   0.428  16.084  0.6177 -0.3058  0.2738
 3301TIP3    H131394   3.276   0.518  16.083 -0.5308 -0.7294  0.1605
 3301TIP3    H231395   3.291   0.395  15.996  1.4340 -0.5162  0.1808
 3302TIP3   OH231396   6.790   3.659   6.165  0.0004 -0.2723 -0.0900
 3302TIP3    H131397   6.832   3.582   6.126  0.1409 -0.5098  0.5237
 3302TIP3    H231398   6.821   3.660   6.255  0.5892  0.9525 -0.3059
 3303TIP3   OH231399   0.374   5.480   5.858  0.3850 -0.4024  0.4773
 3303TIP3    H131400   0.384   5.552   5.921 -0.1244 -1.4153  1.7514
 3303TIP3    H231401   0.460   5.439   5.855  0.9347  0.8285 -0.9770
 3304TIP3   OH231402   1.514   5.047   3.132  0.0311  0.0255  0.3184
 3304TIP3    H131403   1.574   4.994   3.185  1.8116 -0.0292 -1.6848
 3304TIP3    H231404   1.567   5.122   3.104 -1.8637  1.8096  1.3880
 3305TIP3   OH231405   0.943   4.167   4.970 -0.4078  0.0872 -0.2208
 3305TIP3    H131406   1.014   4.119   5.013  0.3912 -0.7019 -2.3280
 3305TIP3    H231407   0.864   4.119   4.993  0.0030 -0.2833  0.4193
 3306TIP3   OH231408   0.357   0.847   3.485 -0.2307 -0.1751  0.0201
 3306TIP3    H131409   0.325   0.887   3.566  0.4827 -0.4667  0.4515
 3306TIP3    H231410   0.277   0.818   3.439 -0.6181 -0.3956  0.8228
 3307TIP3   OH231411   5.256   3.277   1.815  0.4559  0.2592 -0.4379
 3307TIP3    H131412   5.333   3.284   1.760  0.0207  0.2198 -1.0571
 3307TIP3    H231413   5.201   3.211   1.772 -0.8434  1.7608 -1.1289
 3308TIP3   OH231414   6.555   5.497   5.341 -0.5384  0.1063 -0.4960
 3308TIP3    H131415   6.614   5.515   5.267 -0.3154 -0.3973 -0.4391
 3308TIP3    H231416   6.614   5.475   5.414 -0.7879 -0.1400 -0.3709
 3309TIP3   OH231417   4.945   5.779  12.730  0.1368 -0.6489 -0.3221
 3309TIP3    H131418   5.022   5.741  12.687  0.8143 -0.8779  1.0721
 3309TIP3    H231419   4.870   5.734  12.690  0.7360 -0.6986 -1.4121
 3310TIP3   OH231420   0.941   0.994   2.224  0.2780  0.2862  0.0140
 3310TIP3    H131421   1.027   0.958   2.201 -0.5879 -0.7295 -1.7560
 3310TIP3    H231422   0.932   1.071   2.168  0.4109  0.9359  0.8724
 3311TIP3   OH231423   2.358   1.706   4.044 -0.0452 -0.2099  0.1011
 3311TIP3    H131424   2.267   1.718   4.069  0.4811  1.3129  1.3292
 3311TIP3    H231425   2.369   1.761   3.966 -0.6189 -1.8010 -1.1422
 3312TIP3   OH231426   1.521   2.097  14.292  0.6224 -0.6555 -0.0908
 3312TIP3    H131427   1.614   2.110  14.312  0.0153  1.9417  1.3918
 3312TIP3    H231428   1.485   2.186  14.287 -1.8098 -1.6091 -0.4545
 3313TIP3   OH231429   1.382   2.741   5.671 -0.0548 -0.5527 -0.0904
 3313TIP3    H131430   1.427   2.792   5.604 -0.8235  0.1533 -0.0614
 3313TIP3    H231431   1.313   2.798   5.704 -0.6045 -1.4250  0.2878
 3314TIP3   OH231432   6.044   3.540  12.557 -0.3827 -0.5112  0.1798
 3314TIP3    H131433   6.105   3.602  12.596  0.8589 -1.2290 -0.5887
 3314TIP3    H231434   6.066   3.456  12.599 -0.0033 -1.0095 -1.0028
 3315TIP3   OH231435   3.854   0.904  11.498 -0.4846 -0.4307  0.2596
 3315TIP3    H131436   3.808   0.934  11.576 -0.1482  2.5639 -0.6202
 3315TIP3    H231437   3.935   0.864  11.531 -1.1903 -0.8600  1.5108
 3316TIP3   OH231438   1.234   0.198   1.020 -0.5476  0.1206  0.1338
 3316TIP3    H131439   1.221   0.217   1.113 -0.3886  0.8162  0.0176
 3316TIP3    H231440   1.213   0.281   0.976  3.3412  1.0389 -0.1507
 3317TIP3   OH231441   4.681   6.741   2.102  0.2430 -0.1346  0.5606
 3317TIP3    H131442   4.767   6.700   2.097  0.1115 -0.4789  1.1351
 3317TIP3    H231443   4.697   6.833   2.078  0.8453 -0.0931  1.1004
 3318TIP3   OH231444   3.245   6.696   2.091 -0.0757 -0.2631  0.1795
 3318TIP3    H131445   3.206   6.616   2.126  2.0566 -0.8898  1.1758
 3318TIP3    H231446   3.232   6.761   2.161  2.2124 -0.9384  1.2593
 3319TIP3   OH231447   2.254   3.761  12.778  0.1599  0.5064  0.0496
 3319TIP3    H131448   2.302   3.775  12.859 -1.1950 -1.5878  1.2682
 3319TIP3    H231449   2.163   3.752  12.805 -0.1534 -1.4956 -1.5447
 3320TIP3   OH231450   2.294   2.025  15.963 -0.2697 -0.0678 -0.1111
 3320TIP3    H131451   2.381   1.993  15.988  0.0064  0.9031  0.1850
 3320TIP3    H231452   2.242   2.018  16.043  0.0066  0.9547  0.1628
 3321TIP3   OH231453   2.283   3.071  14.641  0.3556  0.3149 -0.0046
 3321TIP3    H131454   2.309   3.131  14.571 -0.8217  2.8621  1.6852
 3321TIP3    H231455   2.362   3.021  14.661  1.3392  1.2651 -1.4686
 3322TIP3   OH231456   2.620   0.527   2.779 -0.1854  0.1740  0.0680
 3322TIP3    H131457   2.712   0.523   2.754 -0.0271 -1.4945  0.8802
 3322TIP3    H231458   2.620   0.559   2.869 -0.5407  2.2228 -0.6248
 3323TIP3   OH231459   0.089   5.195  16.541  0.4425 -0.0110 -0.4102
 3323TIP3    H131460   0.092   5.147  16.459  1.2436 -0.8515  0.0973
 3323TIP3    H231461  -0.003   5.217  16.553  0.2346 -0.4101 -1.2257
 3324TIP3   OH231462   0.649   0.284   0.797  0.2477  0.4331 -0.1148
 3324TIP3    H131463   0.677   0.374   0.778  0.5166  0.8095  1.8929
 3324TIP3    H231464   0.562   0.294   0.834 -0.3836 -0.2945 -1.3787
 3325TIP3   OH231465   1.566   6.570   0.369  0.0038  0.4453  0.2554
 3325TIP3    H131466   1.523   6.536   0.447  2.4351 -0.3187  1.3200
 3325TIP3    H231467   1.553   6.501   0.303 -0.1591  0.1071  0.6387
 3326TIP3   OH231468   5.088   0.531   2.979 -0.6833  0.3727  0.3762
 3326TIP3    H131469   5.158   0.511   2.916 -2.5210 -0.0284 -1.5778
 3326TIP3    H231470   5.099   0.624   2.998  0.1778  0.3873 -0.1652
 3327TIP3   OH231471   0.582   5.328  16.036  0.1033 -0.1828 -0.0153
 3327TIP3    H131472   0.585   5.287  16.123  0.1459  2.6589  1.3932
 3327TIP3    H231473   0.674   5.333  16.009  0.3108  1.1497  0.8960
 3328TIP3   OH231474   6.298   3.918   3.775 -0.1613 -0.0224  0.0726
 3328TIP3    H131475   6.226   3.867   3.814  0.5742 -0.2751  1.1331
 3328TIP3    H231476   6.362   3.852   3.748  0.4542  0.2887  0.7510
 3329TIP3   OH231477   5.479   0.741  12.312 -0.0980 -0.3398 -0.7936
 3329TIP3    H131478   5.487   0.718  12.405 -1.1873  1.7781 -0.1210
 3329TIP3    H231479   5.512   0.665  12.265  1.3518 -1.0865  1.3460
 3330TIP3   OH231480   5.605   3.489  16.599  0.5764  0.1045  0.3254
 3330TIP3    H131481   5.676   3.485  16.663  0.0769 -0.6636  0.8417
 3330TIP3    H231482   5.533   3.532  16.644  0.3917  0.0186  0.1144
 3331TIP3   OH231483   2.556   0.521   2.038 -0.3377 -0.4600 -0.0913
 3331TIP3    H131484   2.467   0.558   2.033 -0.3860 -0.6485 -0.7410
 3331TIP3    H231485   2.551   0.440   1.987 -0.4110 -1.7551  1.9024
 3332TIP3   OH231486   3.117   2.009  16.696  0.2583  0.6549  0.1310
 3332TIP3    H131487   3.196   1.969  16.730 -0.1432  0.3209  0.6824
 3332TIP3    H231488   3.147   2.069  16.628  0.9232  0.0234 -0.1305
 3333TIP3   OH231489   3.157   3.464  13.046  0.6737 -0.2394 -0.0660
 3333TIP3    H131490   3.190   3.549  13.074  0.4379 -0.3839  0.6684
 3333TIP3    H231491   3.181   3.458  12.954  1.2271  0.3662  0.0323
 3334TIP3   OH231492   3.203   2.125  15.171  0.2672  0.2343  0.2174
 3334TIP3    H131493   3.284   2.167  15.141  0.2696 -0.6922 -1.1015
 3334TIP3    H231494   3.233   2.052  15.225  0.3172 -0.0895 -0.2444
 3335TIP3   OH231495   4.023   4.682  13.902  0.1901  0.0002  0.2567
 3335TIP3    H131496   4.022   4.777  13.889 -0.0665 -0.0827 -0.3170
 3335TIP3    H231497   3.942   4.651  13.862  2.0356 -0.9077 -2.9764
 3336TIP3   OH231498   1.432   2.228   2.143  0.2551  0.1302 -0.2198
 3336TIP3    H131499   1.384   2.260   2.067 -0.7441  0.0412  0.3640
 3336TIP3    H231500   1.388   2.146   2.166  1.7929 -0.8608 -0.7380
 3337TIP3   OH231501   4.663   5.460  14.025 -0.1585 -0.2402  0.1802
 3337TIP3    H131502   4.712   5.385  13.992 -0.4259  0.7957 -2.6479
 3337TIP3    H231503   4.590   5.471  13.964 -0.2518  2.1956  0.6571
 3338TIP3   OH231504   1.534   4.295  15.775  0.1906 -0.1162 -0.0465
 3338TIP3    H131505   1.569   4.230  15.836  3.8593 -0.0693 -1.9458
 3338TIP3    H231506   1.577   4.376  15.799 -0.0819  0.3917 -1.2550
 3339TIP3   OH231507   1.292   3.135  15.707 -0.2224 -0.1571  0.2374
 3339TIP3    H131508   1.281   3.043  15.683  0.8711 -0.1328 -0.3510
 3339TIP3    H231509   1.368   3.135  15.765 -1.1101  0.1795  1.4137
 3340TIP3   OH231510   2.457   3.054  12.888 -0.7704 -0.5087  0.7602
 3340TIP3    H131511   2.412   3.139  12.885 -1.0655 -0.7014 -1.0674
 3340TIP3    H231512   2.390   2.992  12.859 -0.2519 -1.2279  1.1115
 3341TIP3   OH231513   2.164   6.381   2.631 -0.5416  0.5927 -0.1042
 3341TIP3    H131514   2.077   6.341   2.630 -0.7672  1.0911 -1.0175
 3341TIP3    H231515   2.181   6.404   2.540  1.3289 -1.1514 -0.2351
 3342TIP3   OH231516   2.943   6.689   5.850 -0.7504 -0.3656 -0.1203
 3342TIP3    H131517   2.900   6.731   5.775  0.7112  1.9277  0.2588
 3342TIP3    H231518   2.930   6.750   5.922  2.0974 -0.1344  0.2763
 3343TIP3   OH231519   0.776   1.968  13.850  0.0484 -1.1321  0.2868
 3343TIP3    H131520   0.754   1.974  13.757  0.5717 -0.4987  0.1961
 3343TIP3    H231521   0.866   1.935  13.851  0.4456 -0.0701  0.5236
 3344TIP3   OH231522   1.708   0.840  16.315 -0.4237 -0.3428  0.4125
 3344TIP3    H131523   1.697   0.866  16.224  1.1588 -0.9580  0.0323
 3344TIP3    H231524   1.705   0.744  16.314  1.5258 -0.4257  0.7205
 3345TIP3   OH231525   4.208   0.327   3.621 -0.0652  0.1907 -0.5406
 3345TIP3    H131526   4.146   0.312   3.693  0.0457  1.7199 -0.1087
 3345TIP3    H231527   4.178   0.269   3.551 -1.5304  0.3305 -0.0474
 3346TIP3   OH231528   6.324   2.598   4.449 -0.0443 -0.2112  0.2951
 3346TIP3    H131529   6.299   2.688   4.464 -0.3721 -0.1478 -0.5726
 3346TIP3    H231530   6.407   2.587   4.496  0.3958  0.7642 -0.2454
 3347TIP3   OH231531   2.920   4.287   3.838  0.0249 -0.4961 -0.6091
 3347TIP3    H131532   3.006   4.288   3.881  0.2628  0.4077 -1.0950
 3347TIP3    H231533   2.928   4.351   3.767 -1.8033  1.4400  0.8530
 3348TIP3   OH231534   1.932   1.539  16.337  0.0071  0.4100 -0.2034
 3348TIP3    H131535   1.985   1.591  16.397 -0.0267  1.3249 -0.9564
 3348TIP3    H231536   1.888   1.604  16.282 -1.2834 -0.3670 -0.1036
 3349TIP3   OH231537   5.167   2.667   4.569  0.0051  0.2377 -0.7866
 3349TIP3    H131538   5.208   2.726   4.506  0.3751 -0.9863 -1.7215
 3349TIP3    H231539   5.088   2.635   4.524  0.1942 -0.5303 -0.5756
 3350TIP3   OH231540   0.500   1.712   0.159  0.2097 -0.3702 -0.0398
 3350TIP3    H131541   0.539   1.796   0.137 -1.6737  0.9085  1.3089
 3350TIP3    H231542   0.558   1.675   0.226  0.0177  0.7289  0.7361
 3351TIP3   OH231543   6.494   2.387   4.159 -0.0636 -0.4140  1.0554
 3351TIP3    H131544   6.526   2.399   4.070 -0.8772 -0.3315  0.7667
 3351TIP3    H231545   6.556   2.435   4.214 -0.9883  1.7003  0.2970
 3352TIP3   OH231546   0.727   2.409  11.518 -0.3566 -0.4943  0.0111
 3352TIP3    H131547   0.661   2.456  11.468 -1.7198 -0.2284  1.9912
 3352TIP3    H231548   0.797   2.390  11.455 -0.2882  3.0940 -1.1071
 3353TIP3   OH231549   3.403   4.126  11.347 -0.7043  0.3478  0.1963
 3353TIP3    H131550   3.401   4.146  11.440 -0.3067  1.3450  0.0042
 3353TIP3    H231551   3.323   4.077  11.330 -0.2763 -0.7415  1.2542
 3354TIP3   OH231552   5.791   3.021   2.148  0.2254  0.0174  0.2697
 3354TIP3    H131553   5.760   3.047   2.061  0.2568 -0.3556  0.1429
 3354TIP3    H231554   5.749   2.936   2.163 -0.1664  0.3060  0.8276
 3355TIP3   OH231555   2.200   6.230  13.229 -0.3303 -0.1613 -0.3432
 3355TIP3    H131556   2.158   6.257  13.311  0.8135 -0.6706  0.4263
 3355TIP3    H231557   2.227   6.140  13.245  1.2812  0.2413 -0.7280
 3356TIP3   OH231558   1.895   3.660  11.396 -0.5023  0.6446  0.3383
 3356TIP3    H131559   1.881   3.566  11.409 -3.0027  0.9114 -0.1663
 3356TIP3    H231560   1.975   3.665  11.343 -1.2468 -1.2954 -1.0493
 3357TIP3   OH231561   0.357   2.489  16.489 -0.2853 -0.4146  0.3760
 3357TIP3    H131562   0.354   2.566  16.546 -0.1648 -1.3708  1.7065
 3357TIP3    H231563   0.266   2.472  16.467 -0.3639 -0.2518  0.5724
 3358TIP3   OH231564   0.360   1.135   1.393  0.1635 -0.0284 -0.1609
 3358TIP3    H131565   0.407   1.101   1.317  1.7648 -0.1244  0.8507
 3358TIP3    H231566   0.427   1.146   1.461 -1.1776  0.3437  1.1518
 3359TIP3   OH231567   6.521   6.130  16.867 -0.1875 -0.1323  0.5503
 3359TIP3    H131568   6.597   6.117  16.811  0.9850  0.9199  1.8790
 3359TIP3    H231569   6.511   6.225  16.873 -1.1300 -0.2527  1.0291
 3360TIP3   OH231570   6.309   3.391  15.854 -0.0788  0.2313  0.4517
 3360TIP3    H131571   6.388   3.431  15.891  0.2964 -0.8907  0.8619
 3360TIP3    H231572   6.261   3.358  15.930 -1.5138  1.8977  0.3093
 3361TIP3   OH231573   5.904   5.625   4.403  0.0975 -0.1386 -0.1557
 3361TIP3    H131574   5.962   5.551   4.418  0.5348  0.3977  0.8363
 3361TIP3    H231575   5.819   5.586   4.384  0.3933 -0.8955  0.0907
 3362TIP3   OH231576   0.291   6.693  13.252  0.5152 -0.2400 -0.4219
 3362TIP3    H131577   0.380   6.685  13.218  0.3959  1.1196 -1.1086
 3362TIP3    H231578   0.300   6.751  13.327  0.0745  0.7518 -1.1209
 3363TIP3   OH231579   1.594   3.104  14.317 -0.2951 -0.2970 -0.2793
 3363TIP3    H131580   1.550   3.190  14.321 -0.3646 -0.3310 -0.3136
 3363TIP3    H231581   1.545   3.050  14.379 -1.0442 -0.6701 -1.1916
 3364TIP3   OH231582   2.715   4.839  11.947 -0.0567  0.7624 -0.3530
 3364TIP3    H131583   2.714   4.758  11.997 -1.3430  1.1485  0.2545
 3364TIP3    H231584   2.724   4.908  12.013 -0.0975  1.1810 -0.7788
 3365TIP3   OH231585   5.685   0.502   2.108 -0.0852  0.0581  0.0696
 3365TIP3    H131586   5.697   0.594   2.133 -0.9531  0.2760 -0.3015
 3365TIP3    H231587   5.774   0.470   2.092  0.1730  1.0237 -0.4705
 3366TIP3   OH231588   3.609   5.854   3.899  0.3053  0.5193 -0.0491
 3366TIP3    H131589   3.523   5.892   3.881 -0.0695 -0.5902 -0.6169
 3366TIP3    H231590   3.607   5.768   3.858  1.5913  0.3675  0.1718
 3367TIP3   OH231591   0.156   1.246  13.806  0.1479 -0.0920 -0.1199
 3367TIP3    H131592   0.067   1.233  13.773 -0.0380  1.0134 -0.0911
 3367TIP3    H231593   0.192   1.317  13.752  0.2809  0.8741  1.2000
 3368TIP3   OH231594   0.088   3.281  13.821  0.1603 -0.8597  0.2041
 3368TIP3    H131595   0.004   3.316  13.849 -0.7912 -1.7188 -1.4601
 3368TIP3    H231596   0.153   3.343  13.856 -1.1294 -0.2930  1.6628
 3369TIP3   OH231597   1.675   3.119   2.038 -0.0596 -0.5415 -0.1490
 3369TIP3    H131598   1.595   3.081   2.074 -0.5259  0.0846 -0.5277
 3369TIP3    H231599   1.676   3.209   2.070  1.0004 -0.8317  0.6642
 3370TIP3   OH231600   3.377   4.189   3.694  0.0909 -0.5754 -0.4502
 3370TIP3    H131601   3.425   4.113   3.662  0.1740 -0.6155 -0.2282
 3370TIP3    H231602   3.316   4.210   3.623 -0.0823 -0.9799 -0.4219
 3371TIP3   OH231603   4.587   3.881  16.932  0.2713  0.3639 -0.5517
 3371TIP3    H131604   4.531   3.812  16.966 -1.2268  1.7302 -0.1725
 3371TIP3    H231605   4.627   3.843  16.854  1.1624 -1.6502  0.8613
 3372TIP3   OH231606   2.817   5.250  13.968  0.1561 -0.3322 -0.3191
 3372TIP3    H131607   2.819   5.318  13.901  3.3047  0.0271  0.0761
 3372TIP3    H231608   2.837   5.295  14.050 -1.7598 -1.0937  0.6204
 3373TIP3   OH231609   1.541   0.586  11.006 -0.7427 -0.4170 -0.0953
 3373TIP3    H131610   1.634   0.570  11.019 -0.6793  0.5782  0.7161
 3373TIP3    H231611   1.503   0.578  11.094 -1.2366  0.4268 -0.2276
 3374TIP3   OH231612   3.329   1.767  12.821 -0.1639  0.0924 -0.5410
 3374TIP3    H131613   3.246   1.814  12.835 -0.9617 -1.8831  1.7826
 3374TIP3    H231614   3.310   1.706  12.750  0.1746  1.6537 -1.9784
 3375TIP3   OH231615   3.272   6.500   3.266  0.2789 -0.8322 -0.3632
 3375TIP3    H131616   3.245   6.465   3.181 -3.4671 -1.4010  0.9647
 3375TIP3    H231617   3.299   6.590   3.247  0.6921 -1.3495 -2.3445
 3376TIP3   OH231618   3.512   5.523  13.143 -0.5378  0.3272 -0.3953
 3376TIP3    H131619   3.576   5.593  13.158  0.0964 -0.6204  1.4212
 3376TIP3    H231620   3.557   5.462  13.085 -0.4871  0.6027 -0.6466
 3377TIP3   OH231621   2.093   1.599   4.964 -0.2865 -0.1556  0.5654
 3377TIP3    H131622   2.144   1.616   4.885 -1.2345 -1.4408 -0.3464
 3377TIP3    H231623   2.075   1.685   5.000  0.0930  0.4454 -0.6658
 3378TIP3   OH231624   4.049   1.342   0.936 -0.4379 -0.0822 -0.0294
 3378TIP3    H131625   4.049   1.426   0.889  0.1358  0.8302  1.5456
 3378TIP3    H231626   4.126   1.296   0.903 -0.6272  0.1130 -0.7399
 3379TIP3   OH231627   1.604   1.939  12.989 -0.4317  0.0343  0.2867
 3379TIP3    H131628   1.536   1.877  12.963  0.2264  0.0802 -1.6372
 3379TIP3    H231629   1.596   1.945  13.084 -2.4201 -0.7496  0.1878
 3380TIP3   OH231630   6.367   6.099   1.179 -0.0509 -0.1708  0.4756
 3380TIP3    H131631   6.352   6.006   1.162 -1.3976  0.3440 -1.2859
 3380TIP3    H231632   6.283   6.131   1.212  0.0865  0.6300  0.0726
 3381TIP3   OH231633   2.923   0.234  11.697 -0.1753  0.3239 -0.3828
 3381TIP3    H131634   3.007   0.194  11.719  0.1144  1.7168  1.1106
 3381TIP3    H231635   2.939   0.282  11.617  0.1888 -0.2512 -0.6586
 3382TIP3   OH231636   2.204   0.522  11.666  0.1556  0.0968 -0.0790
 3382TIP3    H131637   2.148   0.458  11.622 -1.2387  0.4821  1.0621
 3382TIP3    H231638   2.209   0.491  11.757  1.8278  0.0627 -0.1785
 3383TIP3   OH231639   1.656   6.304  15.358  0.5934 -0.0310  0.0766
 3383TIP3    H131640   1.625   6.364  15.426 -1.2121 -0.2467 -0.5205
 3383TIP3    H231641   1.582   6.246  15.342  1.0518 -0.0928 -1.9455
 3384TIP3   OH231642   4.160   4.894   4.844  0.0072 -0.2501 -0.0738
 3384TIP3    H131643   4.201   4.978   4.863  0.1852 -0.8717  2.5450
 3384TIP3    H231644   4.232   4.837   4.817  0.2609 -0.2181  0.5240
 3385TIP3   OH231645   2.109   3.697   1.874  0.0497  0.3487 -0.1532
 3385TIP3    H131646   2.166   3.734   1.806  1.0632 -0.3975  0.2840
 3385TIP3    H231647   2.148   3.727   1.956 -1.2712  1.3942  0.1133
 3386TIP3   OH231648   6.183   5.043  17.073 -0.6852 -0.1494 -0.7467
 3386TIP3    H131649   6.089   5.053  17.087 -0.5542 -1.2372  1.1105
 3386TIP3    H231650   6.217   5.132  17.075 -1.6048  0.2120 -0.8648
 3387TIP3   OH231651   0.749   6.284  12.068  0.2032  0.0506  0.0607
 3387TIP3    H131652   0.839   6.262  12.093 -0.0087 -0.2824  0.5378
 3387TIP3    H231653   0.700   6.278  12.150 -0.2456  0.2720 -0.1914
 3388TIP3   OH231654   5.258   2.346   3.767 -0.2550  0.1284  0.4606
 3388TIP3    H131655   5.267   2.253   3.746 -0.2583  0.6226 -1.9356
 3388TIP3    H231656   5.340   2.369   3.811  0.1531 -0.7895  0.1959
 3389TIP3   OH231657   4.869   0.138   5.497 -0.1922  0.0928  0.2419
 3389TIP3    H131658   4.820   0.197   5.439  1.6505  0.5685 -0.8840
 3389TIP3    H231659   4.947   0.115   5.446  0.2909 -1.4013  1.6310
 3390TIP3   OH231660   1.269   0.408  15.152  0.7814 -0.2403 -0.1750
 3390TIP3    H131661   1.230   0.403  15.065 -0.1348 -0.5477  0.2489
 3390TIP3    H231662   1.232   0.487  15.191 -0.4649 -1.2433  0.7222
 3391TIP3   OH231663   1.671   4.975   1.455  0.2485 -0.4684  0.3861
 3391TIP3    H131664   1.732   4.914   1.415  0.1283 -0.8561  0.7916
 3391TIP3    H231665   1.585   4.937   1.440  0.0985  0.1199 -0.2569
 3392TIP3   OH231666   3.195   4.666  16.478 -0.0001  0.0059 -0.0394
 3392TIP3    H131667   3.168   4.618  16.400  0.0450 -0.4523  0.2293
 3392TIP3    H231668   3.115   4.708  16.509 -0.4953 -1.6475  0.9679
 3393TIP3   OH231669   1.812   2.368  17.225  1.1159  0.5268  0.9177
 3393TIP3    H131670   1.727   2.327  17.210  1.6038 -0.4046  0.6370
 3393TIP3    H231671   1.852   2.372  17.138  2.1570 -0.8447  1.3032
 3394TIP3   OH231672   4.909   6.711  12.485 -0.3333  0.7395  0.1984
 3394TIP3    H131673   4.826   6.680  12.448  0.3902  0.4857 -1.2421
 3394TIP3    H231674   4.958   6.743  12.410  0.2606  2.3582  1.2373
 3395TIP3   OH231675   0.346   1.647   2.997  0.3635  0.4345 -0.1992
 3395TIP3    H131676   0.433   1.626   3.030 -0.5649 -2.1653  0.7235
 3395TIP3    H231677   0.354   1.640   2.902  1.3378  0.9614 -0.1623
 3396TIP3   OH231678   5.500   3.304   0.990 -0.2945  0.2774 -0.0854
 3396TIP3    H131679   5.500   3.387   1.037  1.9153  0.1269  0.2380
 3396TIP3    H231680   5.531   3.327   0.902  1.6555 -0.3601  0.3953
 3397TIP3   OH231681   3.958   1.875   5.489  0.5215 -0.2146  0.2067
 3397TIP3    H131682   4.017   1.837   5.424  2.2540 -0.2413  1.7602
 3397TIP3    H231683   3.994   1.961   5.508  0.0753 -0.2305  1.1782
 3398TIP3   OH231684   2.191   4.325  12.556 -0.1061  0.9044 -0.5419
 3398TIP3    H131685   2.250   4.317  12.481  0.3792  0.6367 -0.1270
 3398TIP3    H231686   2.129   4.252  12.546  1.8408 -1.0091  1.0042
 3399TIP3   OH231687   4.766   4.547  16.286  0.0609 -0.1592  0.1225
 3399TIP3    H131688   4.772   4.635  16.322 -1.7474 -0.4346  1.1555
 3399TIP3    H231689   4.673   4.523  16.296  0.3603 -1.8408 -0.9213
 3400TIP3   OH231690   1.341   4.487  15.661 -0.0264 -0.1786  0.3175
 3400TIP3    H131691   1.345   4.475  15.756  0.1655  0.5728  0.4050
 3400TIP3    H231692   1.281   4.561  15.649 -1.1747 -1.1795 -0.2169
 3401TIP3   OH231693   5.884   1.270  16.283 -0.4788 -0.2747 -0.3262
 3401TIP3    H131694   5.892   1.174  16.277 -0.8379 -0.2576 -1.2124
 3401TIP3    H231695   5.964   1.298  16.327 -0.3651 -0.9861 -0.0704
 3402TIP3   OH231696   0.396   1.172   2.438  0.2353  0.0599  0.1045
 3402TIP3    H131697   0.434   1.224   2.508 -0.2858  1.6912 -0.8116
 3402TIP3    H231698   0.332   1.230   2.397  0.1887 -1.0445 -1.4114
 3403TIP3   OH231699   3.837   0.927  13.484  0.3160 -0.1037 -0.2454
 3403TIP3    H131700   3.926   0.899  13.502  0.3558 -0.2328 -0.6343
 3403TIP3    H231701   3.828   0.919  13.389 -0.3616 -0.8331 -0.1263
 3404TIP3   OH231702   1.563   4.132  13.890 -0.3928  0.1725  0.2898
 3404TIP3    H131703   1.647   4.125  13.935 -0.7539  0.3142  0.9988
 3404TIP3    H231704   1.585   4.167  13.804  0.3341 -0.3265  0.2698
 3405TIP3   OH231705   4.812   1.394  13.179  0.0320  0.0494 -0.2579
 3405TIP3    H131706   4.759   1.363  13.253 -0.2478  0.2606 -0.3703
 3405TIP3    H231707   4.749   1.405  13.108  0.2642  0.0764 -0.4595
 3406TIP3   OH231708   3.346   4.318   0.005 -0.1859 -0.0484  0.2628
 3406TIP3    H131709   3.282   4.382   0.035 -1.8190 -1.1161 -0.8339
 3406TIP3    H231710   3.309   4.283  -0.076  0.9236 -1.9701  0.5398
 3407TIP3   OH231711   1.187   0.981  14.032  0.7463 -0.4040 -0.0317
 3407TIP3    H131712   1.262   1.040  14.018  2.2360 -1.4464  3.1186
 3407TIP3    H231713   1.119   1.037  14.069  0.9857 -0.0163 -0.1783
 3408TIP3   OH231714   3.007   0.267  15.896  0.3033  0.1841  0.0565
 3408TIP3    H131715   2.936   0.232  15.842  0.6311  0.2651 -0.4267
 3408TIP3    H231716   3.003   0.215  15.976  1.3492 -1.6141 -0.9996
 3409TIP3   OH231717   3.988   3.853  11.616  0.5628 -0.2416 -0.3367
 3409TIP3    H131718   4.030   3.924  11.664  0.5070 -1.3709  1.4019
 3409TIP3    H231719   4.017   3.865  11.526  2.1324  0.8199  0.2921
 3410TIP3   OH231720   0.130   4.995  13.144 -0.1495  0.2154 -0.0028
 3410TIP3    H131721   0.103   4.905  13.159 -0.0656  0.3213  0.7819
 3410TIP3    H231722   0.133   5.003  13.049 -0.1686 -0.6064 -0.0782
 3411TIP3   OH231723   3.984   4.652  12.014  0.4956 -0.3547 -0.0790
 3411TIP3    H131724   4.036   4.712  12.067 -0.1173  0.9926 -0.9826
 3411TIP3    H231725   3.893   4.671  12.037  0.2770 -0.6416 -0.6742
 3412TIP3   OH231726   1.527   4.922  10.896 -0.1021  0.0286  0.3595
 3412TIP3    H131727   1.439   4.889  10.914  0.5020 -1.3407  0.8341
 3412TIP3    H231728   1.531   4.925  10.800 -0.8215  0.5812  0.3324
 3413TIP3   OH231729   6.456   1.464  13.634 -0.7137  0.3436 -0.0816
 3413TIP3    H131730   6.491   1.546  13.669  0.1535  0.5106 -1.3199
 3413TIP3    H231731   6.404   1.428  13.706 -0.9893  1.9050  0.5210
 3414TIP3   OH231732   3.977   5.511  15.033 -0.8784 -0.3402 -0.2307
 3414TIP3    H131733   3.897   5.468  15.002 -1.3669  1.1423 -1.1115
 3414TIP3    H231734   3.949   5.559  15.111 -0.4305 -1.3121  0.5221
 3415TIP3   OH231735   6.484   3.621   1.595  0.1110  0.1762  0.3282
 3415TIP3    H131736   6.548   3.677   1.638 -0.2865  1.1533 -0.3384
 3415TIP3    H231737   6.537   3.557   1.547  0.5568 -0.6242  1.8468
 3416TIP3   OH231738   3.176   5.239  13.167  0.1807  0.0585 -0.0647
 3416TIP3    H131739   3.099   5.188  13.194 -0.8313  0.7256 -1.6679
 3416TIP3    H231740   3.191   5.299  13.241 -0.0737 -0.9103  0.7941
 3417TIP3   OH231741   2.177   3.692  15.453 -0.1911 -0.1372  0.2482
 3417TIP3    H131742   2.096   3.743  15.448  0.0625  0.0569 -2.0153
 3417TIP3    H231743   2.168   3.625  15.386  1.8411  0.3479 -0.5431
 3418TIP3   OH231744   5.023   5.661   0.020  0.0065  0.0728  0.9300
 3418TIP3    H131745   5.117   5.645   0.028  0.3346  1.2175 -0.4527
 3418TIP3    H231746   4.990   5.657   0.110  1.3867 -0.2693  1.4297
 3419TIP3   OH231747   4.570   4.659   5.583 -0.5957 -0.1766  0.7438
 3419TIP3    H131748   4.560   4.709   5.502 -0.2411 -0.1990  0.6886
 3419TIP3    H231749   4.483   4.621   5.598  0.1420 -2.8300 -1.3305
 3420TIP3   OH231750   2.299   5.654  13.025 -0.1369  0.0822 -0.2965
 3420TIP3    H131751   2.211   5.669  12.992  0.8981 -1.6245 -4.1161
 3420TIP3    H231752   2.356   5.702  12.965  1.6778 -0.8873  0.5986
 3421TIP3   OH231753   2.216   5.102  15.349  0.2272  0.4025  0.0712
 3421TIP3    H131754   2.264   5.050  15.414  0.9253  1.2585  0.2420
 3421TIP3    H231755   2.267   5.182  15.340  0.5883 -0.0351 -2.1314
 3422TIP3   OH231756   1.330   5.840  13.330  0.1832  0.3402  0.4828
 3422TIP3    H131757   1.366   5.824  13.242  0.9512  0.3429  0.7951
 3422TIP3    H231758   1.271   5.915  13.318 -2.1110 -1.5890 -0.6493
 3423TIP3   OH231759   5.934   2.317  17.150 -0.5606  0.5948 -0.2106
 3423TIP3    H131760   5.964   2.364  17.227  0.8056  1.1905 -1.0922
 3423TIP3    H231761   5.947   2.225  17.171 -1.2912  0.6996  0.7136
 3424TIP3   OH231762   1.657   6.052   5.896  0.6122 -0.0190  0.9891
 3424TIP3    H131763   1.723   6.015   5.954  2.1910 -0.8630 -1.2799
 3424TIP3    H231764   1.681   6.144   5.887 -0.0112  0.2698  2.1329
 3425TIP3   OH231765   4.101   5.201   6.330 -0.5206 -0.1410 -0.5470
 3425TIP3    H131766   4.170   5.261   6.359  0.2794 -1.1773 -0.2750
 3425TIP3    H231767   4.023   5.256   6.324 -0.4372  0.3981  2.3245
 3426TIP3   OH231768   0.665   5.361  13.738 -0.3028 -0.1351  0.4636
 3426TIP3    H131769   0.690   5.372  13.830  1.1109  0.2694  0.0398
 3426TIP3    H231770   0.678   5.447  13.699 -1.6856 -0.1034  0.0661
 3427TIP3   OH231771   0.397   1.769   3.847  0.0944  0.3484  0.3593
 3427TIP3    H131772   0.402   1.718   3.766 -0.3240 -0.2019  0.6749
 3427TIP3    H231773   0.445   1.849   3.828  0.0135  0.2129 -0.4277
 3428TIP3   OH231774   4.202   0.827  15.925  0.2502 -0.6119  0.1409
 3428TIP3    H131775   4.216   0.902  15.867 -1.2113  0.9860  1.7856
 3428TIP3    H231776   4.213   0.750  15.869  3.5779  0.7568 -1.2001
 3429TIP3   OH231777   4.110   5.650  12.443  0.1771 -0.7660 -0.2318
 3429TIP3    H131778   4.055   5.654  12.364  0.5596  0.9318 -0.4347
 3429TIP3    H231779   4.056   5.606  12.508 -1.4696  0.9185 -0.4199
 3430TIP3   OH231780   1.270   5.713  14.483 -0.6378  0.3672 -0.2818
 3430TIP3    H131781   1.359   5.715  14.447 -0.8664 -0.4969 -0.9131
 3430TIP3    H231782   1.277   5.661  14.563 -0.9107 -1.3170 -1.3198
 3431TIP3   OH231783   1.513   6.173   1.321 -0.1254  0.3032  0.3954
 3431TIP3    H131784   1.545   6.145   1.235  1.4805 -1.0488  1.4193
 3431TIP3    H231785   1.421   6.195   1.306 -0.4492 -2.0322 -1.2086
 3432TIP3   OH231786   6.546   0.449   2.020  0.0044  0.1157 -0.3560
 3432TIP3    H131787   6.578   0.359   2.020 -0.6941 -0.1392  0.0664
 3432TIP3    H231788   6.547   0.475   2.112  1.5366  1.0277 -0.6254
 3433TIP3   OH231789   2.768   5.347  16.890  0.1124  0.1387 -0.0835
 3433TIP3    H131790   2.839   5.282  16.890 -0.7746 -0.8289 -1.1701
 3433TIP3    H231791   2.698   5.307  16.839 -0.6560  1.7266 -0.3049
 3434TIP3   OH231792   1.002   3.193   1.929 -0.6293 -0.7092 -0.1980
 3434TIP3    H131793   0.907   3.186   1.921 -0.7666  0.0729  0.6450
 3434TIP3    H231794   1.024   3.136   2.002 -0.5764 -0.1114  0.2572
 3435TIP3   OH231795   0.561   0.602  11.465 -0.2524  0.1396  0.6183
 3435TIP3    H131796   0.527   0.513  11.450 -0.9371  0.7485 -1.7043
 3435TIP3    H231797   0.608   0.623  11.384  2.3816  0.8159  2.2875
 3436TIP3   OH231798   3.438   5.007  15.504 -1.0302 -0.3445 -0.3706
 3436TIP3    H131799   3.484   4.960  15.435  2.8002  0.5713  1.4154
 3436TIP3    H231800   3.414   4.939  15.567  1.2530 -0.4441  0.4503
 3437TIP3   OH231801   2.279   3.204   2.222 -0.9792  0.2034 -0.2552
 3437TIP3    H131802   2.370   3.215   2.193 -0.6609 -1.1722  0.1615
 3437TIP3    H231803   2.250   3.123   2.180 -1.0484 -0.9236  1.9162
 3438TIP3   OH231804   5.053   2.980   1.965 -0.3500 -0.1043  0.1238
 3438TIP3    H131805   5.084   3.000   1.877 -1.6994  1.3847 -0.0492
 3438TIP3    H231806   5.070   2.887   1.977  1.8251  0.1438 -0.8839
 3439TIP3   OH231807   2.414   5.015   2.417 -0.1020 -0.3357 -0.1509
 3439TIP3    H131808   2.455   4.930   2.402 -0.1467 -0.2050 -1.0556
 3439TIP3    H231809   2.485   5.072   2.445 -0.4478 -1.2027  2.5617
 3440TIP3   OH231810   2.862   6.252   0.715 -0.1298 -0.7222 -0.3819
 3440TIP3    H131811   2.931   6.296   0.765 -1.0318  0.1867  0.0642
 3440TIP3    H231812   2.861   6.163   0.750  1.0579 -0.8495 -0.6361
 3441TIP3   OH231813   3.957   2.406   3.799  0.1369  0.0521  0.2232
 3441TIP3    H131814   4.041   2.405   3.845  1.2915  0.0225 -1.7969
 3441TIP3    H231815   3.920   2.492   3.819  1.1557  0.4867  0.2666
 3442TIP3   OH231816   1.710   4.348   5.398  0.2995  0.0970 -0.2560
 3442TIP3    H131817   1.733   4.316   5.310  0.4648 -0.2538 -0.0857
 3442TIP3    H231818   1.719   4.443   5.391 -0.4492  0.1326 -0.8377
 3443TIP3   OH231819   5.720   3.438   6.369  0.6710 -0.2360  0.1864
 3443TIP3    H131820   5.725   3.347   6.398 -1.2958 -0.2684  0.5354
 3443TIP3    H231821   5.627   3.451   6.350  1.0479  1.4986 -0.5211
 3444TIP3   OH231822   4.484   4.182   1.865  0.0817 -0.1136  0.6218
 3444TIP3    H131823   4.508   4.262   1.818 -0.0735  0.0827  0.8770
 3444TIP3    H231824   4.389   4.188   1.876 -0.4948 -2.0936 -2.6465
 3445TIP3   OH231825   2.752   1.381  16.377 -0.2270 -0.4378  0.2486
 3445TIP3    H131826   2.669   1.357  16.418 -1.5154 -0.3280 -2.2237
 3445TIP3    H231827   2.796   1.435  16.442 -1.2610 -2.0100  2.3267
 3446TIP3   OH231828   6.679   1.762   3.013 -0.0506  0.4178 -0.1077
 3446TIP3    H131829   6.594   1.721   3.003 -0.7338  1.8220 -0.2554
 3446TIP3    H231830   6.742   1.692   2.998 -1.1707 -0.3795 -1.1871
 3447TIP3   OH231831   6.091   1.603  13.247  0.8222 -0.0747 -0.1075
 3447TIP3    H131832   6.171   1.602  13.300  0.9474  2.4174 -0.1925
 3447TIP3    H231833   6.024   1.640  13.304 -0.2032 -1.7396 -0.1866
 3448TIP3   OH231834   5.602   0.484  12.683 -0.1422  0.6860 -0.1764
 3448TIP3    H131835   5.689   0.449  12.702  0.6543  2.0499 -1.2699
 3448TIP3    H231836   5.542   0.421  12.724  1.3469 -0.1598  0.7564
 3449TIP3   OH231837   1.420   0.831  10.998 -0.3040 -0.1837 -0.0257
 3449TIP3    H131838   1.458   0.743  10.986 -1.3757 -0.4865 -1.2462
 3449TIP3    H231839   1.352   0.819  11.064 -1.7673 -0.6691 -1.5975
 3450TIP3   OH231840   1.578   4.994   6.218 -0.4237  0.2536  0.2369
 3450TIP3    H131841   1.532   5.077   6.207  2.4846  1.9988  0.8344
 3450TIP3    H231842   1.634   4.987   6.141 -1.2727 -1.6047 -0.2439
 3451TIP3   OH231843   4.078   5.529   5.022 -0.2730  0.1624  0.6372
 3451TIP3    H131844   4.068   5.527   5.118 -0.9700 -0.2370  0.5581
 3451TIP3    H231845   4.008   5.472   4.990 -0.2901  0.6171 -0.1301
 3452TIP3   OH231846   5.355   6.123   0.253  0.2583  0.1708 -0.3361
 3452TIP3    H131847   5.343   6.078   0.169 -1.1248  2.6340 -1.4963
 3452TIP3    H231848   5.449   6.142   0.256  0.5724 -1.2722 -0.6027
 3453TIP3   OH231849   6.158   4.362   5.627  0.4356  0.0335  0.1343
 3453TIP3    H131850   6.091   4.362   5.558 -0.9680  3.2485  1.3975
 3453TIP3    H231851   6.227   4.419   5.593  0.3760  0.5057  0.8083
 3454TIP3   OH231852   0.600   5.218  15.130 -0.1820  0.3316  0.1177
 3454TIP3    H131853   0.627   5.279  15.062 -0.4800  0.1908 -0.1230
 3454TIP3    H231854   0.505   5.212  15.122  0.0445 -2.0363 -1.4697
 3455TIP3   OH231855   5.023   3.799   6.050 -0.7101 -0.2669 -0.7871
 3455TIP3    H131856   4.985   3.742   6.117 -0.7316  3.2644  2.3537
 3455TIP3    H231857   4.950   3.851   6.018  0.0744  1.1960 -0.2501
 3456TIP3   OH231858   4.300   1.435   5.117  0.2523 -1.0049 -0.0158
 3456TIP3    H131859   4.256   1.386   5.186 -0.1582  1.4576  1.5374
 3456TIP3    H231860   4.391   1.407   5.121  0.3804 -0.3304  2.0569
 3457TIP3   OH231861   2.757   3.530   1.252  0.1803  0.6568 -0.7749
 3457TIP3    H131862   2.802   3.530   1.168  0.8045  0.3236 -0.4439
 3457TIP3    H231863   2.815   3.482   1.311 -0.4693  0.4728 -0.2706
 3458TIP3   OH231864   6.327   4.920   4.853  0.3435  0.1197  0.5703
 3458TIP3    H131865   6.325   5.012   4.880  1.0321  0.8032 -1.6697
 3458TIP3    H231866   6.366   4.875   4.928  0.7505  1.7610  1.3758
 3459TIP3   OH231867   3.723   2.929  11.681  0.1568  0.1271  0.8013
 3459TIP3    H131868   3.681   2.883  11.754 -0.5382 -2.8957 -1.3717
 3459TIP3    H231869   3.651   2.971  11.634 -0.0558 -1.8247 -0.7145
 3460TIP3   OH231870   5.553   1.788   6.311  0.2191 -0.4511  0.4411
 3460TIP3    H131871   5.511   1.717   6.359 -0.0476 -1.1267 -0.7946
 3460TIP3    H231872   5.484   1.824   6.255  0.9508 -0.7104 -0.6244
 3461TIP3   OH231873   0.671   1.031   3.433 -0.3428 -0.0696 -0.1294
 3461TIP3    H131874   0.681   1.108   3.377  0.4313  0.4676  0.7404
 3461TIP3    H231875   0.655   1.067   3.520  2.6205 -0.8307  0.7942
 3462TIP3   OH231876   0.974   1.091  11.934 -0.4704 -0.0370  0.2043
 3462TIP3    H131877   1.022   1.010  11.915  2.3959  1.3976  1.1294
 3462TIP3    H231878   0.950   1.083  12.026  0.8845  0.6960  0.6252
 3463TIP3   OH231879   4.274   4.492   6.033 -0.1186 -1.2888 -0.3974
 3463TIP3    H131880   4.307   4.551   5.966 -0.8657  0.2329  0.5353
 3463TIP3    H231881   4.194   4.456   5.995 -1.4605  0.8551  0.2701
 3464TIP3   OH231882   1.465   2.985  16.185  0.3556  0.8852  0.2474
 3464TIP3    H131883   1.518   3.065  16.186  0.0183  1.1047  0.4088
 3464TIP3    H231884   1.377   3.014  16.208  0.1724  0.5109  0.0149
 3465TIP3   OH231885   4.068   5.545   0.999 -0.0802  0.2942  0.4812
 3465TIP3    H131886   4.124   5.503   0.934 -1.4522 -0.1586 -0.4072
 3465TIP3    H231887   4.001   5.590   0.949 -1.0902  0.0265  1.5614
 3466TIP3   OH231888   2.980   0.779   4.836 -0.0279  0.4330  0.3784
 3466TIP3    H131889   2.968   0.693   4.874  0.6952  0.7669  1.3943
 3466TIP3    H231890   2.973   0.765   4.741 -2.6793 -0.2559  0.6468
 3467TIP3   OH231891   3.248   3.336   4.539  0.1689  0.3760  0.9588
 3467TIP3    H131892   3.336   3.375   4.545 -1.0866  4.1518 -2.7174
 3467TIP3    H231893   3.260   3.259   4.484  1.3545  0.2915  1.3186
 3468TIP3   OH231894   4.847   0.179  14.627 -0.1874  0.3030 -0.5161
 3468TIP3    H131895   4.758   0.199  14.656 -1.2726 -0.7968 -2.9569
 3468TIP3    H231896   4.836   0.131  14.544  2.6810  0.8565 -1.2980
 3469TIP3   OH231897   6.077   5.670   2.982  0.4520  0.6799  0.0130
 3469TIP3    H131898   6.077   5.634   2.893  1.1646  0.6657  0.0149
 3469TIP3    H231899   6.161   5.717   2.988  0.9315 -0.3032  1.0768
 3470TIP3   OH231900   2.423   3.700  13.315  0.3970 -0.0064  0.0750
 3470TIP3    H131901   2.491   3.760  13.284 -0.0287 -0.5476 -2.0133
 3470TIP3    H231902   2.451   3.675  13.403  2.9171 -0.2075 -0.7331
 3471TIP3   OH231903   0.726   0.711   1.577  0.1635  0.4961  0.1163
 3471TIP3    H131904   0.781   0.633   1.568 -0.2526  0.4181 -2.0653
 3471TIP3    H231905   0.789   0.783   1.585  0.5818  0.2619 -0.9691
 3472TIP3   OH231906   0.029   5.710  15.707 -0.5051 -0.5514 -0.1695
 3472TIP3    H131907  -0.012   5.650  15.644 -1.7891 -0.7849  0.8694
 3472TIP3    H231908   0.007   5.797  15.673 -2.4049 -0.6703  0.6853
 3473TIP3   OH231909   1.501   4.380   3.861  0.1673  0.0909 -0.2341
 3473TIP3    H131910   1.556   4.419   3.930 -0.0787  1.2117 -0.6701
 3473TIP3    H231911   1.447   4.317   3.907  0.8191  0.0050  0.4295
 3474TIP3   OH231912   3.279   5.272   2.302  0.2982  0.4255 -0.3077
 3474TIP3    H131913   3.328   5.319   2.370 -0.2667  0.0473  0.3577
 3474TIP3    H231914   3.337   5.201   2.276  0.7159  0.8551 -0.5692
 3475TIP3   OH231915   0.890   3.446  15.468 -0.0796  0.4118 -0.2612
 3475TIP3    H131916   0.918   3.538  15.469 -2.0139  1.0106 -0.4368
 3475TIP3    H231917   0.960   3.401  15.420  0.8495  1.7922 -0.2420
 3476TIP3   OH231918   2.262   6.776   1.822 -0.1245 -0.3493  0.5480
 3476TIP3    H131919   2.254   6.714   1.749  0.8373 -0.4728  0.5467
 3476TIP3    H231920   2.323   6.734   1.882 -0.9936 -0.2920  1.4763
 3477TIP3   OH231921   4.030   3.185  15.149 -0.0046 -0.3235  0.0551
 3477TIP3    H131922   3.959   3.180  15.085  0.4594 -2.5401 -0.3145
 3477TIP3    H231923   4.109   3.191  15.096  0.2124  0.3777  0.4547
 3478TIP3   OH231924   5.812   1.265  13.159  0.3541  0.2173  1.1261
 3478TIP3    H131925   5.866   1.218  13.095 -1.2088 -0.7570  0.4695
 3478TIP3    H231926   5.815   1.356  13.130 -0.8374 -0.2974 -0.7720
 3479TIP3   OH231927   3.194   6.623   4.787  0.2361  0.0889  0.0176
 3479TIP3    H131928   3.240   6.648   4.708 -0.3524  0.3720 -0.2394
 3479TIP3    H231929   3.262   6.616   4.854  0.6673  0.3388 -0.3954
 3480TIP3   OH231930   2.078   1.945   2.530 -0.4705 -0.0586  0.0255
 3480TIP3    H131931   2.022   2.016   2.560 -1.3278 -1.0762  0.8579
 3480TIP3    H231932   2.122   1.914   2.609  0.2388 -0.1750 -0.4060
 3481TIP3   OH231933   0.061   3.127  16.308 -0.3334  0.0488 -0.0492
 3481TIP3    H131934  -0.017   3.122  16.363  0.6504  0.3266  1.3863
 3481TIP3    H231935   0.062   3.043  16.261  0.0642 -1.1440  2.0424
 3482TIP3   OH231936   2.683   1.986  14.130 -0.1364 -0.3143 -0.1835
 3482TIP3    H131937   2.611   1.945  14.082 -0.6034 -0.0475  0.2812
 3482TIP3    H231938   2.665   2.080  14.126 -2.2109 -0.4417  3.6324
 3483TIP3   OH231939   4.179   0.454   1.578  0.0602 -0.9410  0.8620
 3483TIP3    H131940   4.159   0.436   1.670 -1.0426 -0.8086  0.6591
 3483TIP3    H231941   4.104   0.419   1.530 -0.0314  0.2229  0.1244
 3484TIP3   OH231942   4.927   2.669   0.841  0.3567 -0.1001  0.2158
 3484TIP3    H131943   4.898   2.597   0.785 -0.0918 -0.0545  0.3851
 3484TIP3    H231944   4.846   2.705   0.876  0.5702  0.5931 -0.0014
 3485TIP3   OH231945   6.482   2.754  14.257 -0.4318  0.3154  0.0549
 3485TIP3    H131946   6.439   2.674  14.228  0.6619 -0.8426  1.5492
 3485TIP3    H231947   6.431   2.784  14.332  0.0954  0.1388  0.4846
 3486TIP3   OH231948   5.226   0.565  13.409  0.0766 -0.2582  0.5721
 3486TIP3    H131949   5.177   0.599  13.334  0.4438 -1.7046 -0.3545
 3486TIP3    H231950   5.162   0.560  13.479 -0.5145  0.1787  0.0643
 3487TIP3   OH231951   5.652   4.396   1.715  0.4147 -0.0777  0.5875
 3487TIP3    H131952   5.668   4.457   1.644 -0.5795 -0.5146 -0.0293
 3487TIP3    H231953   5.586   4.440   1.769  1.4607  0.4309  1.4798
 3488TIP3   OH231954   6.758   5.044  13.332 -0.0710 -0.2513 -1.2281
 3488TIP3    H131955   6.783   4.958  13.366  1.2905 -0.0482 -1.6994
 3488TIP3    H231956   6.798   5.048  13.245  0.7055  1.2459 -0.8132
 3489TIP3   OH231957   5.813   5.083   2.372  0.2556 -0.0482  0.1145
 3489TIP3    H131958   5.821   5.175   2.398 -1.0285  0.8373 -2.4718
 3489TIP3    H231959   5.787   5.038   2.453 -0.3138  2.0452  1.1372
 3490TIP3   OH231960   0.200   6.142  13.628  0.2571  0.2566  0.1247
 3490TIP3    H131961   0.244   6.227  13.635 -0.2682  0.4901  0.6759
 3490TIP3    H231962   0.108   6.164  13.618  0.2226 -0.2365 -0.6862
 3491TIP3   OH231963   4.897   5.782   6.601  0.0654  0.7320 -0.0786
 3491TIP3    H131964   4.983   5.772   6.641 -0.3147 -1.4276  0.2539
 3491TIP3    H231965   4.887   5.704   6.546 -1.8005  0.8110  0.1267
 3492TIP3   OH231966   3.532   3.403  10.577 -0.4061 -0.3200 -0.3470
 3492TIP3    H131967   3.556   3.311  10.587 -3.0591 -0.9632  0.6440
 3492TIP3    H231968   3.516   3.433  10.667  0.3723  1.1110 -0.6688
 3493TIP3   OH231969   3.388   2.576  13.179  0.8344 -0.0022  0.0486
 3493TIP3    H131970   3.482   2.559  13.171  1.0904  1.9476 -1.3439
 3493TIP3    H231971   3.363   2.534  13.261  2.8674 -0.7359  0.3234
 3494TIP3   OH231972   3.644   6.338  14.286  0.3995  0.2281 -0.1610
 3494TIP3    H131973   3.666   6.431  14.276 -1.4576  0.5149 -1.6485
 3494TIP3    H231974   3.676   6.316  14.374  0.5199  2.3639  0.3593
 3495TIP3   OH231975   4.690   0.430  13.845 -0.3669 -0.0329  0.4751
 3495TIP3    H131976   4.711   0.344  13.882  0.5751  0.0277  0.0900
 3495TIP3    H231977   4.693   0.489  13.920  1.3507  0.0551  0.3628
 3496TIP3   OH231978   4.409   2.744  15.713 -0.2139  0.5166  0.8752
 3496TIP3    H131979   4.464   2.817  15.684 -2.0208  1.2290 -0.9348
 3496TIP3    H231980   4.321   2.767  15.681 -0.6310 -2.9495 -0.7125
 3497TIP3   OH231981   3.968   5.275   3.138  0.1664 -0.5502  0.2496
 3497TIP3    H131982   3.924   5.190   3.139 -2.7333  0.8758  2.0861
 3497TIP3    H231983   4.006   5.284   3.225 -1.3916  0.8844  0.8213
 3498TIP3   OH231984   3.429   4.616  12.244  0.0871 -0.1313 -0.3091
 3498TIP3    H131985   3.479   4.563  12.181 -0.4656  0.3376 -1.1513
 3498TIP3    H231986   3.346   4.568  12.254  0.1853 -0.2230  0.1024
 3499TIP3   OH231987   3.870   6.097   5.437 -0.6250  0.1157  0.4669
 3499TIP3    H131988   3.785   6.113   5.396 -2.1755  0.8643  3.7933
 3499TIP3    H231989   3.894   6.181   5.476  1.5463 -0.1634 -0.2439
 3500TIP3   OH231990   0.929   5.969  15.046  0.2312 -0.6710  0.1811
 3500TIP3    H131991   0.964   6.050  15.084 -1.3498 -1.2742  3.1326
 3500TIP3    H231992   0.873   5.998  14.974  1.1046  0.7331  0.0489
 3501TIP3   OH231993   2.005   1.716   1.726 -0.3201 -0.4941 -0.0953
 3501TIP3    H131994   1.924   1.725   1.676 -0.3706  0.4849  0.1506
 3501TIP3    H231995   1.978   1.722   1.818 -0.1785 -1.8947  0.0565
 3502TIP3   OH231996   0.451   5.954   4.568 -0.0652  0.5368 -0.0478
 3502TIP3    H131997   0.508   5.999   4.631  2.7788 -0.8780 -1.4873
 3502TIP3    H231998   0.438   5.867   4.605 -2.6151  1.3465  1.0165
 3503TIP3   OH231999   3.871   6.439   0.550 -0.6987  0.1099 -0.5833
 3503TIP3    H132000   3.819   6.516   0.575  1.9819  1.8866 -0.2496
 3503TIP3    H232001   3.910   6.463   0.466  0.4721 -0.7426 -0.2860
 3504TIP3   OH232002   2.193   2.725  16.100  0.1910  0.6045  0.6031
 3504TIP3    H132003   2.207   2.666  16.174  0.1326 -1.9577 -1.3394
 3504TIP3    H232004   2.212   2.671  16.023 -1.5955  2.6279 -1.3288
 3505TIP3   OH232005   1.743   4.368  16.351 -0.1282  0.4015 -0.4906
 3505TIP3    H132006   1.691   4.327  16.420 -1.6469 -0.1800 -1.9600
 3505TIP3    H232007   1.684   4.372  16.276  1.6399  0.6422 -1.8805
 3506TIP3   OH232008   2.445   3.391  17.170  0.7257  0.6280  0.3431
 3506TIP3    H132009   2.494   3.368  17.090  1.1408 -3.0884  1.5436
 3506TIP3    H232010   2.368   3.334  17.167  0.1527  1.2942  1.9940
 3507TIP3   OH232011   1.984   5.889   0.213  0.1696  0.3196 -0.0855
 3507TIP3    H132012   1.944   5.954   0.272 -2.6913 -0.7584 -0.7370
 3507TIP3    H232013   1.975   5.927   0.126 -0.5799 -0.4912 -0.3640
 3508TIP3   OH232014   0.221   4.173   3.466  0.4980 -0.6722  0.3847
 3508TIP3    H132015   0.310   4.144   3.445  0.2461 -0.7276 -0.6366
 3508TIP3    H232016   0.164   4.115   3.415 -0.0845  0.1766  0.0518
 3509TIP3   OH232017   2.434   0.501   6.151  0.1740  0.8536 -0.6167
 3509TIP3    H132018   2.413   0.547   6.070 -0.9183 -1.2036 -1.5289
 3509TIP3    H232019   2.426   0.408   6.130 -3.3317  0.2927  2.6744
 3510TIP3   OH232020   0.233   3.750   5.309  0.7309  0.0067  0.2814
 3510TIP3    H132021   0.218   3.756   5.404  2.1402 -1.3753  0.6021
 3510TIP3    H232022   0.151   3.714   5.275  0.9961 -1.5690  1.2511
 3511TIP3   OH232023   3.684   5.618   0.618  0.4272  0.3199  0.2861
 3511TIP3    H132024   3.597   5.613   0.577 -0.7145 -0.7089  2.7821
 3511TIP3    H232025   3.703   5.529   0.645  1.6349  0.8096  1.0622
 3512TIP3   OH232026   3.174   2.597  14.209 -0.0326 -0.4136  0.3760
 3512TIP3    H132027   3.086   2.584  14.173  0.3618 -0.9014 -0.4256
 3512TIP3    H232028   3.184   2.527  14.273  0.8395 -2.1459 -1.5803
 3513TIP3   OH232029   5.295   2.581   2.196  0.0302  0.2094 -0.3186
 3513TIP3    H132030   5.363   2.571   2.129 -0.1184  1.6773 -0.6994
 3513TIP3    H232031   5.340   2.565   2.278  0.5199 -0.2567 -0.6719
 3514TIP3   OH232032   2.432   3.804  10.792 -0.3336 -0.5444  0.5838
 3514TIP3    H132033   2.422   3.824  10.885 -1.1088 -0.7950  0.5588
 3514TIP3    H232034   2.345   3.822  10.754  0.4946  1.4281 -0.4328
 3515TIP3   OH232035   3.319   1.929   4.820 -0.4251  0.1058  0.2925
 3515TIP3    H132036   3.294   1.840   4.794  0.0948 -0.1471  0.6315
 3515TIP3    H232037   3.353   1.969   4.740  1.1603 -0.6635  0.5504
 3516TIP3   OH232038   2.158   4.559   3.949 -0.0547 -0.0110  0.2998
 3516TIP3    H132039   2.198   4.602   4.025 -0.1478 -0.5230  0.6417
 3516TIP3    H232040   2.077   4.522   3.983 -0.9109  1.1545 -0.4291
 3517TIP3   OH232041   1.119   4.393   5.610  0.5868 -0.7050 -0.1716
 3517TIP3    H132042   1.146   4.423   5.696  1.2750 -1.4507 -0.1164
 3517TIP3    H232043   1.040   4.442   5.590  0.1455 -0.8916  1.0958
 3518TIP3   OH232044   1.640   3.535  14.979 -0.2821  0.1423  0.2193
 3518TIP3    H132045   1.561   3.589  14.967 -0.3816  0.3850  1.9421
 3518TIP3    H232046   1.619   3.452  14.936 -1.5766  0.1151  0.8961
 3519TIP3   OH232047   6.778   4.073  12.053 -0.6141  0.2229  0.2703
 3519TIP3    H132048   6.710   4.125  12.095 -1.7138 -0.4812 -0.6118
 3519TIP3    H232049   6.856   4.088  12.106 -0.8798  2.8161 -0.0020
 3520TIP3   OH232050   6.819   4.475  16.766 -0.7777 -0.0225 -0.9573
 3520TIP3    H132051   6.869   4.557  16.766 -0.1674 -0.3840 -1.7745
 3520TIP3    H232052   6.746   4.491  16.825  0.4223  0.4537  0.4127
 3521TIP3   OH232053   2.791   6.609   1.771 -0.6579 -0.3105  0.0483
 3521TIP3    H132054   2.853   6.603   1.698 -1.5068  0.6892 -0.7596
 3521TIP3    H232055   2.765   6.518   1.788 -1.4095 -0.4283 -1.7137
 3522TIP3   OH232056   0.448   2.719   0.482 -0.6151  0.3010  0.5189
 3522TIP3    H132057   0.528   2.746   0.527 -0.2895  0.1761  0.0110
 3522TIP3    H232058   0.394   2.680   0.551  1.1611 -2.7769  0.2676
 3523TIP3   OH232059   1.176   6.653  12.067  0.2185 -0.1265  0.0344
 3523TIP3    H132060   1.267   6.681  12.076  0.1924  0.7587 -2.1275
 3523TIP3    H232061   1.137   6.717  12.007 -0.9808 -2.3548 -1.6602
 3524TIP3   OH232062   1.111   6.766   2.350  0.5508  0.0446  0.2724
 3524TIP3    H132063   1.184   6.704   2.357  1.7314  1.3426 -0.3296
 3524TIP3    H232064   1.114   6.796   2.259 -2.9179 -2.4848 -0.7671
 3525TIP3   OH232065   3.136   5.347  15.620 -0.0920 -0.2260 -0.3846
 3525TIP3    H132066   3.144   5.289  15.696 -0.4907 -0.0209 -0.1864
 3525TIP3    H232067   3.190   5.305  15.552  1.1369  0.1627  0.3436
 3526TIP3   OH232068   2.986   5.582   3.879 -0.4949 -0.2641 -0.1215
 3526TIP3    H132069   2.961   5.549   3.792 -2.6966  0.3553  0.2486
 3526TIP3    H232070   2.963   5.675   3.876  0.7699  0.0769  0.6333
 3527TIP3   OH232071   3.781   0.850   3.431  0.1603  0.1156  0.2398
 3527TIP3    H132072   3.687   0.858   3.447 -0.1256 -0.7993 -0.9329
 3527TIP3    H232073   3.808   0.938   3.402 -0.1336  0.6424  1.5530
 3528TIP3   OH232074   5.652   5.462   4.508 -0.2250  0.5670  0.7080
 3528TIP3    H132075   5.623   5.553   4.517  1.0099  1.1723 -1.1207
 3528TIP3    H232076   5.581   5.419   4.460 -0.9883  0.4553  1.9184
 3529TIP3   OH232077   5.029   4.208   0.539  0.2195  0.0314 -0.0418
 3529TIP3    H132078   5.080   4.250   0.609 -0.3666  0.3753  0.1853
 3529TIP3    H232079   4.944   4.252   0.543 -0.4134 -1.2079  0.2260
 3530TIP3   OH232080   4.946   1.852   3.405  0.0596 -0.0274 -0.1148
 3530TIP3    H132081   4.908   1.764   3.414  1.0398 -0.2183  2.9349
 3530TIP3    H232082   5.041   1.837   3.405  0.2351  1.0118  0.3557
 3531TIP3   OH232083   3.063   0.109  13.798  0.9337 -0.7165  0.5071
 3531TIP3    H132084   3.024   0.080  13.715  0.3127  1.9132 -0.1501
 3531TIP3    H232085   3.156   0.086  13.789  1.0609  0.4397 -1.3353
 3532TIP3   OH232086   2.609   4.427   4.408 -0.3002  0.0059  0.9202
 3532TIP3    H132087   2.626   4.341   4.368 -0.3306 -0.1308  1.1979
 3532TIP3    H232088   2.695   4.464   4.425 -0.2861 -0.2017  1.2950
 3533TIP3   OH232089   2.047   3.715  14.458  0.0783 -0.5550  0.3941
 3533TIP3    H132090   2.064   3.623  14.441  1.0466 -0.3074  0.0201
 3533TIP3    H232091   2.119   3.743  14.514 -1.9926 -0.8516  3.3150
 3534TIP3   OH232092   0.644   3.878  12.624 -0.2731  0.3175  0.6174
 3534TIP3    H132093   0.652   3.870  12.529  0.5012  2.8142  0.4416
 3534TIP3    H232094   0.725   3.919  12.653  0.4614 -2.3736  2.6852
 3535TIP3   OH232095   5.930   1.357  17.207  0.0396 -0.4988 -0.0238
 3535TIP3    H132096   5.946   1.417  17.134 -1.8143  0.4488  0.3419
 3535TIP3    H232097   5.973   1.398  17.282 -0.3605 -0.1410  0.0080
 3536TIP3   OH232098   5.634   3.531   3.722 -0.8213  0.0791  0.1325
 3536TIP3    H132099   5.686   3.452   3.709  0.0315  0.6717 -0.1088
 3536TIP3    H232100   5.547   3.509   3.689 -0.1890 -0.2629 -1.3247
 3537TIP3   OH232101   5.016   3.016  14.731 -0.0538 -0.2298 -0.5105
 3537TIP3    H132102   5.019   3.027  14.826  1.2263 -0.0659 -0.5613
 3537TIP3    H232103   5.033   2.923  14.716  0.4201 -0.1309 -0.6042
 3538TIP3   OH232104   5.831   3.895  17.036  0.3878  0.5390  0.4872
 3538TIP3    H132105   5.753   3.941  17.006 -0.3347 -1.1642 -0.2992
 3538TIP3    H232106   5.904   3.953  17.012 -0.2996  0.0110 -3.0773
 3539TIP3   OH232107   1.381   0.212  12.330 -0.1696  0.2778 -0.9702
 3539TIP3    H132108   1.442   0.283  12.309 -0.5366  0.8761 -0.0310
 3539TIP3    H232109   1.436   0.134  12.335  0.7371  1.0270  1.1951
 3540TIP3   OH232110   6.000   0.056   4.420  0.0862 -0.0621  0.1596
 3540TIP3    H132111   5.957  -0.029   4.416 -0.7149  0.2662  1.4686
 3540TIP3    H232112   5.976   0.100   4.338 -1.0759 -0.3512  0.3402
 3541TIP3   OH232113   1.654   3.984  12.246  0.1906  0.6146 -0.1638
 3541TIP3    H132114   1.677   4.076  12.260 -0.0499  0.4384  1.5865
 3541TIP3    H232115   1.571   3.986  12.199 -0.3526  1.3192  0.8104
 3542TIP3   OH232116   2.603   0.231   3.934 -0.2335 -0.6036 -0.4105
 3542TIP3    H132117   2.672   0.263   3.875  0.0252 -0.4055  0.0014
 3542TIP3    H232118   2.525   0.228   3.879  0.0303 -0.5186 -0.7944
 3543TIP3   OH232119   6.314   5.858  15.960  0.1426  0.4331 -0.2010
 3543TIP3    H132120   6.269   5.790  16.010  0.8680  0.9397  1.1547
 3543TIP3    H232121   6.269   5.939  15.982  0.8811  0.7518  0.1454
 3544TIP3   OH232122   5.836   4.761  16.842  0.6700 -0.0834 -0.3001
 3544TIP3    H132123   5.930   4.755  16.860  0.7033 -2.0028 -1.0470
 3544TIP3    H232124   5.830   4.780  16.749  0.3176  0.8966 -0.0858
 3545TIP3   OH232125   3.610   1.873   5.322 -0.0464 -0.0359 -0.1534
 3545TIP3    H132126   3.538   1.917   5.279 -1.7264 -0.3912  2.1957
 3545TIP3    H232127   3.634   1.802   5.262 -1.6547  0.0799 -0.9540
 3546TIP3   OH232128   2.956   4.458  14.023  0.5929 -0.0172 -0.1081
 3546TIP3    H132129   2.932   4.505  14.103  0.5744 -0.6026  0.2281
 3546TIP3    H232130   2.925   4.514  13.952  2.1396  1.3435  0.2648
 3547TIP3   OH232131   6.239   3.686   2.709 -0.5950  0.0773  0.0332
 3547TIP3    H132132   6.253   3.592   2.718  1.9548  0.5725  1.7666
 3547TIP3    H232133   6.193   3.711   2.789 -1.2497  0.3067 -0.4148
 3548TIP3   OH232134   5.231   1.904  13.048 -0.0168 -0.4258 -0.4253
 3548TIP3    H132135   5.148   1.893  13.003  0.7821  0.7394 -2.2561
 3548TIP3    H232136   5.238   1.999  13.062  0.1149 -0.6953  1.4823
 3549TIP3   OH232137   5.749   2.741  13.612 -0.4200  0.3842 -0.5693
 3549TIP3    H132138   5.813   2.782  13.554 -0.0020  1.6503  0.7603
 3549TIP3    H232139   5.740   2.802  13.686  0.8090 -2.2702  1.8495
 3550TIP3   OH232140   1.490   4.460   2.101  0.1696 -0.8315 -0.2684
 3550TIP3    H132141   1.515   4.553   2.102  2.2453 -1.3802  1.5247
 3550TIP3    H232142   1.500   4.434   2.009  0.3284  0.5136 -0.6447
 3551TIP3   OH232143   4.424   3.899  13.549  0.2461  0.1299  0.2958
 3551TIP3    H132144   4.432   3.855  13.633  0.0399  0.1031  0.3022
 3551TIP3    H232145   4.511   3.936  13.533 -0.3335  2.1433  1.6450
 3552TIP3   OH232146   1.868   4.534   0.015  0.4089  0.2817 -0.4761
 3552TIP3    H132147   1.885   4.618  -0.028  0.0577  0.5324 -0.1285
 3552TIP3    H232148   1.946   4.518   0.067 -0.1365  1.1323  0.6388
 3553TIP3   OH232149   4.173   2.549  15.290 -0.3475 -0.0021 -0.4441
 3553TIP3    H132150   4.260   2.578  15.319  0.1372  0.1492 -2.0246
 3553TIP3    H232151   4.117   2.565  15.366  1.1849 -1.0351  0.9719
 3554TIP3   OH232152   1.857   3.564   0.344 -0.3414 -0.8827 -0.1197
 3554TIP3    H132153   1.932   3.600   0.297  0.4535 -3.3970 -0.8887
 3554TIP3    H232154   1.787   3.561   0.279 -0.1216 -1.6004 -0.3267
 3555TIP3   OH232155   6.691   6.722  13.984  0.4443 -0.0927 -0.3680
 3555TIP3    H132156   6.681   6.691  13.893 -0.4934  0.5812 -0.4940
 3555TIP3    H232157   6.612   6.692  14.028  0.0480  1.1434 -0.2175
 3556TIP3   OH232158   0.393   0.966   3.762  0.0302 -0.1378 -0.2166
 3556TIP3    H132159   0.340   1.013   3.826 -2.0275 -1.2824 -1.0150
 3556TIP3    H232160   0.458   0.920   3.814 -1.6934 -1.1506  1.1167
 3557TIP3   OH232161   5.571   2.143  16.951  0.0899 -0.1007  0.2561
 3557TIP3    H132162   5.535   2.223  16.914  0.2053  0.5438  1.5414
 3557TIP3    H232163   5.659   2.137  16.912 -0.4147 -0.3381 -0.8880
 3558TIP3   OH232164   2.648   2.555  17.193 -0.0319 -0.2234  0.2866
 3558TIP3    H132165   2.716   2.573  17.127  0.4925 -1.5388  0.4614
 3558TIP3    H232166   2.660   2.624  17.258 -0.4890  1.0329 -0.9427
 3559TIP3   OH232167   5.922   3.312  15.179  0.0043  0.2645 -0.1782
 3559TIP3    H132168   5.979   3.236  15.180  1.0769  0.9970  3.0685
 3559TIP3    H232169   5.843   3.283  15.225  0.8565  1.3253  2.0671
 3560TIP3   OH232170   0.828   1.846   5.937 -0.9851 -0.3934  0.1318
 3560TIP3    H132171   0.911   1.865   5.894 -1.4106  1.5422  0.1233
 3560TIP3    H232172   0.840   1.759   5.975  1.2252  0.0622  0.5508
 3561TIP3   OH232173   0.043   0.589   0.439  0.0236 -0.4704 -0.2794
 3561TIP3    H132174   0.041   0.682   0.461  2.1113 -0.0970 -1.5466
 3561TIP3    H232175   0.112   0.553   0.494  0.0745 -1.0179 -0.7010
 3562TIP3   OH232176   2.638   3.185  13.532  0.6709 -0.3077  0.1719
 3562TIP3    H132177   2.683   3.239  13.466 -1.6597  1.0843 -0.3376
 3562TIP3    H232178   2.624   3.244  13.605 -0.9652 -0.5026  0.0299
 3563TIP3   OH232179   2.104   6.389   1.878 -0.2414 -0.1333 -0.1425
 3563TIP3    H132180   2.059   6.323   1.931 -2.2752  0.3883 -1.1529
 3563TIP3    H232181   2.083   6.472   1.922  0.1623  0.0664 -0.3267
 3564TIP3   OH232182   2.218   4.555  12.748  0.0367 -0.2856  0.7482
 3564TIP3    H132183   2.261   4.471  12.768 -0.7041 -0.8870 -0.1431
 3564TIP3    H232184   2.281   4.621  12.776  1.6260 -1.1646 -0.6619
 3565TIP3   OH232185   1.268   2.380  16.753  0.3683  0.2093  0.2732
 3565TIP3    H132186   1.244   2.473  16.753 -1.4325 -0.2442  1.3417
 3565TIP3    H232187   1.292   2.362  16.662 -2.0211  1.0393 -0.5544
 3566TIP3   OH232188   0.355   5.145   5.568  0.2372 -0.6184 -0.4826
 3566TIP3    H132189   0.333   5.059   5.533 -0.9187 -0.2786 -0.6365
 3566TIP3    H232190   0.373   5.198   5.490  0.8819 -0.7051 -0.3917
 3567TIP3   OH232191   2.604   4.490  12.790  0.0503  0.3285 -0.2723
 3567TIP3    H132192   2.560   4.419  12.744 -1.3521  0.8180  0.2751
 3567TIP3    H232193   2.628   4.452  12.874 -0.4033  0.3930 -0.1091
 3568TIP3   OH232194   6.764   1.686  12.134  0.2348 -0.1701  0.1475
 3568TIP3    H132195   6.755   1.596  12.101 -0.7061  0.2171 -0.6491
 3568TIP3    H232196   6.858   1.703  12.132  0.1874 -0.0428 -2.6321
 3569TIP3   OH232197   0.135   3.644   3.551 -0.1028  0.1354  0.0991
 3569TIP3    H132198   0.106   3.553   3.553  1.2824 -0.3125  0.1863
 3569TIP3    H232199   0.169   3.661   3.638 -1.1731  1.0213  0.3601
 3570TIP3   OH232200   6.600   0.692  11.813  0.0665 -0.4258  0.0281
 3570TIP3    H132201   6.568   0.607  11.783 -0.9069 -0.6315  1.5876
 3570TIP3    H232202   6.575   0.753  11.744  2.1101 -1.6019 -1.8323
 3571TIP3   OH232203   3.761   3.366  15.503 -0.0770 -0.5196  0.0394
 3571TIP3    H132204   3.839   3.380  15.449  1.3422 -3.9018  1.1022
 3571TIP3    H232205   3.727   3.282  15.475 -3.0425  0.6488  0.0266
 3572TIP3   OH232206   1.311   5.766   2.065  0.1639  0.1485  0.0969
 3572TIP3    H132207   1.240   5.816   2.104  0.6539  1.5074 -0.7300
 3572TIP3    H232208   1.268   5.706   2.004 -0.3041  0.6432 -0.0597
 3573TIP3   OH232209   6.500   5.118   4.110 -0.2084 -0.0213 -0.2075
 3573TIP3    H132210   6.511   5.210   4.086 -0.2369 -0.3992 -1.7035
 3573TIP3    H232211   6.464   5.077   4.032  0.3975 -1.4336  0.2494
 3574TIP3   OH232212   5.354   6.427  15.874 -0.4819 -0.5007  0.0397
 3574TIP3    H132213   5.287   6.360  15.886 -0.6772 -0.3756 -0.3165
 3574TIP3    H232214   5.381   6.418  15.782 -1.2579  0.5883 -0.3124
 3575TIP3   OH232215   4.756   2.107  14.894 -0.0530  0.1633 -0.0040
 3575TIP3    H132216   4.822   2.175  14.883 -0.9214  1.0160 -0.0763
 3575TIP3    H232217   4.701   2.139  14.966 -0.0874 -0.7720  0.3872
 3576TIP3   OH232218   2.835   6.045  11.407  0.6725  0.0243  0.2702
 3576TIP3    H132219   2.880   5.981  11.352  3.1868  1.3850  0.6860
 3576TIP3    H232220   2.860   6.023  11.496  0.5523  0.8180  0.5051
 3577TIP3   OH232221   2.288   6.511   3.554 -0.0814  0.4612 -0.3863
 3577TIP3    H132222   2.209   6.558   3.580 -1.0190 -1.3491  0.0746
 3577TIP3    H232223   2.300   6.534   3.462 -1.9352 -0.3344 -0.8528
 3578TIP3   OH232224   2.639   3.982   4.301  0.7644  0.0105  0.8263
 3578TIP3    H132225   2.584   4.032   4.361  0.2775 -0.0152  0.4083
 3578TIP3    H232226   2.616   3.890   4.319 -0.4486  0.0547 -0.3919
 3579TIP3   OH232227   1.337   1.914  11.584 -0.0161  0.4749  0.3483
 3579TIP3    H132228   1.300   1.829  11.606 -0.4448  0.3890 -0.6852
 3579TIP3    H232229   1.413   1.923  11.642  1.5482 -1.7254 -1.2549
 3580TIP3   OH232230   4.386   4.068  14.681  0.0393 -0.0005  0.3857
 3580TIP3    H132231   4.353   4.003  14.619  1.7462 -0.8022  0.2797
 3580TIP3    H232232   4.390   4.020  14.764 -0.5397  0.5434  0.7288
 3581TIP3   OH232233   4.567   5.472  14.940 -0.6749 -0.6740  0.3771
 3581TIP3    H132234   4.481   5.507  14.966 -0.0395  1.1431  0.1292
 3581TIP3    H232235   4.629   5.539  14.969  0.4676 -0.9457 -1.4008
 3582TIP3   OH232236   3.519   2.650   5.465  0.1875 -0.0158  0.1883
 3582TIP3    H132237   3.560   2.647   5.379  1.0597 -1.5133  0.6397
 3582TIP3    H232238   3.518   2.743   5.488  1.3048  0.2533 -0.7932
 3583TIP3   OH232239   2.804   5.212   1.778 -0.0153  0.4201  0.7514
 3583TIP3    H132240   2.748   5.238   1.852 -0.5768  0.9011  0.1680
 3583TIP3    H232241   2.814   5.292   1.727  0.7070  0.1828  0.5173
 3584TIP3   OH232242   6.537   5.261   6.732 -0.0498  0.5945 -0.4330
 3584TIP3    H132243   6.574   5.174   6.748 -0.4912  0.5762  0.4816
 3584TIP3    H232244   6.444   5.245   6.716 -0.2490  0.9670  0.3561
 3585TIP3   OH232245   1.635   1.882   5.055 -0.4510 -0.1639  0.1546
 3585TIP3    H132246   1.653   1.879   4.961 -4.5161 -0.6845 -0.6921
 3585TIP3    H232247   1.617   1.791   5.079 -0.8180  0.1532  1.1156
 3586TIP3   OH232248   0.148   2.374   1.788 -0.8840  0.7076  0.2016
 3586TIP3    H132249   0.210   2.349   1.856 -0.8656  2.4464  0.8374
 3586TIP3    H232250   0.182   2.457   1.754 -0.5812 -0.3977 -2.3093
 3587TIP3   OH232251   1.412   3.302  16.002  0.1626  0.1730 -0.0089
 3587TIP3    H132252   1.471   3.247  15.950  1.5362  1.6518 -0.0620
 3587TIP3    H232253   1.346   3.332  15.939 -1.1492 -2.1216  0.2174
 3588TIP3   OH232254   5.034   0.887  16.420  0.2183  0.3912  0.3692
 3588TIP3    H132255   5.077   0.954  16.473  1.2001  0.8733 -1.0177
 3588TIP3    H232256   5.037   0.921  16.331 -0.4968 -0.8802 -0.1539
 3589TIP3   OH232257   3.717   6.713  12.818  0.2635 -0.4817  0.2311
 3589TIP3    H132258   3.677   6.629  12.796 -1.8951  0.9426 -1.5505
 3589TIP3    H232259   3.731   6.755  12.734  2.9398  0.2649  1.0064
 3590TIP3   OH232260   2.298   5.799  17.290 -0.1889 -0.4909  0.2046
 3590TIP3    H132261   2.283   5.707  17.309  1.6586 -1.3013 -2.0616
 3590TIP3    H232262   2.339   5.833  17.370 -1.5347 -1.4332  1.3191
 3591TIP3   OH232263   2.276   5.490   3.641  0.0395  1.6970  0.2134
 3591TIP3    H132264   2.333   5.415   3.659 -1.6605  0.7905  2.0015
 3591TIP3    H232265   2.328   5.566   3.666  2.0965  1.2240 -2.3869
 3592TIP3   OH232266   1.963   3.059  15.213  0.2428  0.2608  0.4291
 3592TIP3    H132267   1.919   3.000  15.275 -0.9768  0.0435 -0.6020
 3592TIP3    H232268   1.891   3.097  15.163  1.0886  1.9571  0.4809
 3593TIP3   OH232269   3.071   3.080   5.549 -0.5469 -0.1768  0.0948
 3593TIP3    H132270   2.977   3.096   5.540 -0.0834  3.2502  0.6813
 3593TIP3    H232271   3.103   3.153   5.601  2.3339 -1.7548  0.6407
 3594TIP3   OH232272   3.058   5.964   6.471  0.2521 -0.1366 -0.3243
 3594TIP3    H132273   2.999   5.936   6.401  1.1869  0.3403 -1.3133
 3594TIP3    H232274   3.003   5.964   6.550 -0.3862 -2.3728 -0.7234
 3595TIP3   OH232275   4.523   5.803  13.661  0.0212  1.0012 -0.4726
 3595TIP3    H132276   4.508   5.881  13.608  1.8381 -0.4251 -3.2017
 3595TIP3    H232277   4.552   5.737  13.599  2.1287 -0.7886  2.2789
 3596TIP3   OH232278   4.254   6.272  15.471  0.6687 -0.8927  0.3747
 3596TIP3    H132279   4.230   6.304  15.558  1.3801 -1.4731  0.7867
 3596TIP3    H232280   4.253   6.350  15.416  0.3140 -0.5069  0.9189
 3597TIP3   OH232281   5.613   0.222   5.329  0.2073 -0.7992 -0.1011
 3597TIP3    H132282   5.657   0.155   5.380  0.1847 -1.2121 -0.6257
 3597TIP3    H232283   5.670   0.299   5.337  0.1356 -0.8189  0.6543
 3598TIP3   OH232284   3.756   5.742  15.429  0.1308 -0.3574 -0.0563
 3598TIP3    H132285   3.735   5.657  15.467 -0.5290 -0.0442  0.2840
 3598TIP3    H232286   3.819   5.781  15.490 -0.7320  0.0386  0.5825
 3599TIP3   OH232287   2.678   3.642   5.492 -0.5878  0.7503 -0.1416
 3599TIP3    H132288   2.671   3.658   5.586 -2.3383 -0.9093  0.0417
 3599TIP3    H232289   2.601   3.685   5.454 -1.3428 -0.8697 -0.4813
 3600TIP3   OH232290   3.951   4.498   5.803 -0.0243  0.1148  0.0006
 3600TIP3    H132291   3.968   4.496   5.709  1.6811  1.0524  0.2731
 3600TIP3    H232292   3.976   4.586   5.830 -1.2594  0.1199  1.2112
 3601TIP3   OH232293   0.702   2.145  14.391  0.2068 -0.0110  0.4642
 3601TIP3    H132294   0.633   2.136  14.457 -2.0894  2.3192 -1.5455
 3601TIP3    H232295   0.656   2.145  14.307  2.6523  1.5233 -0.9347
 3602TIP3   OH232296   4.641   3.057   2.368  0.8359 -0.0757  0.2374
 3602TIP3    H132297   4.585   3.134   2.373 -1.1193 -1.4358 -0.4097
 3602TIP3    H232298   4.728   3.092   2.346 -0.3953  1.7718 -1.8221
 3603TIP3   OH232299   3.483   2.719  13.766 -0.1391  0.4437 -0.2811
 3603TIP3    H132300   3.417   2.705  13.834 -0.2779  0.6032 -0.3815
 3603TIP3    H232301   3.435   2.763  13.696  0.8561  3.7967  1.0594
 3604TIP3   OH232302   6.795   4.790   1.580  0.6010 -0.9245  0.4885
 3604TIP3    H132303   6.825   4.743   1.502  0.8676 -0.4156  0.2869
 3604TIP3    H232304   6.857   4.862   1.590  1.1508 -1.5701  1.7412
 3605TIP3   OH232305   1.628   5.812   3.910 -0.1440 -0.4591  0.0724
 3605TIP3    H132306   1.711   5.844   3.944 -1.1780  2.5168 -0.0539
 3605TIP3    H232307   1.635   5.824   3.815 -0.6982 -0.2768  0.0557
 3606TIP3   OH232308   3.805   0.635  13.034  0.4418 -0.8246 -0.7585
 3606TIP3    H132309   3.861   0.702  12.993 -0.0779 -0.1664 -0.4043
 3606TIP3    H232310   3.751   0.684  13.097  0.3647 -1.6421 -0.1765
 3607TIP3   OH232311   2.288   3.230  16.253  0.5358  0.6784 -0.0554
 3607TIP3    H132312   2.276   3.135  16.247 -0.5205  0.8380 -0.7362
 3607TIP3    H232313   2.380   3.245  16.232  0.8125 -0.2387  0.5285
 3608TIP3   OH232314   3.839   3.391  14.634  0.4228 -0.1618 -0.4306
 3608TIP3    H132315   3.879   3.470  14.599  1.4199 -0.4316  0.1047
 3608TIP3    H232316   3.863   3.390  14.726 -0.8027 -0.3383 -0.0954
 3609TIP3   OH232317   2.250   4.149  11.044 -0.5504  0.2525 -0.7683
 3609TIP3    H132318   2.184   4.099  10.996  0.2494  1.4004 -3.1632
 3609TIP3    H232319   2.318   4.085  11.066 -1.2544 -0.4235 -0.5763
 3610TIP3   OH232320   1.110   0.859  13.346  0.1853 -0.1494  0.3038
 3610TIP3    H132321   1.099   0.764  13.341  0.1925 -0.0584 -1.9744
 3610TIP3    H232322   1.029   0.894  13.308  0.1633  0.7623  1.1753
 3611TIP3   OH232323   5.763   6.540  16.636 -0.9552  0.6276 -0.2456
 3611TIP3    H132324   5.669   6.533  16.620 -0.6440  1.6636 -2.5862
 3611TIP3    H232325   5.784   6.632  16.623  0.4662  0.3542 -0.0545
 3612TIP3   OH232326   1.335   5.078   5.128 -0.3799  0.0891  0.8370
 3612TIP3    H132327   1.242   5.097   5.131 -0.2999  0.8343 -0.8575
 3612TIP3    H232328   1.358   5.082   5.035  1.2500 -0.4916  1.1880
 3613TIP3   OH232329   1.533   2.621  13.704  0.7115  0.7123 -0.5830
 3613TIP3    H132330   1.599   2.685  13.678  1.0332  0.8795  0.6134
 3613TIP3    H232331   1.535   2.621  13.800  0.0870 -0.4362 -0.5523
 3614TIP3   OH232332   5.915   2.391  16.467  0.2158  0.2419  0.1519
 3614TIP3    H132333   5.864   2.459  16.510  1.2055  0.5846  0.8006
 3614TIP3    H232334   5.976   2.438  16.410 -0.1754 -0.1619 -0.6113
 3615TIP3   OH232335   2.612   5.904   1.826 -0.1912  0.5992  0.3259
 3615TIP3    H132336   2.696   5.862   1.844  1.2097  2.6388 -1.2242
 3615TIP3    H232337   2.598   5.890   1.732 -1.6892  0.1258  0.6048
 3616TIP3   OH232338   1.090   0.267   2.200  0.4992 -0.2749 -0.8129
 3616TIP3    H132339   1.055   0.347   2.237 -0.9821 -1.1391 -0.2989
 3616TIP3    H232340   1.185   0.280   2.198  0.5787 -0.0151  2.7937
 3617TIP3   OH232341   2.199   0.530  13.178  0.3221  0.6072 -0.2370
 3617TIP3    H132342   2.257   0.520  13.102  1.1743  1.9162  0.2313
 3617TIP3    H232343   2.186   0.441  13.210  3.0426  0.4075  0.3599
 3618TIP3   OH232344   0.896   5.455   5.196  0.2124  0.4576  0.2607
 3618TIP3    H132345   0.815   5.429   5.151  0.1814  1.0985 -0.0480
 3618TIP3    H232346   0.876   5.540   5.234  1.3850  1.5213 -1.4664
 3619TIP3   OH232347   4.816   5.885  13.367  0.3111  0.6695 -0.0983
 3619TIP3    H132348   4.830   5.930  13.451 -0.0843 -0.6619  0.6835
 3619TIP3    H232349   4.766   5.807  13.389  0.3175  0.2339 -1.5688
 3620TIP3   OH232350   5.684   4.610   1.169  0.0717  0.4153 -0.0891
 3620TIP3    H132351   5.760   4.643   1.120 -0.6628  2.9527  0.4306
 3620TIP3    H232352   5.659   4.530   1.122  2.4817  0.0289 -0.8164
 3621TIP3   OH232353   0.956   3.777   2.273 -0.0245 -0.3414  0.3413
 3621TIP3    H132354   1.037   3.819   2.245 -1.0906  1.9763  0.6505
 3621TIP3    H232355   0.921   3.737   2.193  0.3779  0.4193 -0.2193
 3622TIP3   OH232356   2.680   0.421  14.996 -0.2501  0.4242  0.3361
 3622TIP3    H132357   2.691   0.328  14.978 -1.2720  0.4821 -0.6425
 3622TIP3    H232358   2.586   0.435  14.997 -0.1181  1.3769  0.8809
 3623TIP3   OH232359   1.995   3.558  12.725  0.0494 -0.1330  0.3619
 3623TIP3    H132360   2.062   3.544  12.658 -0.4413  1.2303 -0.4315
 3623TIP3    H232361   1.912   3.538  12.681 -0.0996 -1.5749  1.2670
 3624TIP3   OH232362   3.040   4.019  16.326 -0.2186 -0.1468  0.1436
 3624TIP3    H132363   3.096   4.056  16.259 -0.4539 -1.4891 -0.8189
 3624TIP3    H232364   3.062   4.068  16.406  0.7295  0.8159 -0.6948
 3625TIP3   OH232365   6.219   0.738   0.002  0.3960 -0.2859 -0.1521
 3625TIP3    H132366   6.287   0.806   0.005 -2.7254  2.9235  0.7432
 3625TIP3    H232367   6.211   0.717  -0.091 -1.8385  4.0945 -1.0811
 3626TIP3   OH232368   6.008   4.658  14.718 -0.0575 -0.8758 -0.0809
 3626TIP3    H132369   5.931   4.627  14.669  1.1255 -0.5307 -2.2256
 3626TIP3    H232370   6.045   4.579  14.758 -0.6470 -1.2662 -0.3076
 3627TIP3   OH232371   0.462   3.651  10.626  0.4454 -0.3944 -0.0051
 3627TIP3    H132372   0.516   3.573  10.617  1.3120 -0.4143  4.2881
 3627TIP3    H232373   0.423   3.643  10.713  0.5425  3.9256  0.5448
 3628TIP3   OH232374   5.713   3.114   5.034 -0.4106  0.0884  0.5271
 3628TIP3    H132375   5.758   3.175   5.092 -0.6639  0.0090  0.8085
 3628TIP3    H232376   5.622   3.143   5.035 -0.5268 -0.2817  0.6447
 3629TIP3   OH232377   2.701   5.495   4.408 -0.4451  0.1497 -0.0468
 3629TIP3    H132378   2.707   5.580   4.365 -1.6286 -0.1528 -0.8161
 3629TIP3    H232379   2.755   5.437   4.354 -0.6099  0.1332 -0.1913
 3630TIP3   OH232380   0.667   4.106   5.616  0.1364 -0.3128  0.6519
 3630TIP3    H132381   0.715   4.148   5.687  1.1169  0.1425 -0.2742
 3630TIP3    H232382   0.696   4.014   5.619  0.7121 -0.1415  0.3940
 3631TIP3   OH232383   5.980   3.325  12.084  0.4200  0.5871  0.0044
 3631TIP3    H132384   6.021   3.369  12.158  0.2559  0.6439  0.0622
 3631TIP3    H232385   6.048   3.323  12.017  0.6775  0.2299  0.2766
 3632TIP3   OH232386   1.911   3.627   0.928  0.5135  0.3965  0.0810
 3632TIP3    H132387   1.932   3.606   1.019 -1.2152  0.1961  0.4627
 3632TIP3    H232388   1.979   3.583   0.877  1.1096 -0.0647  1.2523
 3633TIP3   OH232389   6.180   0.463  13.647  0.3143 -0.6179  0.0475
 3633TIP3    H132390   6.162   0.554  13.673  1.2868 -0.1830 -0.7656
 3633TIP3    H232391   6.276   0.458  13.643  0.2284 -0.7137 -3.1930
 3634TIP3   OH232392   6.144   0.584   4.123  0.2020  0.0656  0.2035
 3634TIP3    H132393   6.139   0.600   4.028  0.1239  0.0395  0.2033
 3634TIP3    H232394   6.053   0.575   4.151  0.1468  1.7663  0.5769
 3635TIP3   OH232395   6.005   6.465   4.261 -0.0694 -0.2094  0.0072
 3635TIP3    H132396   5.977   6.511   4.341  0.6827  0.0503  0.1235
 3635TIP3    H232397   5.929   6.470   4.203 -0.9744 -1.2592  1.0706
 3636TIP3   OH232398   4.570   2.640  12.941  0.2489  0.0380  0.1471
 3636TIP3    H132399   4.627   2.699  12.892 -0.1695  0.1635 -0.1870
 3636TIP3    H232400   4.608   2.553  12.928  1.7303  0.4024  1.8574
 3637TIP3   OH232401   5.371   5.348   6.502 -0.0451 -0.0675  0.0746
 3637TIP3    H132402   5.464   5.347   6.521  0.6961  2.8218 -3.0384
 3637TIP3    H232403   5.338   5.426   6.547 -0.3816  0.5131 -1.1574
 3638TIP3   OH232404   2.144   1.640  12.679 -0.4757  0.5341 -0.0950
 3638TIP3    H132405   2.086   1.685  12.618 -0.8872 -1.8579 -1.5341
 3638TIP3    H232406   2.087   1.576  12.723  0.5167 -0.0510  0.3510
 3639TIP3   OH232407   4.732   6.127  17.041  0.1915 -0.6937 -0.6123
 3639TIP3    H132408   4.671   6.200  17.053  0.4035 -0.8404  1.5630
 3639TIP3    H232409   4.701   6.083  16.961 -1.4900  0.2455 -0.5118
 3640TIP3   OH232410   1.789   2.723  16.918 -0.5675 -0.0820  0.0511
 3640TIP3    H132411   1.782   2.783  16.992 -0.0511  0.2269 -0.1439
 3640TIP3    H232412   1.865   2.668  16.939 -1.1414 -0.7869  0.3117
 3641TIP3   OH232413   3.676   6.143  12.461  0.4785  0.3873 -0.2757
 3641TIP3    H132414   3.679   6.077  12.530  0.5180  1.8673  1.1823
 3641TIP3    H232415   3.584   6.169  12.458  0.3505 -0.1660 -1.2773
 3642TIP3   OH232416   2.517   4.054  17.279 -0.0537  0.0900  0.1927
 3642TIP3    H132417   2.533   4.128  17.338  0.6764  0.0295  0.0825
 3642TIP3    H232418   2.540   3.977  17.330  0.3174  0.0193 -0.0764
 3643TIP3   OH232419   6.159   1.303  11.695 -0.4554  0.7364  0.3879
 3643TIP3    H132420   6.191   1.262  11.775 -0.6201  0.6909  0.4293
 3643TIP3    H232421   6.236   1.346  11.658  0.3690 -2.0364 -1.1869
 3644TIP3   OH232422   5.895   4.039   0.486  0.2038 -0.2011  0.2598
 3644TIP3    H132423   5.954   3.965   0.477 -0.1785 -0.3540 -1.0590
 3644TIP3    H232424   5.850   4.024   0.569 -2.5309 -3.3614 -1.7022
 3645TIP3   OH232425   0.008   3.484   4.908  0.3434  0.3690 -0.3447
 3645TIP3    H132426  -0.054   3.535   4.856  0.4530 -1.0619 -1.9119
 3645TIP3    H232427   0.058   3.434   4.844  0.4809 -1.4293  1.1262
 3646TIP3   OH232428   4.973   3.275   4.340 -0.7017 -0.4614  0.1855
 3646TIP3    H132429   4.992   3.369   4.346  0.8399 -0.6444 -1.4502
 3646TIP3    H232430   4.948   3.261   4.249  0.6047 -1.9027  0.0317
 3647TIP3   OH232431   2.080   2.795  16.522  0.1377  0.1127  0.2519
 3647TIP3    H132432   2.094   2.791  16.616  3.5005  0.5466 -0.1845
 3647TIP3    H232433   1.998   2.747  16.508  1.4967 -3.1954  2.9880
 3648TIP3   OH232434   2.901   2.335  15.860  0.0806  0.1571 -0.6179
 3648TIP3    H132435   2.991   2.334  15.826  0.2675  0.7453 -0.1408
 3648TIP3    H232436   2.855   2.398  15.805  0.7831  2.3361  1.2006
 3649TIP3   OH232437   3.777   6.307  16.560  0.1367  0.1441 -0.0781
 3649TIP3    H132438   3.690   6.287  16.527  0.7361 -1.5685 -0.7043
 3649TIP3    H232439   3.825   6.338  16.483  0.1073  1.0009  0.2484
 3650TIP3   OH232440   0.013   1.090  11.537  0.0655 -0.4718 -0.6971
 3650TIP3    H132441   0.036   1.006  11.576 -0.9097 -0.5987 -0.3856
 3650TIP3    H232442  -0.082   1.087  11.528 -0.2169  1.3955  1.2098
 3651TIP3   OH232443   0.788   2.666   5.590 -0.2333 -0.3204 -0.2324
 3651TIP3    H132444   0.733   2.652   5.667  0.2551 -1.4553 -0.0788
 3651TIP3    H232445   0.815   2.757   5.597  0.9416 -0.7842  1.7169
 3652TIP3   OH232446   3.277   0.117   2.705  0.1985 -0.0560  0.1064
 3652TIP3    H132447   3.225   0.100   2.627  0.1010 -1.3653  0.4465
 3652TIP3    H232448   3.260   0.209   2.726  0.1770  0.2807 -1.3659
 3653TIP3   OH232449   5.928   5.479   5.847 -0.2062 -0.3064  0.4540
 3653TIP3    H132450   6.019   5.455   5.833 -0.5775 -0.9391 -0.9345
 3653TIP3    H232451   5.879   5.398   5.832 -1.2968  0.8086 -2.2554
 3654TIP3   OH232452   5.849   0.739   1.761  0.1590  0.1224  0.1177
 3654TIP3    H132453   5.856   0.773   1.672  0.9945 -1.2835 -0.3717
 3654TIP3    H232454   5.909   0.665   1.763 -1.2724 -1.0495  1.2827
 3655TIP3   OH232455   1.079   3.685   4.164 -0.1707 -0.1946  0.0373
 3655TIP3    H132456   1.108   3.595   4.154  1.5289  0.5261 -1.8565
 3655TIP3    H232457   1.159   3.737   4.167 -1.1045  1.2274  1.5452
 3656TIP3   OH232458   4.134   4.337  14.189 -0.4606  0.5101  0.5455
 3656TIP3    H132459   4.137   4.394  14.112 -0.1977  1.7228  1.4182
 3656TIP3    H232460   4.149   4.249  14.156 -0.2587  1.0373 -0.7762
 3657TIP3   OH232461   4.588   0.948   0.912  0.0623  0.5823 -0.6977
 3657TIP3    H132462   4.669   0.898   0.922 -0.3687 -0.0307 -0.2022
 3657TIP3    H232463   4.525   0.903   0.969 -0.4413  1.4506 -0.5638
 3658TIP3   OH232464   4.985   3.988   0.292 -0.1871  0.1345  0.5157
 3658TIP3    H132465   4.957   3.919   0.351 -2.0739 -0.2460 -0.7766
 3658TIP3    H232466   4.951   3.962   0.206  0.1876  2.0153 -0.2355
 3659TIP3   OH232467   4.094   3.573  11.676  0.1037  0.6483 -0.4836
 3659TIP3    H132468   4.052   3.658  11.685 -0.2264  0.5055 -0.6714
 3659TIP3    H232469   4.095   3.536  11.764 -2.4528 -0.4363 -0.8722
 3660TIP3   OH232470   2.749   2.131   0.910 -0.2649  0.2963  0.6458
 3660TIP3    H132471   2.657   2.152   0.896 -0.2181 -0.8981 -1.7259
 3660TIP3    H232472   2.749   2.038   0.933  0.3957  0.0676 -0.2335
 3661TIP3   OH232473   3.486   3.720  12.002  0.5260  0.4083  0.0366
 3661TIP3    H132474   3.523   3.762  11.924 -0.6861 -0.8006 -1.2097
 3661TIP3    H232475   3.398   3.695  11.976  0.0413  0.1489  1.8727
 3662TIP3   OH232476   0.398   2.253   1.061 -0.0576  0.0427  0.1768
 3662TIP3    H132477   0.391   2.180   0.999  0.7142 -0.2933  0.4814
 3662TIP3    H232478   0.309   2.269   1.090 -0.3108 -0.3625 -0.3804
 3663TIP3   OH232479   4.118   2.651  13.238  0.0061 -0.6880 -0.3586
 3663TIP3    H132480   4.137   2.564  13.205 -2.3226 -2.8428  3.5460
 3663TIP3    H232481   4.202   2.684  13.270  1.0400 -1.1372 -2.5502
 3664TIP3   OH232482   0.256   6.358   1.454 -0.4186 -0.0821  0.0639
 3664TIP3    H132483   0.277   6.346   1.547 -1.4894 -0.2648  0.2859
 3664TIP3    H232484   0.325   6.416   1.421  0.7092 -1.0634  0.6689
 3665TIP3   OH232485   6.062   1.035  15.995 -0.3551 -0.5081  0.1758
 3665TIP3    H132486   6.090   1.096  16.063 -0.9903 -0.3130  0.2726
 3665TIP3    H232487   6.044   0.954  16.041 -0.9769 -0.3178  0.2762
 3666TIP3   OH232488   2.389   2.671   2.955  0.5545  0.2762 -0.6292
 3666TIP3    H132489   2.449   2.597   2.961 -1.0734 -0.9672  1.0721
 3666TIP3    H232490   2.306   2.633   2.925 -0.0221  1.5789 -0.7544
 3667TIP3   OH232491   4.249   4.451  15.256  0.0581  0.3984  0.1774
 3667TIP3    H132492   4.202   4.385  15.205 -0.0172  0.2777  0.4039
 3667TIP3    H232493   4.329   4.407  15.284  0.0059  0.4022  0.3314
 3668TIP3   OH232494   5.716   0.222  15.996 -0.0808  0.3023 -0.3261
 3668TIP3    H132495   5.724   0.145  15.940  1.0329  1.6772 -2.1511
 3668TIP3    H232496   5.622   0.233  16.009 -0.2713 -0.9725 -0.6012
 3669TIP3   OH232497   1.620   6.533  12.042  0.1765  0.0757  0.2473
 3669TIP3    H132498   1.588   6.537  12.133  0.1684 -0.2710  0.2624
 3669TIP3    H232499   1.544   6.557  11.989 -1.0712 -3.8944  0.0999
 3670TIP3   OH232500   6.528   1.934  10.794 -0.6326 -0.1634  0.7749
 3670TIP3    H132501   6.514   2.014  10.743 -0.9171 -1.7967 -1.7960
 3670TIP3    H232502   6.449   1.926  10.847 -0.5480  1.3183  1.1499
 3671TIP3   OH232503   6.181   3.728  12.280 -0.5943 -0.7145 -0.1530
 3671TIP3    H132504   6.183   3.688  12.193 -1.8276 -0.9256 -0.1044
 3671TIP3    H232505   6.197   3.655  12.340  2.4020 -0.1924 -0.2802
 3672TIP3   OH232506   2.694   5.210  17.194 -0.0322 -0.0089 -0.3817
 3672TIP3    H132507   2.645   5.221  17.113  0.2072  0.8841 -0.4151
 3672TIP3    H232508   2.722   5.299  17.217  0.4200 -0.3348  0.3495
 3673TIP3   OH232509   0.017   3.415  14.477  0.4005 -0.2935  0.2964
 3673TIP3    H132510  -0.006   3.505  14.453  0.3939  0.2935  2.4886
 3673TIP3    H232511   0.074   3.386  14.405 -1.2000  0.7341 -1.4609
 3674TIP3   OH232512   3.403   1.998   1.912  0.2005 -0.5476  0.3811
 3674TIP3    H132513   3.385   2.069   1.974  1.0311 -0.2980  0.3448
 3674TIP3    H232514   3.317   1.970   1.882 -0.0664  2.1853 -1.5411
 3675TIP3   OH232515   3.480   2.818  12.828  0.4999  0.1422  0.0686
 3675TIP3    H132516   3.441   2.806  12.914 -1.8197 -0.1042 -0.9807
 3675TIP3    H232517   3.405   2.819  12.767  2.1189 -0.4310 -2.0055
 3676TIP3   OH232518   2.202   0.012  12.113 -0.0332  0.1670 -0.1900
 3676TIP3    H132519   2.195   0.072  12.187  0.8693 -1.2821  1.0937
 3676TIP3    H232520   2.179  -0.073  12.150  2.6579 -0.9697 -1.0271
 3677TIP3   OH232521   3.764   4.386  16.993  0.3042  0.1433  0.1747
 3677TIP3    H132522   3.784   4.469  17.034  1.0871  0.0248  0.0306
 3677TIP3    H232523   3.693   4.349  17.046 -1.3514  1.7462 -0.8615
 3678TIP3   OH232524   5.924   2.084   5.876  0.2315 -0.0930  0.2895
 3678TIP3    H132525   5.981   2.086   5.953  0.0238 -2.7425  0.5538
 3678TIP3    H232526   5.835   2.085   5.912  0.1270  0.4521  0.0174
 3679TIP3   OH232527   4.326   2.393  15.874 -0.5477 -0.2277  0.1910
 3679TIP3    H132528   4.305   2.339  15.798  1.5078 -0.4460 -0.2548
 3679TIP3    H232529   4.343   2.330  15.944  2.2822 -0.2394 -0.4406
 3680TIP3   OH232530   4.760   0.934   2.862 -0.3203  0.3769 -0.3738
 3680TIP3    H132531   4.778   0.969   2.775  2.3823 -1.0911 -0.4630
 3680TIP3    H232532   4.802   0.996   2.922 -0.9359  0.6077 -0.1729
 3681TIP3   OH232533   6.413   1.938   2.309  0.3425  0.0613  0.2632
 3681TIP3    H132534   6.409   1.936   2.404  0.4543  0.7151  0.2841
 3681TIP3    H232535   6.488   1.996   2.289  0.0778  0.2423 -0.2198
 3682TIP3   OH232536   0.474   6.463  11.510  0.3013  0.2291 -0.6503
 3682TIP3    H132537   0.506   6.380  11.476 -1.4777 -0.8181  0.1845
 3682TIP3    H232538   0.469   6.520  11.433  3.9636  0.4216 -0.8547
 3683TIP3   OH232539   3.712   6.372  13.337 -0.5082  0.0444 -0.1966
 3683TIP3    H132540   3.771   6.448  13.335  0.3986 -0.6430 -0.2588
 3683TIP3    H232541   3.677   6.372  13.426  0.5272 -0.2252  0.2240
 3684TIP3   OH232542   3.870   4.842  15.197  0.2382  0.6489 -0.3848
 3684TIP3    H132543   3.832   4.765  15.156  0.9079 -0.0905  0.3653
 3684TIP3    H232544   3.938   4.871  15.135  2.4937 -1.5298  0.9687
 3685TIP3   OH232545   4.471   4.299   6.906  0.0299 -0.2064 -1.0209
 3685TIP3    H132546   4.465   4.211   6.945 -1.5530  0.2797 -0.1235
 3685TIP3    H232547   4.392   4.343   6.935  0.6321  1.4076 -1.7911
 3686TIP3   OH232548   5.632   1.828  15.166  0.5732 -0.0185 -0.3465
 3686TIP3    H132549   5.654   1.919  15.186  0.2414 -0.2227  1.0437
 3686TIP3    H232550   5.536   1.825  15.174  0.5795 -0.4618 -0.4535
 3687TIP3   OH232551   2.478   0.970  10.964  0.2458  0.4464 -0.3105
 3687TIP3    H132552   2.440   0.884  10.942  0.5232  0.3948 -0.6068
 3687TIP3    H232553   2.438   0.994  11.047  0.7803 -0.3520  0.1838
 3688TIP3   OH232554   2.489   5.557  17.086  0.1283 -0.2768  0.0182
 3688TIP3    H132555   2.405   5.563  17.132  0.6052 -0.5397  0.9430
 3688TIP3    H232556   2.468   5.579  16.996 -1.3660 -2.6051 -0.2557
 3689TIP3   OH232557   0.120   4.384   1.440 -0.0180 -0.1448  0.2032
 3689TIP3    H132558   0.201   4.339   1.419  0.3531  0.0080  1.2966
 3689TIP3    H232559   0.124   4.399   1.534 -1.4684 -0.4302  0.3211
 3690TIP3   OH232560   3.776   0.061  15.738 -0.1677 -0.0958  0.2044
 3690TIP3    H132561   3.697   0.088  15.784  0.5392  1.1120  0.7480
 3690TIP3    H232562   3.781   0.118  15.661  0.1486 -0.2003  0.1433
 3691TIP3   OH232563   2.150   2.335  12.517  0.6710 -0.7644 -0.3389
 3691TIP3    H132564   2.187   2.403  12.460  0.0275 -0.6409 -0.6124
 3691TIP3    H232565   2.086   2.381  12.571  1.3373 -0.8665  0.5493
 3692TIP3   OH232566   1.515   2.781   5.132  0.4602 -0.7352 -0.6521
 3692TIP3    H132567   1.495   2.688   5.120 -0.4302 -1.0195  2.4784
 3692TIP3    H232568   1.437   2.826   5.099 -0.0227 -1.2159 -0.1813
 3693TIP3   OH232569   1.477   6.157  14.089  0.4529  0.0157  0.1801
 3693TIP3    H132570   1.454   6.164  14.182  0.0867 -0.0196  0.0923
 3693TIP3    H232571   1.394   6.168  14.043  0.9419  2.2570 -0.2273
 3694TIP3   OH232572   5.898   1.931   5.331  0.0523  0.4147  0.4643
 3694TIP3    H132573   5.818   1.911   5.379 -0.2708  0.3823 -0.0796
 3694TIP3    H232574   5.868   1.964   5.246  0.6069 -0.0796  0.0635
 3695TIP3   OH232575   1.896   4.536  17.031  0.0908 -0.7950 -0.1270
 3695TIP3    H132576   1.870   4.483  17.106  3.2868 -0.7955  1.0521
 3695TIP3    H232577   1.838   4.612  17.034 -3.9787 -3.6552 -1.3526
 3696TIP3   OH232578   3.020   2.163   4.002 -0.0631  0.1331  0.0721
 3696TIP3    H132579   3.068   2.189   4.081 -0.1812  0.7660 -0.0582
 3696TIP3    H232580   3.038   2.070   3.993 -1.9576 -0.5049  2.1962
 3697TIP3   OH232581   6.407   5.761  16.601  0.0370  0.5517  0.3385
 3697TIP3    H132582   6.389   5.855  16.602 -0.9582  0.3724 -0.0410
 3697TIP3    H232583   6.471   5.748  16.671  0.8583  1.6417 -0.2101
 3698TIP3   OH232584   2.585   6.126  16.860 -0.6659 -0.2912  0.3834
 3698TIP3    H132585   2.545   6.065  16.799 -1.7764  0.4468  0.3618
 3698TIP3    H232586   2.598   6.206  16.809 -2.2039  0.5480  1.2593
 3699TIP3   OH232587   6.436   4.264  15.211  0.2752 -0.5975 -0.7418
 3699TIP3    H132588   6.401   4.342  15.168  1.6061  0.0541 -0.6792
 3699TIP3    H232589   6.524   4.253  15.173  1.1921 -0.4423  1.2587
 3700TIP3   OH232590   1.610   3.558   5.314  0.1875 -0.7909  0.0701
 3700TIP3    H132591   1.563   3.501   5.375 -1.8243 -2.0136 -2.5248
 3700TIP3    H232592   1.699   3.563   5.349 -1.2308 -0.2812  3.8423
 3701TIP3   OH232593   1.274   6.224   2.136 -0.0903 -0.6454 -0.0931
 3701TIP3    H132594   1.342   6.169   2.098 -2.2266 -2.1661 -1.7692
 3701TIP3    H232595   1.293   6.312   2.102  0.9749 -1.0690 -0.6146
 3702TIP3   OH232596   3.619   0.407   6.252 -0.0304 -0.2253  0.2874
 3702TIP3    H132597   3.622   0.340   6.185  1.8889 -1.3383  1.4372
 3702TIP3    H232598   3.606   0.359   6.334  0.2404  0.8778  0.9943
 3703TIP3   OH232599   3.682   5.243   2.077 -0.1756  0.1817  0.8314
 3703TIP3    H132600   3.720   5.331   2.080 -0.7273  0.5283 -1.5437
 3703TIP3    H232601   3.755   5.187   2.050 -0.0675  0.0485  1.3940
 3704TIP3   OH232602   1.436   2.521   3.336  0.0914 -0.0553  0.0217
 3704TIP3    H132603   1.444   2.485   3.247 -0.8169 -0.2541  0.0195
 3704TIP3    H232604   1.471   2.452   3.393  1.2492  0.3173 -0.2209
 3705TIP3   OH232605   4.070   1.947  10.484  0.2805 -0.4643 -0.6327
 3705TIP3    H132606   4.011   1.884  10.441 -1.9665 -0.6506  2.5378
 3705TIP3    H232607   4.103   1.900  10.560 -1.3810  2.1154  1.7605
 3706TIP3   OH232608   2.706   4.169  15.833 -0.0026 -0.2213  0.5832
 3706TIP3    H132609   2.666   4.106  15.773  1.9594 -1.7905  0.8391
 3706TIP3    H232610   2.672   4.146  15.919  0.1982 -0.5090  0.5865
 3707TIP3   OH232611   1.019   5.715   2.500  0.2717 -0.3909  0.0991
 3707TIP3    H132612   0.945   5.771   2.476  0.7371  0.5090  0.7186
 3707TIP3    H232613   1.045   5.672   2.419 -0.3683 -0.0301 -0.2962
 3708TIP3   OH232614   1.134   1.989   2.561 -0.3619  0.0628 -0.3918
 3708TIP3    H132615   1.229   1.983   2.568 -0.4310  1.3902  2.5723
 3708TIP3    H232616   1.102   1.941   2.638 -2.1535 -1.6762 -2.1634
 3709TIP3   OH232617   6.308   1.429   0.070  0.6235  0.3159  0.6438
 3709TIP3    H132618   6.376   1.487   0.037  1.1459  0.0801  1.2981
 3709TIP3    H232619   6.355   1.362   0.120 -0.2026  1.2265  2.7096
 3710TIP3   OH232620   1.438   3.387   2.278  0.3794 -0.2543 -0.8825
 3710TIP3    H132621   1.415   3.304   2.236  0.6950 -0.9427  0.2770
 3710TIP3    H232622   1.495   3.362   2.351 -1.4202  0.7539  0.9298
 3711TIP3   OH232623   5.955   6.495   6.756  0.3550 -0.2960 -0.0856
 3711TIP3    H132624   5.992   6.573   6.798  1.3999 -0.6525 -0.3260
 3711TIP3    H232625   5.938   6.435   6.829 -1.6789  0.6418  0.2365
 3712TIP3   OH232626   3.620   0.927  13.687 -0.6006  0.2521 -0.3401
 3712TIP3    H132627   3.567   0.992  13.642 -1.8607 -0.1925  0.4570
 3712TIP3    H232628   3.697   0.916  13.632 -0.4352  2.3128 -0.5533
 3713TIP3   OH232629   5.423   4.704   2.341 -0.3018  0.7388  0.6465
 3713TIP3    H132630   5.339   4.743   2.316  0.6336  2.0439 -0.5576
 3713TIP3    H232631   5.425   4.710   2.436 -2.0047 -0.2313  0.7676
 3714TIP3   OH232632   2.993   3.703  11.179  0.1297 -0.0083  0.4107
 3714TIP3    H132633   3.072   3.653  11.201 -0.6170 -1.8149 -0.9222
 3714TIP3    H232634   2.925   3.668  11.237 -0.7344 -1.5842 -1.5002
 3715TIP3   OH232635   4.713   1.735  11.724 -0.0686 -0.0133 -0.6132
 3715TIP3    H132636   4.698   1.825  11.753  0.8335  0.2948 -1.1047
 3715TIP3    H232637   4.789   1.706  11.774 -0.4725 -0.5713 -0.3193
 3716TIP3   OH232638   0.969   6.644   0.682  0.6582 -0.0823  0.1817
 3716TIP3    H132639   0.920   6.563   0.689 -0.4592  0.5872  0.2883
 3716TIP3    H232640   0.937   6.697   0.755  2.2721 -0.0148  0.8522
 3717TIP3   OH232641   3.481   4.846  13.633 -0.1764  0.0593  0.5991
 3717TIP3    H132642   3.442   4.870  13.717 -1.7898 -1.8251  0.4230
 3717TIP3    H232643   3.407   4.840  13.573  0.8730  0.5308 -0.7760
 3718TIP3   OH232644   0.555   3.467   3.627  0.3234  0.2200  0.1757
 3718TIP3    H132645   0.606   3.449   3.705 -1.5064 -2.5656  0.8138
 3718TIP3    H232646   0.464   3.471   3.657 -0.5935 -2.4961 -1.9508
 3719TIP3   OH232647   4.174   3.368  14.938  0.0259  0.9571  0.3472
 3719TIP3    H132648   4.241   3.402  14.879  0.2326  1.0177  0.6118
 3719TIP3    H232649   4.147   3.285  14.898 -1.3488  2.0128 -0.9226
 3720TIP3   OH232650   3.965   0.605  11.798 -0.0259 -0.1685  0.2164
 3720TIP3    H132651   4.051   0.591  11.836  0.1637  0.8430  0.1850
 3720TIP3    H232652   3.936   0.689  11.834 -0.3568  0.2159 -0.9211
 3721TIP3   OH232653   0.878   1.170  13.335 -0.2348  1.1031 -0.3288
 3721TIP3    H132654   0.789   1.205  13.333 -1.1588 -1.0724  0.9244
 3721TIP3    H232655   0.925   1.230  13.393 -0.2897  3.4757 -2.6464
 3722TIP3   OH232656   3.317   0.510  11.174 -0.4672 -0.0417  0.2104
 3722TIP3    H132657   3.353   0.467  11.097  1.3094 -0.2365  1.1295
 3722TIP3    H232658   3.320   0.444  11.243  0.8889  1.0602  1.2441
 3723TIP3   OH232659   5.490   4.244   6.983 -0.0176  0.0302 -0.0532
 3723TIP3    H132660   5.406   4.205   6.963 -0.4829  1.2956 -0.6471
 3723TIP3    H232661   5.499   4.316   6.920  1.0967  0.4589  0.5726
 3724TIP3   OH232662   4.730   4.759   5.794 -0.0972  0.7407  0.0130
 3724TIP3    H132663   4.655   4.742   5.737 -0.3297  1.0017  0.2439
 3724TIP3    H232664   4.697   4.819   5.861  0.3685  1.0235 -0.0077
 3725TIP3   OH232665   2.227   6.416  16.611  0.3543 -0.3382  0.0647
 3725TIP3    H132666   2.272   6.473  16.549 -0.3778  0.5527  0.3390
 3725TIP3    H232667   2.142   6.458  16.626  0.8411 -0.0685  2.3094
 3726TIP3   OH232668   4.503   3.141   4.020  0.1495  0.0384 -0.0042
 3726TIP3    H132669   4.520   3.053   3.986  1.4012 -0.2247  1.2442
 3726TIP3    H232670   4.442   3.127   4.092  0.7091  0.1351  0.4914
 3727TIP3   OH232671   3.013   5.923  14.281 -0.5618  0.0828 -0.2866
 3727TIP3    H132672   2.957   5.881  14.215 -0.7590 -3.0713  1.7553
 3727TIP3    H232673   2.953   5.949  14.351 -0.0466  1.0707 -0.2004
 3728TIP3   OH232674   3.012   2.102   3.011 -0.1033 -0.4434  0.0373
 3728TIP3    H132675   3.107   2.094   3.014 -0.0150  0.0814 -1.3437
 3728TIP3    H232676   2.989   2.090   2.919 -1.1310  2.1345 -0.0766
 3729TIP3   OH232677   4.773   3.772  13.442 -0.2362 -0.4194 -0.0054
 3729TIP3    H132678   4.835   3.706  13.409 -0.0474 -0.1860 -0.1208
 3729TIP3    H232679   4.709   3.781  13.372  0.4704  0.4780 -0.5561
 3730TIP3   OH232680   3.930   3.193   0.189 -0.3937  0.5577 -0.0709
 3730TIP3    H132681   3.985   3.203   0.267 -0.4222  2.3553 -0.2590
 3730TIP3    H232682   3.977   3.131   0.134  0.9893  1.3514  0.1894
 3731TIP3   OH232683   3.790   2.462  17.047 -0.3920  0.1809 -0.5226
 3731TIP3    H132684   3.850   2.449  17.121  0.0061 -1.0155 -1.0393
 3731TIP3    H232685   3.703   2.453  17.085 -0.2282  1.0680  0.0739
 3732TIP3   OH232686   0.446   4.247   5.508 -0.2792 -0.4903 -0.7350
 3732TIP3    H132687   0.390   4.308   5.556  0.8887  0.8405 -1.0315
 3732TIP3    H232688   0.489   4.196   5.577 -0.0162  0.1583 -0.4093
 3733TIP3   OH232689   1.349   1.191  16.822  0.0558  0.7021  0.4139
 3733TIP3    H132690   1.277   1.187  16.884 -1.5069 -0.9276 -1.4592
 3733TIP3    H232691   1.354   1.103  16.784  1.3216  1.4961 -1.3654
 3734TIP3   OH232692   4.989   2.834   4.367 -0.0679  0.1204 -0.3270
 3734TIP3    H132693   4.957   2.877   4.446  1.9798 -0.7544  0.9959
 3734TIP3    H232694   4.934   2.756   4.357  0.8659 -0.7633  1.2933
 3735TIP3   OH232695   2.987   3.382  15.317  0.4769 -0.0612  0.1828
 3735TIP3    H132696   3.034   3.458  15.283  1.2282 -0.8807 -0.6362
 3735TIP3    H232697   2.989   3.319  15.246  0.2241 -1.0098  1.0062
 3736TIP3   OH232698   6.320   2.097   1.867  0.5717 -0.1235  0.3417
 3736TIP3    H132699   6.279   2.139   1.943  0.3155 -0.9711  0.6720
 3736TIP3    H232700   6.282   2.009   1.864  1.4512 -0.4935 -0.0803
 3737TIP3   OH232701   5.249   2.967  14.065  0.6999  0.9528 -0.2317
 3737TIP3    H132702   5.333   2.923  14.052 -0.1293 -0.7272 -0.1656
 3737TIP3    H232703   5.204   2.957  13.980 -0.7739 -1.2306  0.7480
 3738TIP3   OH232704   2.922   5.866   4.732 -0.0222  0.3914  0.1296
 3738TIP3    H132705   2.984   5.801   4.766 -0.3167 -0.0911 -0.2562
 3738TIP3    H232706   2.857   5.815   4.685  0.1145  1.0165 -0.7548
 3739TIP3   OH232707   0.602   2.194  15.702  0.0234 -0.3318 -0.4290
 3739TIP3    H132708   0.638   2.127  15.644 -0.6206 -0.1530 -1.0373
 3739TIP3    H232709   0.629   2.277  15.662  1.3019 -0.2256  0.6311
 3740TIP3   OH232710   4.506   2.099  13.600  0.0192 -0.2166  0.0292
 3740TIP3    H132711   4.427   2.099  13.545 -0.3587 -1.4224  0.5674
 3740TIP3    H232712   4.538   2.009  13.597  0.8320  0.0495  0.5896
 3741TIP3   OH232713   1.207   2.786   3.861 -0.0662  0.9044 -0.5740
 3741TIP3    H132714   1.162   2.725   3.802  1.2317 -0.6054 -0.0507
 3741TIP3    H232715   1.280   2.819   3.809  1.5015 -0.9779  0.3774
 3742TIP3   OH232716   3.343   4.241   1.105  0.2673  0.2772  0.2133
 3742TIP3    H132717   3.394   4.279   1.176  1.2049  0.8173 -0.7315
 3742TIP3    H232718   3.291   4.172   1.147 -0.0058  1.3035  1.6050
 3743TIP3   OH232719   6.249   3.156  12.587 -0.0691 -0.4972  0.5513
 3743TIP3    H132720   6.335   3.120  12.611  0.3716 -0.1381 -0.4286
 3743TIP3    H232721   6.235   3.228  12.648  0.8229  0.1264  0.0316
 3744TIP3   OH232722   3.444   4.307  11.635 -0.0586 -0.5244  0.0486
 3744TIP3    H132723   3.428   4.233  11.694  0.2870  0.1353  0.9820
 3744TIP3    H232724   3.362   4.357  11.638  0.5575  0.4074  1.2732
 3745TIP3   OH232725   1.275   6.561   2.522 -0.5187  0.3629 -0.0495
 3745TIP3    H132726   1.310   6.476   2.548  0.5702  0.8983  0.2972
 3745TIP3    H232727   1.216   6.586   2.593 -0.5536  0.0706  0.0233
 3746TIP3   OH232728   5.332   6.146  14.541 -0.4289  0.3023 -0.0098
 3746TIP3    H132729   5.266   6.093  14.497  0.8530 -1.2809 -0.0962
 3746TIP3    H232730   5.284   6.195  14.607 -1.8321 -0.0473 -0.7513
 3747TIP3   OH232731   6.399   0.659  12.657 -0.6634  0.2053  0.0439
 3747TIP3    H132732   6.444   0.617  12.584  0.7884 -0.5219  1.3093
 3747TIP3    H232733   6.435   0.616  12.735 -1.9762  1.1414  1.2003
 3748TIP3   OH232734   2.744   2.411   6.114 -0.0807 -0.0555  0.1016
 3748TIP3    H132735   2.693   2.489   6.137 -0.6226 -0.3774 -0.0063
 3748TIP3    H232736   2.830   2.426   6.155  0.1925  1.1190 -0.8549
 3749TIP3   OH232737   3.101   3.341  10.429  0.0402  0.8987 -0.0012
 3749TIP3    H132738   3.120   3.435  10.433 -2.4489  1.3597  2.4848
 3749TIP3    H232739   3.163   3.302  10.491 -0.3544  1.1587  0.5586
 3750TIP3   OH232740   1.102   4.223   3.187 -0.2561  0.5704 -0.1199
 3750TIP3    H132741   1.022   4.268   3.212  0.3941  1.9834 -0.5234
 3750TIP3    H232742   1.147   4.207   3.270 -1.6455 -1.6278  0.2562
 3751TIP3   OH232743   3.846   2.950   3.437  0.5388  0.4392  0.6481
 3751TIP3    H132744   3.793   3.029   3.421  0.4221  0.1170 -0.5936
 3751TIP3    H232745   3.785   2.878   3.426  0.6791  0.1600  1.6598
 3752TIP3   OH232746   4.573   4.466  11.545  0.0302  0.1641 -0.8183
 3752TIP3    H132747   4.587   4.560  11.531 -0.8889  0.2693 -1.0676
 3752TIP3    H232748   4.588   4.454  11.639  0.5909  0.4830 -0.8657
 3753TIP3   OH232749   0.383   0.868  16.217  0.1317 -0.6937 -0.4548
 3753TIP3    H132750   0.331   0.906  16.146 -2.1061 -0.7801  1.0792
 3753TIP3    H232751   0.444   0.810  16.174  0.5688  1.2259 -2.5145
 3754TIP3   OH232752   6.370   4.182  13.464 -0.5530 -0.3153 -0.2058
 3754TIP3    H132753   6.435   4.203  13.397  1.3868  2.5117  2.4061
 3754TIP3    H232754   6.286   4.201  13.423  0.5572  0.8994 -2.0043
 3755TIP3   OH232755   1.815   3.741  13.407 -0.1483  0.3908  0.2417
 3755TIP3    H132756   1.878   3.813  13.404 -1.6687  1.7284 -0.2329
 3755TIP3    H232757   1.739   3.778  13.452 -0.5010 -1.2855  1.0604
 3756TIP3   OH232758   0.568   2.985  15.836 -0.6148 -0.6557  0.0435
 3756TIP3    H132759   0.613   2.978  15.752 -0.8065 -1.0340 -0.0288
 3756TIP3    H232760   0.593   2.906  15.883  3.6623  1.8838  2.4089
 3757TIP3   OH232761   5.362   4.769  16.472 -0.2172 -0.6272  0.3020
 3757TIP3    H132762   5.417   4.847  16.472 -1.0582 -0.0334 -0.5865
 3757TIP3    H232763   5.312   4.775  16.554 -3.4089  2.0068 -1.7311
 3758TIP3   OH232764   1.635   2.371  13.964 -0.2067  0.5309 -0.0961
 3758TIP3    H132765   1.717   2.403  13.928 -0.6612  1.5730 -0.2235
 3758TIP3    H232766   1.601   2.312  13.897  0.6075 -0.1959  0.1143
 3759TIP3   OH232767   0.813   2.275  11.733 -0.1314 -0.3345 -1.0172
 3759TIP3    H132768   0.780   2.339  11.670 -3.0403 -0.4709  0.2500
 3759TIP3    H232769   0.755   2.200  11.722 -0.1147 -0.6945  1.1565
 3760TIP3   OH232770   4.342   1.338  15.145  0.1343 -0.4492 -0.2364
 3760TIP3    H132771   4.276   1.403  15.122 -0.9202 -1.1971  0.6084
 3760TIP3    H232772   4.424   1.386  15.143 -0.3094  0.2884 -2.1906
 3761TIP3   OH232773   1.695   6.540  16.542 -0.1641 -0.5425  0.3836
 3761TIP3    H132774   1.669   6.449  16.528  0.7743 -0.7144 -0.3079
 3761TIP3    H232775   1.732   6.568  16.458 -0.1655  0.3814  0.6808
 3762TIP3   OH232776   4.525   0.360   2.366 -0.1099  0.3766  0.0656
 3762TIP3    H132777   4.566   0.395   2.445  1.9347 -0.8279 -0.4487
 3762TIP3    H232778   4.566   0.275   2.352 -0.6977  0.4019 -2.0923
 3763TIP3   OH232779   5.692   2.898   2.463 -0.1932  0.1726  0.2997
 3763TIP3    H132780   5.691   2.994   2.463 -0.6372  0.1735 -0.8234
 3763TIP3    H232781   5.637   2.874   2.538 -0.2177  0.7845  0.4845
 3764TIP3   OH232782   0.169   6.156   2.157 -0.5899  0.0429  0.1025
 3764TIP3    H132783   0.075   6.176   2.154 -0.1138  2.3874 -0.4748
 3764TIP3    H232784   0.202   6.212   2.227  0.3126 -1.1072  0.6002
 3765TIP3   OH232785   1.882   1.968  15.091  0.5384 -0.5586  0.1888
 3765TIP3    H132786   1.800   1.919  15.092  0.8015 -1.0039  0.1590
 3765TIP3    H232787   1.875   2.026  15.015 -0.0008 -0.1596  0.5357
 3766TIP3   OH232788   0.781   4.853  17.173  0.3346  0.5099  0.3322
 3766TIP3    H132789   0.828   4.854  17.089 -1.1727 -1.5751 -0.5806
 3766TIP3    H232790   0.690   4.837  17.148 -0.3214  1.1023  2.3126
 3767TIP3   OH232791   3.090   6.550  15.599  1.0933  0.6460  0.2136
 3767TIP3    H132792   3.178   6.520  15.576  1.2012  0.4583  0.8793
 3767TIP3    H232793   3.043   6.470  15.624  0.7542  0.7574 -0.0622
 3768TIP3   OH232794   4.342   1.815  16.365  0.1259  0.9476 -0.4236
 3768TIP3    H132795   4.399   1.754  16.412  0.6695  1.2538 -0.6879
 3768TIP3    H232796   4.338   1.893  16.422  0.7801  1.3166 -0.8779
 3769TIP3   OH232797   1.411   4.113  15.044 -0.0391 -0.3686 -0.0992
 3769TIP3    H132798   1.477   4.177  15.020 -1.0035  0.5813 -0.2764
 3769TIP3    H232799   1.416   4.107  15.139  0.5600 -0.5922 -0.1444
 3770TIP3   OH232800   1.543   1.974   3.200  0.1506  0.2012 -0.2838
 3770TIP3    H132801   1.488   2.030   3.254  1.2608  1.6199 -0.5899
 3770TIP3    H232802   1.587   2.034   3.140 -0.1952 -1.2167 -2.0263
 3771TIP3   OH232803   5.242   5.576  17.005  0.0448 -0.5093  0.1416
 3771TIP3    H132804   5.214   5.526  17.081  0.3702  0.3731  0.8407
 3771TIP3    H232805   5.299   5.515  16.957  1.3179 -0.4498  1.5592
 3772TIP3   OH232806   1.287   1.048   4.173  0.0779  0.1091  0.2987
 3772TIP3    H132807   1.195   1.035   4.197 -0.5072  0.1311 -1.8159
 3772TIP3    H232808   1.302   0.983   4.104  1.3334  0.8533 -0.1281
 3773TIP3   OH232809   4.898   4.589  15.112 -0.5601  0.1523  0.2826
 3773TIP3    H132810   4.961   4.580  15.184  0.3236 -2.9211 -0.7893
 3773TIP3    H232811   4.953   4.601  15.034 -1.4123  0.5451 -0.2554
 3774TIP3   OH232812   5.011   1.042  15.029 -0.5653  0.0491 -0.4608
 3774TIP3    H132813   4.927   1.048  15.073 -0.9831  0.8207 -1.3484
 3774TIP3    H232814   5.049   1.129  15.036 -0.5728  0.1407 -1.4964
 3775TIP3   OH232815   5.603   1.250  16.008 -0.1137  0.3453 -0.0793
 3775TIP3    H132816   5.665   1.322  16.022  1.1272 -1.0782  2.2192
 3775TIP3    H232817   5.659   1.175  15.985 -1.0274 -0.7529  1.1683
 3776TIP3   OH232818   4.608   0.815  11.250  0.0586  0.0142  0.2653
 3776TIP3    H132819   4.609   0.797  11.156 -1.8998 -0.5433  0.3241
 3776TIP3    H232820   4.679   0.877  11.263  1.4078 -1.1424 -1.3190
 3777TIP3   OH232821   2.435   2.355   2.475  0.3673 -0.4862  0.0388
 3777TIP3    H132822   2.403   2.301   2.403  1.3368 -0.1955 -0.6230
 3777TIP3    H232823   2.365   2.418   2.491  0.2002 -0.4786 -0.7212
 3778TIP3   OH232824   2.037   1.244   1.161 -0.5011 -0.5845  0.3715
 3778TIP3    H132825   2.124   1.237   1.200 -0.5844 -1.1848  0.4485
 3778TIP3    H232826   2.010   1.334   1.180  0.0916 -0.4028  0.3623
 3779TIP3   OH232827   4.020   5.847   2.721  0.1797 -0.4511 -0.6211
 3779TIP3    H132828   3.981   5.778   2.774  0.3349 -1.0443 -1.2767
 3779TIP3    H232829   4.070   5.801   2.653  2.8605  0.2879  0.8011
 3780TIP3   OH232830   6.202   3.004  13.140 -0.3928 -0.0398 -0.4181
 3780TIP3    H132831   6.188   2.955  13.221 -0.9513 -1.5528 -1.4151
 3780TIP3    H232832   6.144   3.079  13.147 -0.9370 -0.5231  0.2851
 3781TIP3   OH232833   5.743   0.169   3.831 -0.0008 -0.1668 -0.8629
 3781TIP3    H132834   5.692   0.104   3.782 -1.7725 -1.1443  2.1574
 3781TIP3    H232835   5.797   0.117   3.891  0.2856  1.0884 -0.0293
 3782TIP3   OH232836   5.998   5.393   4.082 -0.2857 -0.4822  0.0670
 3782TIP3    H132837   5.949   5.472   4.062 -1.0174 -0.9445  0.0078
 3782TIP3    H232838   5.978   5.374   4.174 -2.0795 -1.9524 -0.5966
 3783TIP3   OH232839   6.522   4.443  12.066  0.6401  0.1059 -0.2139
 3783TIP3    H132840   6.427   4.434  12.058  0.5691  0.2409  0.4621
 3783TIP3    H232841   6.550   4.477  11.981 -0.1830  2.1468  0.2934
 3784TIP3   OH232842   2.250   4.209  15.462  0.2654  0.5126  0.5105
 3784TIP3    H132843   2.300   4.153  15.402  0.9931 -0.7557  2.2232
 3784TIP3    H232844   2.247   4.294  15.419  0.6343 -0.3988 -1.3793
 3785TIP3   OH232845   0.428   2.875   2.697  0.0612  0.0276  0.3686
 3785TIP3    H132846   0.446   2.882   2.604 -1.8720 -0.9260 -0.1185
 3785TIP3    H232847   0.429   2.781   2.715  0.2108  0.1919  1.2684
 3786TIP3   OH232848   2.346   3.558  14.525 -0.4350  0.6254 -0.0566
 3786TIP3    H132849   2.315   3.640  14.562 -1.4369  0.4028 -0.3767
 3786TIP3    H232850   2.352   3.498  14.599  0.5783  1.0656  0.2230
 3787TIP3   OH232851   2.867   2.366   2.789  0.0287 -0.3093  0.0539
 3787TIP3    H132852   2.837   2.402   2.706  1.1115  0.5862  0.0427
 3787TIP3    H232853   2.893   2.276   2.768 -1.6916 -0.7833 -0.1316
 3788TIP3   OH232854   5.138   5.202   6.584  0.1276 -0.1993 -0.2509
 3788TIP3    H132855   5.072   5.264   6.553 -1.1163 -0.5946  1.5369
 3788TIP3    H232856   5.219   5.231   6.541 -0.6472  1.9835 -0.3336
 3789TIP3   OH232857   3.501   1.303  16.751 -0.4628 -0.3098  0.3911
 3789TIP3    H132858   3.467   1.251  16.824  1.1773  0.1572  1.5484
 3789TIP3    H232859   3.445   1.381  16.748 -2.1303 -1.5281 -0.5261
 3790TIP3   OH232860   1.260   5.189  11.437 -0.2106 -0.3294 -0.2184
 3790TIP3    H132861   1.338   5.227  11.477 -0.1785 -1.2621  0.6518
 3790TIP3    H232862   1.197   5.260  11.433  0.5257  0.3075 -0.4829
 3791TIP3   OH232863   3.414   4.377   4.667 -0.5098 -0.0518 -0.0950
 3791TIP3    H132864   3.405   4.421   4.582  0.3665  2.0898  0.8641
 3791TIP3    H232865   3.486   4.315   4.654  0.6435  1.3506 -0.5131
 3792TIP3   OH232866   2.457   2.962   5.755  1.0337  0.1495 -0.4456
 3792TIP3    H132867   2.457   2.924   5.844 -0.0018 -1.9123 -1.2836
 3792TIP3    H232868   2.523   3.030   5.758  0.3678  0.7375  2.1980
 3793TIP3   OH232869   0.716   5.918  16.999 -0.0502  0.1238 -0.0155
 3793TIP3    H132870   0.766   5.998  16.986 -1.8443  1.1108 -1.0184
 3793TIP3    H232871   0.774   5.848  16.969  1.0936  1.1552 -0.2243
 3794TIP3   OH232872   2.877   5.869   4.993 -0.8150 -0.3159 -0.0491
 3794TIP3    H132873   2.953   5.907   5.037 -0.4945 -0.9001 -0.0891
 3794TIP3    H232874   2.884   5.898   4.902 -0.2783 -0.9070 -0.1996
 3795TIP3   OH232875   0.752   1.684   3.727 -0.3053 -0.0915 -0.2047
 3795TIP3    H132876   0.731   1.777   3.731  1.5951  0.3831 -0.4273
 3795TIP3    H232877   0.770   1.667   3.635  0.5714 -0.3711  0.0054
 3796TIP3   OH232878   2.826   1.198  11.918  0.4260  0.4279  0.1297
 3796TIP3    H132879   2.865   1.131  11.974  2.3178 -1.0946 -2.8121
 3796TIP3    H232880   2.745   1.158  11.885  1.2339 -0.2346 -1.1230
 3797TIP3   OH232881   5.291   4.277  17.098  0.2765 -0.1160  0.0617
 3797TIP3    H132882   5.260   4.356  17.054 -0.9750 -1.4496 -1.5117
 3797TIP3    H232883   5.216   4.246  17.147  0.2257 -1.2762 -0.7228
 3798TIP3   OH232884   2.323   4.499  14.593  0.2016  0.9005  0.2859
 3798TIP3    H132885   2.277   4.450  14.661 -0.7472 -0.9117 -1.5980
 3798TIP3    H232886   2.253   4.535  14.538  0.9802  0.0657 -1.2749
 3799TIP3   OH232887   3.089   4.918   2.439  0.5370 -1.0841 -0.3629
 3799TIP3    H132888   3.181   4.947   2.436 -0.4229  2.3508  1.3958
 3799TIP3    H232889   3.076   4.886   2.528 -0.0869 -1.2617 -0.5149
 3800TIP3   OH232890   1.912   4.275  13.611 -0.4329 -0.8150 -0.3268
 3800TIP3    H132891   1.885   4.363  13.585  1.5464  0.1177  0.6344
 3800TIP3    H232892   1.909   4.223  13.530  1.0655  0.8367 -1.4679
 3801TIP3   OH232893   1.284   3.714   6.222 -0.1474 -0.2823  0.3418
 3801TIP3    H132894   1.278   3.625   6.187 -0.2390 -0.8985  1.8531
 3801TIP3    H232895   1.377   3.725   6.242  0.2015  0.7506 -1.7929
 3802TIP3   OH232896   0.696   0.444   2.259 -0.2695 -0.3351 -0.4649
 3802TIP3    H132897   0.684   0.470   2.351 -0.6332 -1.6496 -0.1299
 3802TIP3    H232898   0.715   0.351   2.263  0.8622 -0.1605 -1.6622
 3803TIP3   OH232899   0.166   6.490   3.127  0.3224 -0.2531 -0.1237
 3803TIP3    H132900   0.196   6.575   3.095  2.2164 -0.4178  1.1480
 3803TIP3    H232901   0.236   6.429   3.106 -1.4924 -1.7737 -2.0302
 3804TIP3   OH232902   6.346   3.257  17.003  0.4169 -0.4806  0.4830
 3804TIP3    H132903   6.362   3.336  16.951  0.1629 -0.4326  0.4751
 3804TIP3    H232904   6.417   3.256  17.068  0.9295 -0.7251 -0.0779
 3805TIP3   OH232905   4.638   1.857  12.843  0.0109 -0.0022 -0.0002
 3805TIP3    H132906   4.704   1.810  12.792  0.2911  0.0937  0.2753
 3805TIP3    H232907   4.555   1.837  12.798  0.4474  1.5282 -1.5343
 3806TIP3   OH232908   1.068   0.480   3.212  0.5476 -0.1396  0.0344
 3806TIP3    H132909   1.101   0.568   3.192 -0.7930  0.2680 -0.5064
 3806TIP3    H232910   1.025   0.489   3.297 -1.6099  0.3215 -1.0559
 3807TIP3   OH232911   2.892   5.957  15.161 -0.1139 -0.0810 -0.3326
 3807TIP3    H132912   2.901   6.022  15.091 -0.9140 -0.2344 -0.5746
 3807TIP3    H232913   2.924   6.002  15.239 -1.0162  0.7362 -0.4235
 3808TIP3   OH232914   4.677   5.941   4.897  0.5425 -0.9263 -0.0436
 3808TIP3    H132915   4.606   5.893   4.855 -0.0645 -0.5845  0.5738
 3808TIP3    H232916   4.633   5.997   4.962  1.2440  0.2733 -0.5709
 3809TIP3   OH232917   1.407   5.174   5.571 -0.5177 -0.3780  0.1915
 3809TIP3    H132918   1.499   5.148   5.564 -1.3738 -3.3096 -0.8864
 3809TIP3    H232919   1.385   5.156   5.662 -0.9229 -2.9766 -0.3868
 3810TIP3   OH232920   0.053   4.281  15.268  0.1457  0.0136  0.5122
 3810TIP3    H132921   0.020   4.370  15.271 -1.5425 -0.6084  1.2387
 3810TIP3    H232922   0.148   4.290  15.257 -0.1182  1.8588 -0.3503
 3811TIP3   OH232923   6.746   5.747   1.938  0.1782  0.1058 -0.8114
 3811TIP3    H132924   6.781   5.690   2.006  1.8572  1.9233 -0.0844
 3811TIP3    H232925   6.662   5.777   1.973  0.0889 -0.5634 -0.4429
 3812TIP3   OH232926   4.091   6.296   3.264 -0.1203 -0.0325 -0.2560
 3812TIP3    H132927   4.029   6.229   3.292 -0.1188 -0.2819 -0.8353
 3812TIP3    H232928   4.054   6.378   3.296  0.1844 -0.3691  0.9728
 3813TIP3   OH232929   5.499   3.469   1.424  0.5016 -0.4264 -0.3314
 3813TIP3    H132930   5.515   3.490   1.332 -1.0772 -2.7827 -1.1993
 3813TIP3    H232931   5.452   3.544   1.459 -1.3616 -0.6782 -2.2100
 3814TIP3   OH232932   4.833   4.813  13.302  0.5768  0.1703 -0.7677
 3814TIP3    H132933   4.758   4.860  13.266  0.9931 -0.8259 -2.9801
 3814TIP3    H232934   4.801   4.724  13.318  0.8814  0.1360 -0.3172
 3815TIP3   OH232935   5.342   6.248  16.392  0.3942  0.2736 -0.4239
 3815TIP3    H132936   5.318   6.170  16.443 -1.2634  0.6961 -0.5384
 3815TIP3    H232937   5.379   6.212  16.311  0.0696 -0.4022 -0.2805
 3816TIP3   OH232938   1.434   5.704   5.108  0.3332  0.4846 -0.2075
 3816TIP3    H132939   1.523   5.708   5.142 -0.0158 -0.7911  0.9199
 3816TIP3    H232940   1.434   5.629   5.048 -0.5057 -0.8699  1.4538
 3817TIP3   OH232941   2.333   1.418  13.758 -0.1116 -0.3720  1.0662
 3817TIP3    H132942   2.245   1.397  13.792 -0.4322  0.2199  0.5971
 3817TIP3    H232943   2.350   1.507  13.789 -0.3354  0.1135 -0.1849
 3818TIP3   OH232944   3.444   5.483  13.595  0.0779  0.6339 -0.0715
 3818TIP3    H132945   3.417   5.482  13.503  1.5467 -0.0016 -0.5122
 3818TIP3    H232946   3.465   5.575  13.613 -1.1442  0.9201 -0.0853
 3819TIP3   OH232947   6.356   2.254  14.237 -0.2076 -0.4166 -0.0177
 3819TIP3    H132948   6.447   2.228  14.223 -0.1032 -0.3427  0.5181
 3819TIP3    H232949   6.327   2.201  14.311 -1.0710 -1.5301 -1.1534
 3820TIP3   OH232950   2.547   5.147  14.533 -0.3332 -0.5443 -0.3272
 3820TIP3    H132951   2.602   5.068  14.538 -0.8520 -0.8576  0.4036
 3820TIP3    H232952   2.476   5.131  14.594 -0.8554  0.1762 -0.7435
 3821TIP3   OH232953   6.711   1.696  15.106  0.2008 -0.3399  0.0527
 3821TIP3    H132954   6.661   1.750  15.167 -0.4286 -1.0958  0.2068
 3821TIP3    H232955   6.699   1.739  15.021  0.0537  0.0032  0.2447
 3822TIP3   OH232956   3.822   2.877   5.361  0.6709  0.1561 -0.3684
 3822TIP3    H132957   3.758   2.884   5.291  2.4450  0.7173 -1.9628
 3822TIP3    H232958   3.898   2.835   5.321  1.5930  0.1768  1.2957
 3823TIP3   OH232959   6.236   5.272  14.627 -0.4342  0.0725 -0.0791
 3823TIP3    H132960   6.245   5.361  14.595  1.5008 -0.4755 -1.1218
 3823TIP3    H232961   6.163   5.276  14.688 -1.6545  1.9401 -1.6182
 3824TIP3   OH232962   5.187   6.696  15.677  0.2077 -0.4231  0.4028
 3824TIP3    H132963   5.243   6.621  15.656 -0.2216 -1.0646  1.5053
 3824TIP3    H232964   5.120   6.660  15.735 -0.5676  0.6195  0.1521
 3825TIP3   OH232965   6.066   5.290  14.155  0.1802 -0.2245  0.7685
 3825TIP3    H132966   6.032   5.371  14.117 -0.4334 -0.4300  0.8800
 3825TIP3    H232967   6.099   5.316  14.241  0.9204  0.1020  0.3926
 3826TIP3   OH232968   2.543   5.658  14.353 -0.4274 -0.0294  0.5950
 3826TIP3    H132969   2.526   5.615  14.270  0.3733 -1.4561  1.1658
 3826TIP3    H232970   2.544   5.588  14.418  3.4948  0.4522  1.1775
 3827TIP3   OH232971   4.029   0.779   5.366  0.5846 -0.5429  0.2720
 3827TIP3    H132972   4.075   0.862   5.354 -0.0019 -0.2963 -0.3031
 3827TIP3    H232973   4.091   0.712   5.336  1.1454 -0.3304  0.9573
 3828TIP3   OH232974   1.421   5.730  15.521 -0.0600  0.8670  0.1816
 3828TIP3    H132975   1.396   5.803  15.465 -0.0058  0.9347  0.2453
 3828TIP3    H232976   1.462   5.667  15.462 -4.3995 -1.2824 -0.7796
 3829TIP3   OH232977   5.441   1.157   3.138 -0.3155 -0.3358  0.5260
 3829TIP3    H132978   5.414   1.067   3.153 -0.8273 -0.1569  0.6587
 3829TIP3    H232979   5.537   1.153   3.136 -0.3495 -1.5368 -3.3033
 3830TIP3   OH232980   3.055   3.690   2.875  0.4941  0.0553 -0.0256
 3830TIP3    H132981   3.056   3.754   2.804 -0.7413  0.2821  0.1517
 3830TIP3    H232982   2.964   3.660   2.879  0.6699 -0.3565  1.1028
 3831TIP3   OH232983   6.552   1.055   0.514  0.1573 -0.2450 -0.2251
 3831TIP3    H132984   6.459   1.040   0.499 -0.1106  0.1800  1.0037
 3831TIP3    H232985   6.590   1.057   0.426 -0.7251 -2.0513 -0.6632
 3832TIP3   OH232986   4.685   4.869   1.834 -0.1217  0.6937 -0.4566
 3832TIP3    H132987   4.593   4.851   1.818 -0.3985  0.5205  1.2981
 3832TIP3    H232988   4.686   4.936   1.902  1.0661 -0.9420  1.1800
 3833TIP3   OH232989   1.411   3.985   0.375 -0.8394  0.6565  0.1215
 3833TIP3    H132990   1.409   3.902   0.328 -0.4417  1.0449 -0.5972
 3833TIP3    H232991   1.493   3.982   0.424 -2.2617 -0.6575  2.5014
 3834TIP3   OH232992   4.746   2.444  15.574  0.3547  0.0503 -0.5199
 3834TIP3    H132993   4.716   2.477  15.489 -0.8043  1.5255  0.4530
 3834TIP3    H232994   4.678   2.471  15.636  1.0196 -1.3159  0.8319
 3835TIP3   OH232995   4.931   5.859  13.660 -0.2815 -0.0016 -0.5125
 3835TIP3    H132996   4.992   5.797  13.701  0.8977  1.6346  0.2828
 3835TIP3    H232997   4.851   5.852  13.712  0.0317 -0.4801 -0.0839
 3836TIP3   OH232998   3.202   4.469  11.656 -0.2062  0.0086 -0.3592
 3836TIP3    H132999   3.191   4.552  11.609  2.7001  0.7154  0.1159
 3836TIP3    H233000   3.235   4.494  11.742 -0.4838 -1.5863  0.2315
 3837TIP3   OH233001   4.152   4.175   4.536 -0.7307 -0.7236 -0.0546
 3837TIP3    H133002   4.075   4.141   4.580 -1.1027  0.2357  0.0450
 3837TIP3    H233003   4.118   4.238   4.472  0.0476  1.0212  1.1897
 3838TIP3   OH233004   5.913   3.513   3.571  0.0103  0.1996 -0.5139
 3838TIP3    H133005   5.976   3.443   3.591  0.9331  1.3119  0.5103
 3838TIP3    H233006   5.828   3.471   3.580  0.5147 -0.4243  1.6559
 3839TIP3   OH233007   5.521   5.644   3.886  0.1442  0.2408  0.1472
 3839TIP3    H133008   5.537   5.556   3.921  0.5281  1.4947  3.3183
 3839TIP3    H233009   5.433   5.666   3.917 -0.1467  0.8094 -1.0521
 3840TIP3   OH233010   5.661   1.712  13.512  0.1986  0.0757  0.1886
 3840TIP3    H133011   5.636   1.712  13.604 -1.8205 -0.7094 -0.3328
 3840TIP3    H233012   5.594   1.766  13.469  0.4251 -0.5524 -0.9814
 3841TIP3   OH233013   4.097   0.671   2.580 -1.2886  0.0209  0.8401
 3841TIP3    H133014   4.071   0.616   2.654 -1.5549 -0.1660  0.6065
 3841TIP3    H233015   4.176   0.629   2.545 -1.6701 -0.3963  0.4644
 3842TIP3   OH233016   3.544   3.853   0.687  0.7223  0.3686 -0.2049
 3842TIP3    H133017   3.565   3.922   0.750  0.1154 -1.3371  1.9382
 3842TIP3    H233018   3.449   3.840   0.697  0.7141 -0.3045 -1.0861
 3843TIP3   OH233019   0.634   5.784   2.862  0.1813  0.2720 -0.4725
 3843TIP3    H133020   0.634   5.823   2.950 -1.1527 -0.6486 -0.0550
 3843TIP3    H233021   0.542   5.775   2.840  0.4622 -2.0855 -0.8190
 3844TIP3   OH233022   5.553   5.071   5.133  0.3259 -0.1421 -0.3418
 3844TIP3    H133023   5.597   4.991   5.101  0.4415 -0.2580  0.1003
 3844TIP3    H233024   5.524   5.048   5.221  1.0620  0.5699  0.0910
 3845TIP3   OH233025   2.825   5.039   2.441  0.5016 -0.5658 -0.1954
 3845TIP3    H133026   2.870   5.053   2.525  0.4851  0.5943 -0.3716
 3845TIP3    H233027   2.893   5.005   2.383  0.9518  0.3404 -0.2100
 3846TIP3   OH233028   3.909   0.566   5.980 -0.3496 -0.1091 -0.0700
 3846TIP3    H133029   3.890   0.553   6.073 -1.4956  0.1786 -0.2591
 3846TIP3    H233030   3.853   0.639   5.954 -0.8952 -0.9396 -1.2597
 3847TIP3   OH233031   0.438   2.686  15.518  0.1491  0.4012 -0.2706
 3847TIP3    H133032   0.532   2.700  15.531 -0.0303  0.2595  1.2529
 3847TIP3    H233033   0.411   2.759  15.462  0.8744  1.3021  0.5422
 3848TIP3   OH233034   3.332   6.389   1.040  0.1536 -0.5810  0.9527
 3848TIP3    H133035   3.339   6.307   0.992  0.8982  0.2010 -0.3132
 3848TIP3    H233036   3.418   6.402   1.079  0.3584  0.0956  0.2974
 3849TIP3   OH233037   0.324   0.250  11.636 -0.3401  0.0975 -0.0247
 3849TIP3    H133038   0.329   0.288  11.724  0.5037  0.7665 -0.3612
 3849TIP3    H233039   0.378   0.171  11.642  1.0433  0.9926 -0.3657
 3850TIP3   OH233040   0.181   2.036  14.866  0.2460 -0.0314  0.0082
 3850TIP3    H133041   0.119   2.006  14.800  1.6546  0.4841 -1.6026
 3850TIP3    H233042   0.160   1.986  14.944 -1.4755 -0.6359 -0.8311
 3851TIP3   OH233043   3.866   2.277   0.949 -1.0346 -0.1710 -0.2480
 3851TIP3    H133044   3.897   2.366   0.963 -0.0148 -0.5208 -0.2064
 3851TIP3    H233045   3.808   2.283   0.873  0.5669  0.2035 -1.4609
 3852TIP3   OH233046   5.184   5.336  15.147  0.3076  0.4987 -0.3093
 3852TIP3    H133047   5.099   5.315  15.185 -0.0408  0.2484 -1.2182
 3852TIP3    H233048   5.196   5.429  15.165 -0.7445  0.8388 -1.2840
 3853TIP3   OH233049   0.674   1.963   3.202 -0.3268 -0.1583 -0.4409
 3853TIP3    H133050   0.579   1.974   3.203 -0.4501 -1.1782  0.2326
 3853TIP3    H233051   0.693   1.918   3.120 -0.3769  0.3767 -0.7511
 3854TIP3   OH233052   0.578   6.572  11.251 -0.3448  0.7036 -0.5536
 3854TIP3    H133053   0.544   6.649  11.207  0.8625  1.8548  0.4937
 3854TIP3    H233054   0.668   6.563  11.219 -0.3474 -0.0363 -0.3696
 3855TIP3   OH233055   4.183   4.862  11.859  0.1604 -0.1851  0.2758
 3855TIP3    H133056   4.223   4.782  11.824  0.5434  0.1257 -0.0003
 3855TIP3    H233057   4.243   4.891  11.927 -0.1156 -0.2761  0.5587
 3856TIP3   OH233058   1.027   2.543  11.604 -0.1869  0.0465 -0.3815
 3856TIP3    H133059   1.073   2.567  11.685  0.1375  0.7476 -0.7695
 3856TIP3    H233060   0.938   2.523  11.633  0.0928 -0.3305  0.2392
 3857TIP3   OH233061   0.926   4.240  11.730  0.7927  0.1680 -0.7163
 3857TIP3    H133062   0.973   4.275  11.655 -0.4884  1.2459 -1.0369
 3857TIP3    H233063   0.872   4.313  11.761  0.0128 -0.7690  0.1858
 3858TIP3   OH233064   4.630   3.225   0.427 -0.0185 -0.0797 -0.2473
 3858TIP3    H133065   4.623   3.253   0.518 -0.0628  0.8738 -0.5383
 3858TIP3    H233066   4.567   3.279   0.380 -1.3008 -1.8092 -0.5835
 3859TIP3   OH233067   1.136   4.398  16.897  0.2858 -0.7623 -0.0042
 3859TIP3    H133068   1.098   4.485  16.904  1.9074 -0.1351  1.1674
 3859TIP3    H233069   1.112   4.368  16.810 -2.2228 -0.0768  0.4132
 3860TIP3   OH233070   2.869   1.779   3.049  0.0231  0.2022  0.0286
 3860TIP3    H133071   2.907   1.804   3.134  1.3884 -0.7575 -0.2941
 3860TIP3    H233072   2.942   1.785   2.987 -0.3145 -1.7796 -0.5828
 3861TIP3   OH233073   0.863   0.613  13.628 -0.1074  0.3600 -0.2064
 3861TIP3    H133074   0.920   0.688  13.613 -0.0643  0.2502 -0.6052
 3861TIP3    H233075   0.911   0.558  13.689  0.4263  0.0400 -0.9051
 3862TIP3   OH233076   4.401   5.337   4.473 -0.2545  0.0311 -0.2514
 3862TIP3    H133077   4.475   5.306   4.525 -1.5024 -2.0931  0.3013
 3862TIP3    H233078   4.403   5.284   4.394 -1.1261  0.0271 -0.2761
 3863TIP3   OH233079   6.785   3.490   0.906 -0.7148 -0.2757  0.1770
 3863TIP3    H133080   6.716   3.544   0.869 -0.3378  0.6017  0.7553
 3863TIP3    H233081   6.836   3.549   0.961  1.3963 -0.5559 -1.4148
 3864TIP3   OH233082   0.203   1.925   0.686  0.5846  0.4069  0.0574
 3864TIP3    H133083   0.193   1.851   0.747  0.1938 -0.7555 -1.3909
 3864TIP3    H233084   0.117   1.934   0.645  0.6551  1.6377  0.1626
 3865TIP3   OH233085   0.861   2.281  11.009 -0.2370 -0.5532  0.6260
 3865TIP3    H133086   0.888   2.372  11.020 -1.5735  0.0368 -0.7924
 3865TIP3    H233087   0.796   2.267  11.077 -2.6842  0.6897 -1.3558
 3866TIP3   OH233088   0.034   3.393   3.711  0.5499 -0.2068 -0.6201
 3866TIP3    H133089   0.111   3.419   3.761 -0.6291  1.3308  0.4648
 3866TIP3    H233090  -0.013   3.333   3.768 -0.1087  0.5015 -0.4031
 3867TIP3   OH233091   3.629   6.676  13.772  0.2402  0.0711  0.2208
 3867TIP3    H133092   3.656   6.608  13.710  1.2230  0.6895 -0.0464
 3867TIP3    H233093   3.534   6.683  13.761 -0.0441 -2.0933  1.1212
 3868TIP3   OH233094   5.926   0.357   4.941  0.2844 -0.1618 -0.7149
 3868TIP3    H133095   5.866   0.431   4.950  0.4094 -0.0286 -0.9711
 3868TIP3    H233096   6.011   0.397   4.925  0.0757 -0.3817 -2.4836
 3869TIP3   OH233097   0.024   1.041   4.849  0.1739 -0.9190 -0.5918
 3869TIP3    H133098   0.061   0.993   4.774 -0.5323 -0.2001 -1.4209
 3869TIP3    H233099  -0.071   1.029   4.841 -0.0702  1.1658 -1.2245
 3870TIP3   OH233100   1.580   2.214  13.404  0.0836  0.2015 -0.0401
 3870TIP3    H133101   1.587   2.178  13.316 -1.8340 -0.4527  0.0579
 3870TIP3    H233102   1.492   2.251  13.409 -0.0238 -0.2320  1.7537
 3871TIP3   OH233103   6.363   3.801   5.890  0.0371  0.1388  0.6827
 3871TIP3    H133104   6.279   3.840   5.866 -0.5445 -2.1347 -1.2830
 3871TIP3    H233105   6.422   3.827   5.819  0.0712 -1.1297  0.2354
 3872TIP3   OH233106   0.405   2.584   2.744  0.2653  0.0029  0.0909
 3872TIP3    H133107   0.329   2.560   2.690  0.5590 -0.0610 -0.3001
 3872TIP3    H233108   0.476   2.596   2.681  0.5214  0.2997  0.4336
 3873TIP3   OH233109   2.008   3.289  12.397 -0.1812 -0.4912 -0.3675
 3873TIP3    H133110   2.092   3.279  12.352 -0.7603 -1.5881 -1.2031
 3873TIP3    H233111   2.023   3.255  12.485 -0.0816 -1.8287 -0.8962
 3874TIP3   OH233112   5.678   0.303  13.312  0.0599  0.0203  0.2728
 3874TIP3    H133113   5.614   0.371  13.334 -0.6322 -0.5939  0.1757
 3874TIP3    H233114   5.626   0.223  13.304  0.7865 -0.4107 -0.1959
 3875TIP3   OH233115   3.174   4.378  13.542 -0.3059  0.5475 -0.1860
 3875TIP3    H133116   3.129   4.461  13.524  0.3924  0.7564 -1.0387
 3875TIP3    H233117   3.133   4.345  13.622 -1.2713  1.2283 -0.3889
 3876TIP3   OH233118   0.702   4.783   5.801  0.0644 -0.6392 -0.3062
 3876TIP3    H133119   0.684   4.756   5.711 -1.2022  1.1568 -0.6283
 3876TIP3    H233120   0.620   4.824   5.830  1.8283  2.6775  0.1747
 3877TIP3   OH233121   3.684   0.512   2.405 -0.2625 -0.6757  0.1133
 3877TIP3    H133122   3.613   0.571   2.381 -0.9772 -1.8047 -0.5952
 3877TIP3    H233123   3.725   0.489   2.322  0.2988 -0.8307  0.4273
 3878TIP3   OH233124   4.210   2.888   3.786  0.2486  0.3114 -0.5380
 3878TIP3    H133125   4.172   2.861   3.703 -0.9938  0.1271  0.0816
 3878TIP3    H233126   4.181   2.978   3.797  0.4775  0.3610 -0.3363
 3879TIP3   OH233127   1.773   2.313  12.900 -0.0509  0.5307  0.0386
 3879TIP3    H133128   1.699   2.253  12.897  1.3965 -1.4271  1.8439
 3879TIP3    H233129   1.836   2.275  12.838  0.9386  0.0389  1.3197
 3880TIP3   OH233130   5.893   0.627   3.984  0.1257  0.8336  0.0066
 3880TIP3    H133131   5.815   0.678   4.004 -1.2931 -1.2148 -0.1600
 3880TIP3    H233132   5.892   0.555   4.047  2.3855  1.2654  0.6071
 3881TIP3   OH233133   0.296   4.918  12.662 -0.4225 -0.0735 -0.2194
 3881TIP3    H133134   0.372   4.955  12.616  0.6968 -1.6678  0.3117
 3881TIP3    H233135   0.329   4.838  12.703 -2.4732 -0.9441 -0.2129
 3882TIP3   OH233136   6.819   2.051   0.342  0.0805  0.5802 -0.3881
 3882TIP3    H133137   6.877   1.975   0.345  1.3132  1.4879 -0.9090
 3882TIP3    H233138   6.834   2.090   0.256 -0.7641  1.2466 -0.2424
 3883TIP3   OH233139   4.874   6.536  15.630 -0.6587  0.0222  0.0575
 3883TIP3    H133140   4.803   6.472  15.636 -0.9155  0.2891 -0.1064
 3883TIP3    H233141   4.923   6.526  15.712 -1.3849  0.4261  0.5423
 3884TIP3   OH233142   3.545   4.075   5.027 -0.2209 -0.4271  0.1428
 3884TIP3    H133143   3.527   4.169   5.025  0.0229 -0.2897  2.6518
 3884TIP3    H233144   3.628   4.066   4.980 -0.2873  0.5970 -0.1901
 3885TIP3   OH233145   3.790   3.840  14.582 -0.0791  0.4386 -0.3200
 3885TIP3    H133146   3.723   3.857  14.649  0.7849  0.6587  0.4904
 3885TIP3    H233147   3.815   3.927  14.551  0.3223  0.3854 -0.1425
 3886TIP3   OH233148   3.449   6.000   3.420  0.3514 -0.4354  0.0734
 3886TIP3    H133149   3.403   6.067   3.368  0.3749 -0.1947  0.3642
 3886TIP3    H233150   3.449   5.923   3.363  0.9126  0.0039 -0.5324
 3887TIP3   OH233151   2.733   3.048   5.292  0.0907  0.0055 -0.1007
 3887TIP3    H133152   2.752   3.072   5.202  0.8126  1.0949  0.3315
 3887TIP3    H233153   2.641   3.071   5.305  0.1853  0.4995 -0.3391
 3888TIP3   OH233154   3.578   2.705   4.836  0.7072  0.7003 -0.1218
 3888TIP3    H133155   3.485   2.726   4.846  0.6260 -0.6916  2.3418
 3888TIP3    H233156   3.580   2.644   4.761 -0.5412 -0.2964  0.6225
 3889TIP3   OH233157   5.726   1.709  16.705  0.2522  1.0398 -0.3953
 3889TIP3    H133158   5.684   1.789  16.673  0.7948  0.4829 -2.5663
 3889TIP3    H233159   5.775   1.737  16.782 -0.6700  2.5185 -0.3272
 3890TIP3   OH233160   0.632   2.380   5.498 -0.1322  0.4630 -0.1935
 3890TIP3    H133161   0.640   2.405   5.590  1.4059  0.2024 -0.2447
 3890TIP3    H233162   0.593   2.292   5.501  0.1201  0.3606  0.2226
 3891TIP3   OH233163   1.118   6.626   0.423  0.0026  0.3018  0.0906
 3891TIP3    H133164   1.108   6.698   0.485  0.4764  0.7518 -0.3501
 3891TIP3    H233165   1.047   6.565   0.445 -1.7511  1.9278 -0.9467
 3892TIP3   OH233166   6.327   2.193  11.483  0.6770 -0.2157 -0.3704
 3892TIP3    H133167   6.283   2.169  11.564  1.1926  2.3684  0.7426
 3892TIP3    H233168   6.268   2.164  11.413  0.2684 -2.5222  0.8897
 3893TIP3   OH233169   5.113   0.163  14.973 -0.5795 -0.4473  0.0269
 3893TIP3    H133170   5.071   0.198  15.051 -0.9406 -2.3332  0.6974
 3893TIP3    H233171   5.202   0.199  14.976 -0.6788 -0.2820  1.1559
 3894TIP3   OH233172   1.303   6.170  12.731 -0.1245  0.1887  0.2300
 3894TIP3    H133173   1.301   6.155  12.637 -0.3514  0.9722  0.1049
 3894TIP3    H233174   1.340   6.090  12.768  1.7241  0.6100 -0.6780
 3895TIP3   OH233175   6.323   5.195   5.653  0.4254  0.2079  0.0576
 3895TIP3    H133176   6.316   5.289   5.636  0.3539 -0.1543 -2.1029
 3895TIP3    H233177   6.260   5.178   5.724  0.1121  1.7165  0.1420
 3896TIP3   OH233178   5.211   0.266   4.711  0.3824 -0.4776  0.6018
 3896TIP3    H133179   5.174   0.187   4.671  0.1830 -0.0714 -0.0213
 3896TIP3    H233180   5.294   0.237   4.749  0.0711 -1.0970  0.8146
 3897TIP3   OH233181   3.483   5.385   1.588 -0.4793  0.0224  0.2289
 3897TIP3    H133182   3.484   5.299   1.630 -2.1012 -0.3872 -0.5218
 3897TIP3    H233183   3.557   5.431   1.626  0.5854 -1.7974  0.4474
 3898TIP3   OH233184   3.105   3.066   3.565  0.6418 -0.2427  0.4490
 3898TIP3    H133185   3.058   2.988   3.535  0.6840 -0.2199  0.3267
 3898TIP3    H233186   3.193   3.034   3.585 -0.0796 -0.7804  2.9541
 3899TIP3   OH233187   6.716   3.184   3.837  0.0945 -0.0262 -0.0144
 3899TIP3    H133188   6.662   3.162   3.913  2.1450  0.8118  1.7066
 3899TIP3    H233189   6.787   3.120   3.839  2.3333  2.4621  1.0639
 3900TIP3   OH233190   2.711   6.084   5.577 -0.4408  0.3522  0.3350
 3900TIP3    H133191   2.753   6.011   5.622  0.6668  0.8272  0.0802
 3900TIP3    H233192   2.744   6.163   5.621  0.9044  0.8384 -1.4725
 3901TIP3   OH233193   0.328   2.990   3.155 -0.3087 -0.1062 -0.2148
 3901TIP3    H133194   0.236   3.006   3.133 -0.2929 -0.8324 -0.8571
 3901TIP3    H233195   0.325   2.914   3.214 -0.0542 -0.8496 -1.1405
 3902TIP3   OH233196   2.684   5.441  15.512 -0.0703  0.6385 -0.1103
 3902TIP3    H133197   2.771   5.452  15.550  0.0509  2.4386 -0.8367
 3902TIP3    H233198   2.653   5.357  15.546  1.2263  0.8020  1.5526
 3903TIP3   OH233199   3.930   2.165  12.447  0.1620  0.2959  0.1979
 3903TIP3    H133200   3.941   2.101  12.518  1.0945 -0.0238 -0.2230
 3903TIP3    H233201   3.882   2.237  12.487  0.3246 -0.0603  1.0508
 3904TIP3   OH233202   5.894   4.394   6.679  0.1138  0.1509 -0.3244
 3904TIP3    H133203   5.930   4.384   6.767 -0.7537 -1.7852 -0.1618
 3904TIP3    H233204   5.802   4.417   6.692  0.3108  1.2421 -0.7477
 3905TIP3   OH233205   2.455   0.385  13.921 -0.5786  0.5282 -0.7441
 3905TIP3    H133206   2.536   0.335  13.931 -0.8895  0.1279 -0.1913
 3905TIP3    H233207   2.392   0.339  13.976 -0.6219  2.0871  0.5204
 3906TIP3   OH233208   3.030   4.804   0.429  0.3108  0.0546 -0.2478
 3906TIP3    H133209   3.083   4.851   0.365 -0.8912  0.2086 -1.1483
 3906TIP3    H233210   2.955   4.862   0.446 -0.2780 -0.7597 -0.0290
 3907TIP3   OH233211   3.047   3.546   0.790  0.0702 -0.8449 -0.3974
 3907TIP3    H133212   3.137   3.537   0.821  0.2559 -0.4050 -0.7978
 3907TIP3    H233213   3.054   3.598   0.710 -0.8391  2.1812  1.3637
 3908TIP3   OH233214   0.657   2.075   4.020 -0.1142  0.0440 -0.3521
 3908TIP3    H133215   0.571   2.117   4.020 -0.4980 -0.7246 -1.1734
 3908TIP3    H233216   0.646   1.997   3.966  1.1358  0.0117 -0.5872
 3909TIP3   OH233217   4.450   4.911   4.508 -0.3850  0.0771  0.5067
 3909TIP3    H133218   4.391   4.930   4.434 -1.9382  1.7153  2.0981
 3909TIP3    H233219   4.524   4.970   4.495 -0.1761 -0.3563 -0.2858
 3910TIP3   OH233220   2.877   1.874  16.578  0.2138  0.1743 -0.5345
 3910TIP3    H133221   2.822   1.852  16.653 -1.5794  1.9201 -1.2766
 3910TIP3    H233222   2.958   1.907  16.616  0.0960 -0.8044  0.5918
 3911TIP3   OH233223   3.314   4.561  16.071 -0.3778  0.4895  0.2370
 3911TIP3    H133224   3.291   4.492  16.008  2.9555 -1.1861  0.7510
 3911TIP3    H233225   3.234   4.575  16.121 -2.1085 -0.5901 -2.1038
 3912TIP3   OH233226   4.757   1.154  15.501  0.6382  0.0571  0.0938
 3912TIP3    H133227   4.847   1.170  15.528  1.1814 -1.8650 -0.5073
 3912TIP3    H233228   4.750   1.192  15.414  0.7872  0.4692  0.2647
 3913TIP3   OH233229   2.607   4.441  15.485  0.3127 -0.6829 -0.6624
 3913TIP3    H133230   2.627   4.347  15.482  2.3324 -0.2395 -1.8405
 3913TIP3    H233231   2.518   4.445  15.520  0.5491 -2.9934  0.3263
 3914TIP3   OH233232   6.452   6.248   3.436  0.1008 -0.0951 -0.0840
 3914TIP3    H133233   6.443   6.168   3.488  0.5335 -0.2992 -0.3218
 3914TIP3    H233234   6.465   6.216   3.346 -0.6456  0.2540 -0.3166
 3915TIP3   OH233235   3.636   5.942   0.240 -0.6271  0.0728 -0.3069
 3915TIP3    H133236   3.699   6.012   0.223 -0.4913 -0.1842 -0.8794
 3915TIP3    H233237   3.651   5.917   0.331  2.7013 -2.5780 -1.4661
 3916TIP3   OH233238   0.644   1.779   4.952  0.0994 -0.1899  0.0195
 3916TIP3    H133239   0.629   1.871   4.930  1.0824  0.2566  1.1288
 3916TIP3    H233240   0.579   1.759   5.019  0.3872 -0.0650  0.3404
 3917TIP3   OH233241   4.633   0.502   4.329 -0.0977 -0.0056 -0.2232
 3917TIP3    H133242   4.538   0.495   4.323 -0.3181  1.1501  1.6330
 3917TIP3    H233243   4.656   0.449   4.405  0.3785  2.4358  1.3600
 3918TIP3   OH233244   3.630   2.873  15.160 -0.3257 -0.2968 -0.2780
 3918TIP3    H133245   3.535   2.861  15.152 -0.5191  0.1542  1.1928
 3918TIP3    H233246   3.660   2.884  15.070 -1.7448  0.0540 -0.7321
 3919TIP3   OH233247   2.484   3.285  15.318  0.3409 -0.3689 -0.4487
 3919TIP3    H133248   2.459   3.279  15.411  1.8727  0.6832  0.0510
 3919TIP3    H233249   2.487   3.379  15.300 -0.5377 -0.5739 -1.7506
 3920TIP3   OH233250   0.692   4.382   0.918  0.1554 -0.4695 -0.7637
 3920TIP3    H133251   0.744   4.420   0.989 -1.6108  0.1419  0.2448
 3920TIP3    H233252   0.729   4.294   0.906 -0.3165 -1.0723  1.8129
 3921TIP3   OH233253   5.352   3.357  16.481  0.4955 -0.3408 -0.4437
 3921TIP3    H133254   5.427   3.326  16.430  1.8976  1.3832  0.4879
 3921TIP3    H233255   5.352   3.452  16.467 -1.0837 -0.2514  0.1318
 3922TIP3   OH233256   2.756   5.262   5.062 -0.2806  0.3606  0.7640
 3922TIP3    H133257   2.711   5.312   5.130  0.7009  1.1010  0.8808
 3922TIP3    H233258   2.802   5.328   5.010  2.3428 -0.5067  1.8761
 3923TIP3   OH233259   1.485   6.653  13.003 -0.5423 -0.1293 -0.3099
 3923TIP3    H133260   1.475   6.687  13.092 -1.1795 -0.8816 -0.0917
 3923TIP3    H233261   1.451   6.723  12.947 -1.5305 -0.2626  0.1207
 3924TIP3   OH233262   4.966   4.054   5.737  0.0654  0.2165 -0.3940
 3924TIP3    H133263   4.888   4.082   5.690  0.4550  2.7899  0.3774
 3924TIP3    H233264   4.934   4.028   5.823 -0.0569  0.4878 -0.3544
 3925TIP3   OH233265   5.401   5.314   1.909 -0.6548  0.2085 -0.1540
 3925TIP3    H133266   5.354   5.355   1.982  0.1645 -1.0761  1.1253
 3925TIP3    H233267   5.460   5.382   1.877  0.4872  0.1736  1.7658
 3926TIP3   OH233268   0.545   4.896   4.192  0.1768 -0.2037  0.1596
 3926TIP3    H133269   0.535   4.990   4.173 -0.3543 -0.1962  0.4635
 3926TIP3    H233270   0.511   4.886   4.281  2.0453 -0.3489  0.8756
 3927TIP3   OH233271   3.238   5.817  13.425  0.4809 -0.1150  0.2810
 3927TIP3    H133272   3.281   5.894  13.387 -0.7969  0.4921  0.0329
 3927TIP3    H233273   3.300   5.746  13.411  1.0258  0.5686 -0.8775
 3928TIP3   OH233274   3.907   6.677   4.748  0.8237 -0.4424 -0.3067
 3928TIP3    H133275   3.886   6.767   4.722 -0.4697 -1.1176 -1.6282
 3928TIP3    H233276   3.993   6.660   4.708 -0.7174 -1.1457 -3.4222
 3929TIP3   OH233277   6.719   0.622   3.680  0.3226 -0.4744 -0.1562
 3929TIP3    H133278   6.723   0.595   3.588 -0.5005 -1.0254 -0.0403
 3929TIP3    H233279   6.628   0.649   3.693  1.0021  1.8137 -0.1090
 3930TIP3   OH233280   0.069   2.602  14.922 -0.0288  0.0023 -0.0010
 3930TIP3    H133281   0.053   2.536  14.990 -0.8097  0.9907  0.8041
 3930TIP3    H233282   0.131   2.663  14.963 -0.3692  0.5080 -0.2368
 3931TIP3   OH233283   3.825   6.120  11.832  0.1619  0.0049 -0.0020
 3931TIP3    H133284   3.889   6.080  11.772 -0.8285  0.8648 -1.6642
 3931TIP3    H233285   3.782   6.046  11.874  2.0279 -0.5942  0.9244
 3932TIP3   OH233286   6.163   1.119   0.816  0.2933 -0.0145 -0.0159
 3932TIP3    H133287   6.131   1.165   0.739 -2.4995 -0.7927  0.6477
 3932TIP3    H233288   6.218   1.183   0.861 -0.4173  1.3956 -1.1207
 3933TIP3   OH233289   2.068   0.352  16.348 -0.5487 -0.4376 -0.1400
 3933TIP3    H133290   2.013   0.319  16.419 -0.7989 -2.3994 -1.2019
 3933TIP3    H233291   2.006   0.382  16.282 -0.3536 -1.7183 -0.9172
 3934TIP3   OH233292   4.269   2.588   6.642 -0.3226  0.0419 -0.1026
 3934TIP3    H133293   4.347   2.562   6.591 -1.0157  0.8165 -1.5799
 3934TIP3    H233294   4.215   2.509   6.644  0.6476 -0.6069  1.2347
 3935TIP3   OH233295   0.996   1.887  14.671 -0.7258 -0.4386  0.0375
 3935TIP3    H133296   1.010   1.812  14.729 -0.7351  1.0458  1.9917
 3935TIP3    H233297   0.917   1.864  14.621 -0.8033 -1.6638  0.7064
 3936TIP3   OH233298   4.920   3.230   6.310 -0.2180 -0.2796  0.0818
 3936TIP3    H133299   4.840   3.277   6.287  0.4679  0.3668 -1.0154
 3936TIP3    H233300   4.957   3.279   6.383  0.2507  0.6201 -0.7549
 3937TIP3   OH233301   3.226   2.232  11.632  0.4238 -0.3499  0.1749
 3937TIP3    H133302   3.160   2.203  11.569  0.0962  1.0269 -0.1231
 3937TIP3    H233303   3.181   2.231  11.716  0.4630 -0.8660  0.1900
 3938TIP3   OH233304   4.514   2.500   0.059 -1.1460  0.6710  0.5109
 3938TIP3    H133305   4.451   2.538   0.120 -0.2444  1.6338  0.8669
 3938TIP3    H233306   4.577   2.455   0.115 -1.2971  0.0524  0.1832
 3939TIP3   OH233307   6.702   3.067  13.124  0.0609  0.1823  0.3624
 3939TIP3    H133308   6.798   3.070  13.120  0.1197 -0.2518  1.3232
 3939TIP3    H233309   6.679   3.138  13.184 -0.2014  0.0107  0.4633
 3940TIP3   OH233310   5.627   4.053   2.412 -0.0159 -0.2234 -0.8188
 3940TIP3    H133311   5.587   3.980   2.364  1.7851 -2.3081  0.7239
 3940TIP3    H233312   5.564   4.073   2.481 -0.4768 -0.4181 -1.1794
 3941TIP3   OH233313   0.025   0.380   2.232  0.6645  0.0320  0.0969
 3941TIP3    H133314  -0.024   0.452   2.193  0.4309 -1.0845 -1.7006
 3941TIP3    H233315   0.103   0.422   2.269  0.1258  1.3089 -0.1857
 3942TIP3   OH233316   6.196   5.374  16.973 -0.3015 -1.0693  0.3212
 3942TIP3    H133317   6.128   5.334  17.027 -0.0341 -1.8995  0.0413
 3942TIP3    H233318   6.272   5.381  17.031 -1.5780  3.0072  1.7228
 3943TIP3   OH233319   1.117   2.565  16.095  0.2602  0.1608  0.2523
 3943TIP3    H133320   1.203   2.543  16.129  0.1893 -1.5000 -0.5676
 3943TIP3    H233321   1.109   2.660  16.108  1.9106  0.2209  0.9611
 3944TIP3   OH233322   3.303   0.875  13.303 -0.2239  0.3387  0.4882
 3944TIP3    H133323   3.378   0.859  13.361  0.8299 -0.4435 -1.0625
 3944TIP3    H233324   3.226   0.868  13.360  0.6634 -2.2880  1.4341
 3945TIP3   OH233325   3.341   2.441  11.751 -0.0190  0.4632  0.0647
 3945TIP3    H133326   3.301   2.367  11.705 -0.1898  0.5137  0.1299
 3945TIP3    H233327   3.267   2.497  11.774 -0.0099  0.1143  0.9773
 3946TIP3   OH233328   4.286   2.398  10.727  0.1903  0.1836 -0.2481
 3946TIP3    H133329   4.282   2.387  10.632 -1.2909  1.3163 -0.3317
 3946TIP3    H233330   4.198   2.426  10.752  1.1713  2.1112  1.1684
 3947TIP3   OH233331   0.363   5.609   2.612  0.1667  0.5148  0.0069
 3947TIP3    H133332   0.415   5.538   2.651 -0.8883 -0.0618  0.3934
 3947TIP3    H233333   0.414   5.688   2.627  0.3776  0.1190  1.4351
 3948TIP3   OH233334   2.782   6.696  13.345 -0.2636  0.4455 -0.2809
 3948TIP3    H133335   2.699   6.717  13.389  0.7829 -0.5570  2.2628
 3948TIP3    H233336   2.785   6.600  13.347  0.6527  0.4628 -0.9426
 3949TIP3   OH233337   0.544   4.339  13.625 -0.1491 -0.0090 -0.7130
 3949TIP3    H133338   0.597   4.417  13.639  0.2234 -0.1528 -1.3006
 3949TIP3    H233339   0.607   4.267  13.619 -0.3745 -0.1121 -1.9064
 3950TIP3   OH233340   1.697   3.312   3.381 -0.0649  0.4007 -0.7110
 3950TIP3    H133341   1.658   3.250   3.320  1.4999 -1.2357 -0.1055
 3950TIP3    H233342   1.641   3.390   3.376 -1.2949 -0.5628 -2.4681
 3951TIP3   OH233343   0.193   2.635  14.277  0.1506  0.3612 -0.4869
 3951TIP3    H133344   0.100   2.622  14.256 -0.0227 -0.7301  0.9016
 3951TIP3    H233345   0.193   2.694  14.352  0.5296 -0.4244  0.1386
 3952TIP3   OH233346   2.728   3.811  12.892  0.1510 -0.1124  0.1353
 3952TIP3    H133347   2.678   3.817  12.974 -0.8330 -0.0445 -0.4622
 3952TIP3    H233348   2.668   3.769  12.830  1.1909 -0.9496 -0.3191
 3953TIP3   OH233349   0.691   6.487   2.540  0.1541  0.4010 -0.0621
 3953TIP3    H133350   0.741   6.551   2.590  0.1458  0.6260 -0.3386
 3953TIP3    H233351   0.749   6.461   2.469  0.5057 -0.5936  0.5745
 3954TIP3   OH233352   3.437   5.227  13.325 -0.3841 -0.2988  0.0291
 3954TIP3    H133353   3.401   5.140  13.311 -0.2143 -0.4887  0.7823
 3954TIP3    H233354   3.430   5.270  13.239  0.5440 -1.4175 -0.6188
 3955TIP3   OH233355   6.335   5.749   0.205 -0.2229 -0.0525  0.6441
 3955TIP3    H133356   6.338   5.840   0.234 -3.2533  0.3891 -0.2408
 3955TIP3    H233357   6.376   5.750   0.118  1.0065  0.1911  1.2171
 3956TIP3   OH233358   6.608   3.936  13.007 -0.0528  0.0060  0.2124
 3956TIP3    H133359   6.521   3.945  13.045 -0.6028 -0.5409 -0.9039
 3956TIP3    H233360   6.602   3.859  12.950  1.1739 -0.0755  0.1620
 3957TIP3   OH233361   3.154   2.613  11.852  0.3533  0.3569 -0.2148
 3957TIP3    H133362   3.153   2.705  11.877 -0.1954  0.7009 -1.4454
 3957TIP3    H233363   3.070   2.599  11.808 -0.5048 -1.2726  1.8440
 3958TIP3   OH233364   1.761   3.577   4.482  0.6136 -1.0980  0.1482
 3958TIP3    H133365   1.699   3.650   4.478 -0.5465 -2.1869 -2.6899
 3958TIP3    H233366   1.717   3.511   4.536  1.7605  0.3271  2.9098
 3959TIP3   OH233367   3.335   4.574   3.901  0.1726 -0.0376  0.6152
 3959TIP3    H133368   3.359   4.523   3.824  0.0743  1.4293 -0.4240
 3959TIP3    H233369   3.413   4.575   3.956  0.6931  0.0587 -0.1243
 3960TIP3   OH233370   3.611   0.017  16.273  0.7027 -0.4416 -0.7379
 3960TIP3    H133371   3.562  -0.012  16.196 -1.4942 -1.5961  1.0201
 3960TIP3    H233372   3.561   0.090  16.308  0.3398 -1.4497  0.9194
 3961TIP3   OH233373   2.951   2.710   0.060 -0.1842  0.1829  0.5892
 3961TIP3    H133374   2.984   2.800   0.051  0.9436 -0.3320 -0.5731
 3961TIP3    H233375   2.858   2.717   0.041  0.1698  0.8966 -0.9863
 3962TIP3   OH233376   0.832   3.302   4.047 -0.2955  0.4782  0.2813
 3962TIP3    H133377   0.914   3.253   4.043  0.8787  2.3607  0.7609
 3962TIP3    H233378   0.805   3.310   3.955  0.4407  0.4664  0.0596
 3963TIP3   OH233379   2.053   0.172  16.619  0.0251 -0.3204  0.3460
 3963TIP3    H133380   2.008   0.096  16.656  1.4284 -1.3671 -0.0347
 3963TIP3    H233381   2.135   0.177  16.668  0.1358  0.6841  0.0683
 3964TIP3   OH233382   0.359   2.426  15.584  0.4866 -0.4546 -0.3716
 3964TIP3    H133383   0.410   2.363  15.532 -0.4174  0.5464 -2.5299
 3964TIP3    H233384   0.379   2.511  15.545 -0.1665  0.3449  0.9968
 3965TIP3   OH233385   3.010   5.158   1.580 -0.2601 -0.7018 -0.4416
 3965TIP3    H133386   3.049   5.246   1.575 -0.1523 -0.5242  2.5656
 3965TIP3    H233387   2.941   5.166   1.646 -0.5492 -2.7715 -0.4644
 3966TIP3   OH233388   0.428   5.380   3.197  0.4685 -0.1757 -0.0005
 3966TIP3    H133389   0.476   5.444   3.250  1.7791 -0.2555 -1.0613
 3966TIP3    H233390   0.454   5.295   3.231 -1.8393 -0.1718  1.8954
 3967TIP3   OH233391   0.147   0.985   1.279  0.4122 -0.8151  0.4368
 3967TIP3    H133392   0.200   1.039   1.339 -0.8389  0.4706  0.4320
 3967TIP3    H233393   0.204   0.969   1.204  0.0900  2.4838 -0.6032
 3968TIP3   OH233394   3.517   1.017   6.119 -0.7666  0.5209 -0.9552
 3968TIP3    H133395   3.425   0.997   6.105 -0.4782 -0.6133 -1.2883
 3968TIP3    H233396   3.556   0.934   6.144  0.1462  1.0200 -0.6830
 3969TIP3   OH233397   2.607   6.345   1.029  0.5207 -0.2915  0.0250
 3969TIP3    H133398   2.650   6.416   0.982 -0.2199  1.1828  1.4993
 3969TIP3    H233399   2.526   6.384   1.063 -0.5549 -2.2044 -0.2471
 3970TIP3   OH233400   6.022   0.684  16.483 -0.2341 -0.4501  0.0070
 3970TIP3    H133401   6.046   0.627  16.410 -0.4405 -0.5277 -0.0004
 3970TIP3    H233402   6.091   0.751  16.485 -1.8321  1.3450 -2.1496
 3971TIP3   OH233403   2.125   3.591   3.840  0.3341  0.4418  0.3805
 3971TIP3    H133404   2.170   3.520   3.795 -2.1558 -1.4587  0.7765
 3971TIP3    H233405   2.191   3.660   3.849  2.4308 -1.3130 -1.1597
 3972TIP3   OH233406   5.344   6.201   3.113 -0.1528  1.1855  0.5849
 3972TIP3    H133407   5.277   6.265   3.090 -0.9559 -0.5998 -2.3220
 3972TIP3    H233408   5.423   6.252   3.125 -1.2737  2.9533  0.5754
 3973TIP3   OH233409   5.311   3.072  11.521 -0.2321  0.4264  0.2112
 3973TIP3    H133410   5.282   3.120  11.598 -0.6352  0.9134 -0.2479
 3973TIP3    H233411   5.358   2.996  11.557 -1.8977 -0.2757  0.9514
 3974TIP3   OH233412   0.849   2.653  15.350  0.3489  0.3848  0.8372
 3974TIP3    H133413   0.940   2.627  15.342  0.0054 -0.8285  0.7399
 3974TIP3    H233414   0.805   2.609  15.277 -0.1625  1.6726  0.3608
 3975TIP3   OH233415   4.538   1.863  15.183 -1.0981 -0.2747  0.5513
 3975TIP3    H133416   4.499   1.864  15.095  1.4730 -1.7889 -0.6565
 3975TIP3    H233417   4.484   1.800  15.232  0.1615 -2.8618 -1.2850
 3976TIP3   OH233418   2.921   3.141  11.772 -0.1969  0.0899 -0.1976
 3976TIP3    H133419   2.996   3.197  11.795 -0.2482  0.4469 -0.8882
 3976TIP3    H233420   2.884   3.182  11.694 -1.0807 -0.1227  0.1046
 3977TIP3   OH233421   3.718   1.695  15.194 -0.3208  0.4712  0.1106
 3977TIP3    H133422   3.689   1.669  15.282  1.3582 -2.8471 -0.2216
 3977TIP3    H233423   3.676   1.631  15.136  1.5436  0.3558 -1.1237
 3978TIP3   OH233424   2.423   6.190  17.116  0.4074 -0.1128 -0.0873
 3978TIP3    H133425   2.494   6.179  17.052  0.0828  0.6915 -0.5921
 3978TIP3    H233426   2.397   6.281  17.107 -1.5981 -0.7532 -0.8410
 3979TIP3   OH233427   2.772   6.575  10.319  0.3788 -0.5542  0.0110
 3979TIP3    H133428   2.730   6.497  10.284  2.2171 -0.5464 -2.2870
 3979TIP3    H233429   2.834   6.541  10.383 -1.2845 -0.7110  1.6002
 3980TIP3   OH233430   4.607   3.075   0.773  0.0521 -0.5582  0.0665
 3980TIP3    H133431   4.694   3.035   0.763  0.0333 -0.4762 -0.4539
 3980TIP3    H233432   4.573   3.038   0.854  1.1786  0.5676  1.0724
 3981TIP3   OH233433   2.771   3.505  12.895 -0.5642 -0.0990 -0.0913
 3981TIP3    H133434   2.735   3.519  12.982  1.0289  1.3920  0.3481
 3981TIP3    H233435   2.823   3.425  12.903 -0.6478 -0.1188  0.2501
 3982TIP3   OH233436   5.911   2.343  16.054  0.2786 -0.2171  0.1779
 3982TIP3    H133437   5.953   2.302  16.130  0.6938 -0.5210 -0.2101
 3982TIP3    H233438   5.934   2.287  15.980  1.0839  0.8624 -0.4083
 3983TIP3   OH233439   5.475   5.632  12.934 -0.3081  0.2063 -0.5964
 3983TIP3    H133440   5.568   5.631  12.956 -0.0874  2.7649 -1.2950
 3983TIP3    H233441   5.434   5.682  13.004 -0.9388  0.3848 -1.0878
 3984TIP3   OH233442   1.665   4.692   2.339 -0.3812  0.1314  0.1558
 3984TIP3    H133443   1.646   4.599   2.352 -1.0545  0.3205  0.5489
 3984TIP3    H233444   1.710   4.696   2.254 -0.9943 -0.4703 -0.1974
 3985TIP3   OH233445   6.764   3.318  15.863  0.3522 -0.0166 -0.4813
 3985TIP3    H133446   6.740   3.304  15.955  2.4888 -0.6800  0.0180
 3985TIP3    H233447   6.707   3.259  15.814  0.6546 -1.2407  0.6089
 3986TIP3   OH233448   5.287   3.528  13.121  0.5905  0.2755  0.4178
 3986TIP3    H133449   5.256   3.579  13.196  1.5699 -1.8921  2.3441
 3986TIP3    H233450   5.211   3.475  13.096  0.7965 -0.2899  0.9960
 3987TIP3   OH233451   0.770   5.057   2.964 -0.6931 -0.1785  0.1934
 3987TIP3    H133452   0.851   5.103   2.986 -1.3193  1.5805 -1.0612
 3987TIP3    H233453   0.718   5.062   3.044 -0.7154  1.2408  0.1040
 3988TIP3   OH233454   5.090   2.941   2.710 -0.1409 -0.5926  0.0574
 3988TIP3    H133455   5.153   2.903   2.649 -0.5299 -2.1313  0.5950
 3988TIP3    H233456   5.075   2.873   2.775 -1.1695  0.3353  0.8129
 3989TIP3   OH233457   6.015   3.180   0.790 -0.3391  0.5067  0.2631
 3989TIP3    H133458   6.102   3.140   0.798  0.6445  2.4437 -0.4163
 3989TIP3    H233459   6.025   3.267   0.830 -1.8069  0.9705 -0.3539
 3990TIP3   OH233460   3.945   1.262  11.440  0.2736 -0.1991  0.1144
 3990TIP3    H133461   3.979   1.343  11.477  2.0313 -1.3103  1.0191
 3990TIP3    H233462   3.985   1.193  11.493  0.3612 -1.7220 -1.8733
 3991TIP3   OH233463   1.562   4.996   1.848 -0.0478 -0.8389 -0.6157
 3991TIP3    H133464   1.501   4.931   1.812  1.9541 -1.9859 -2.0390
 3991TIP3    H233465   1.569   5.063   1.780 -0.7831  0.0483  0.1501
 3992TIP3   OH233466   0.466   5.814   4.024 -0.7986 -0.1140  0.4455
 3992TIP3    H133467   0.554   5.781   4.006 -1.0660 -0.7783  0.3188
 3992TIP3    H233468   0.471   5.908   4.008 -0.5299 -0.3953 -1.2182
 3993TIP3   OH233469   4.100   3.891   4.666  0.0872  0.5384  0.0508
 3993TIP3    H133470   4.115   3.796   4.666  2.0479  0.7262 -4.1003
 3993TIP3    H233471   4.175   3.927   4.713  0.0701  0.1260  0.4021
 3994TIP3   OH233472   4.121   5.270   3.755  1.1628 -0.4344  0.0349
 3994TIP3    H133473   4.115   5.314   3.671 -0.2740  1.3361  1.0284
 3994TIP3    H233474   4.195   5.312   3.799  0.2971  0.4602  0.6620
 3995TIP3   OH233475   0.392   0.531   6.761 -0.3876  0.6453  0.0637
 3995TIP3    H133476   0.355   0.497   6.842  1.2222  1.3761  1.1173
 3995TIP3    H233477   0.315   0.555   6.709 -1.4680 -1.2799  0.7070
 3996TIP3   OH233478   4.840   3.448  16.346 -0.4094 -0.1563  0.3697
 3996TIP3    H133479   4.826   3.477  16.255 -0.5553 -0.1363  0.3964
 3996TIP3    H233480   4.824   3.354  16.343 -1.0480 -0.0539  0.5005
 3997TIP3   OH233481   0.221   1.738   0.892  0.0045 -0.0489  0.0262
 3997TIP3    H133482   0.269   1.656   0.877 -0.1720 -0.1330 -0.0883
 3997TIP3    H233483   0.243   1.762   0.981  2.7401  1.5751 -1.0248
 3998TIP3   OH233484   1.315   1.528   1.126 -0.3870 -0.3771 -0.1346
 3998TIP3    H133485   1.301   1.617   1.092 -0.1418  0.0505  0.8535
 3998TIP3    H233486   1.259   1.472   1.072 -1.7967  0.5916  0.2978
 3999TIP3   OH233487   0.509   0.839  13.971 -0.1145 -0.0244  0.5127
 3999TIP3    H133488   0.601   0.816  13.965  0.6220  2.2839  2.7752
 3999TIP3    H233489   0.465   0.755  13.989  1.4834 -1.1085 -0.4617
 4000TIP3   OH233490   0.096   0.773  15.690  0.3173  0.1744  0.2963
 4000TIP3    H133491   0.017   0.813  15.726  1.7200  0.2460  3.4002
 4000TIP3    H233492   0.083   0.679  15.704  0.6722  0.1713  0.6122
 4001TIP3   OH233493   5.740   6.024   4.740 -0.6529 -0.1899  0.0337
 4001TIP3    H133494   5.665   6.027   4.800 -1.1965 -0.4512 -0.6234
 4001TIP3    H233495   5.751   5.931   4.719  0.5777 -0.2767  1.0125
 4002TIP3   OH233496   6.525   5.444   5.727  0.3651 -0.3165 -0.2229
 4002TIP3    H133497   6.492   5.453   5.638  0.9383 -1.3235 -0.5455
 4002TIP3    H233498   6.469   5.501   5.779  0.1337  0.4027 -1.2486
 4003TIP3   OH233499   3.637   3.865  13.062  0.1652 -0.5630 -0.3055
 4003TIP3    H133500   3.649   3.923  12.987 -2.8376 -1.1725 -1.3397
 4003TIP3    H233501   3.571   3.910  13.116  0.9237 -1.0245  1.0270
 4004TIP3   OH233502   4.796   2.901   1.695  0.5056 -0.1176 -0.1311
 4004TIP3    H133503   4.730   2.853   1.744 -1.0307 -0.2899 -2.3047
 4004TIP3    H233504   4.783   2.992   1.721 -0.9693 -0.0828 -0.9299
 4005TIP3   OH233505   1.335   3.608   1.886 -0.5077  0.4268 -0.5107
 4005TIP3    H133506   1.347   3.529   1.832  1.1750 -0.8621  1.6681
 4005TIP3    H233507   1.260   3.587   1.942 -0.3962  0.5805 -0.3059
 4006TIP3   OH233508   1.499   4.479  10.957  0.1272  0.7120  0.3818
 4006TIP3    H133509   1.502   4.525  10.873  0.9367  0.5762  0.3366
 4006TIP3    H233510   1.511   4.549  11.022 -0.9102  0.8756  0.4094
 4007TIP3   OH233511   6.375   5.304   1.075 -0.2400 -0.4418  0.3156
 4007TIP3    H133512   6.407   5.260   0.996 -1.4119 -0.4728 -0.1523
 4007TIP3    H233513   6.372   5.236   1.142  3.1992  0.1216  1.1159
 4008TIP3   OH233514   0.320   5.449   0.019  1.0272  0.3925 -0.2934
 4008TIP3    H133515   0.372   5.375  -0.014  0.2701 -0.2390 -0.0866
 4008TIP3    H233516   0.296   5.423   0.108 -0.6732  0.1356 -0.8154
 4009TIP3   OH233517   6.388   1.294   3.482  0.2175 -0.0613 -0.5319
 4009TIP3    H133518   6.480   1.267   3.484  0.1964 -0.1118  2.1353
 4009TIP3    H233519   6.389   1.385   3.513 -0.6839 -0.3511  0.3938
 4010TIP3   OH233520   1.173   6.139  16.712  0.0650  0.0676 -0.1518
 4010TIP3    H133521   1.189   6.079  16.784 -0.5137  1.1749  0.9214
 4010TIP3    H233522   1.116   6.090  16.653  0.6606 -0.8989  0.0578
 4011TIP3   OH233523   0.398   5.879   0.042  0.2213  0.2141 -0.7222
 4011TIP3    H133524   0.470   5.939   0.023 -0.6016  1.7448  0.8712
 4011TIP3    H233525   0.424   5.835   0.122  1.0124 -1.9148 -2.1167
 4012TIP3   OH233526   0.205   1.835  17.276 -0.2741  0.4351 -0.3316
 4012TIP3    H133527   0.249   1.810  17.357 -0.1216 -1.5675 -1.0168
 4012TIP3    H233528   0.273   1.829  17.209 -0.6060  1.2847 -0.7515
 4013TIP3   OH233529   1.998   2.821  15.726  0.3469  0.7169  0.5397
 4013TIP3    H133530   2.074   2.862  15.768  1.4608  0.9735 -1.6517
 4013TIP3    H233531   1.966   2.887  15.665 -0.3825 -0.1510 -0.0268
 4014TIP3   OH233532   5.988   5.533  14.010 -0.4199  0.1341 -0.1413
 4014TIP3    H133533   5.913   5.525  13.951 -0.7100 -0.5457  0.3145
 4014TIP3    H233534   6.048   5.592  13.964 -2.0215  2.1656  0.2928
 4015TIP3   OH233535   5.347   5.087  12.578  0.1337  0.0107  0.1173
 4015TIP3    H133536   5.381   5.017  12.633 -1.0009  0.3446  1.2772
 4015TIP3    H233537   5.411   5.096  12.507  1.5000 -0.5707  1.2662
 4016TIP3   OH233538   0.562   3.687  12.831  0.0421 -0.1032 -0.4707
 4016TIP3    H133539   0.542   3.745  12.758 -0.7295 -0.5957 -0.6507
 4016TIP3    H233540   0.655   3.667  12.821  0.0579  0.2397 -1.0178
 4017TIP3   OH233541   1.988   1.612   6.344  1.0400  0.1461 -0.1331
 4017TIP3    H133542   2.025   1.689   6.387  1.0567 -0.1861  0.4577
 4017TIP3    H233543   2.063   1.553   6.332  0.8463 -0.2100  0.3706
 4018TIP3   OH233544   1.474   0.512   1.653 -0.6393 -0.4297 -0.7767
 4018TIP3    H133545   1.443   0.435   1.606 -0.2788 -0.7408 -0.5130
 4018TIP3    H233546   1.569   0.507   1.647 -0.5517 -1.0134  0.8212
 4019TIP3   OH233547   4.202   1.163   3.485 -0.2242  0.1511  0.0417
 4019TIP3    H133548   4.196   1.082   3.536 -0.4899  0.4181  0.4286
 4019TIP3    H233549   4.282   1.205   3.515  1.4015 -1.2832 -2.0693
 4020TIP3   OH233550   4.040   3.004   5.051  0.1877 -0.0139  0.0479
 4020TIP3    H133551   4.031   2.910   5.034 -1.3835 -0.2326  1.9519
 4020TIP3    H233552   3.951   3.033   5.071  0.8098  1.7209  0.3330
 4021TIP3   OH233553   5.893   0.621   0.520 -0.4452 -0.4429  0.3965
 4021TIP3    H133554   5.933   0.544   0.481 -1.1677 -1.3189  1.3613
 4021TIP3    H233555   5.800   0.615   0.496  0.0748  2.0165 -2.5568
 4022TIP3   OH233556   1.515   5.443  12.485  0.3290  0.5455  0.1733
 4022TIP3    H133557   1.513   5.528  12.440 -1.4364 -1.3152 -3.4957
 4022TIP3    H233558   1.591   5.398  12.448  0.3108 -0.1101  0.9206
 4023TIP3   OH233559   5.452   2.339  13.601 -0.0567  0.6238 -0.6886
 4023TIP3    H133560   5.420   2.363  13.688 -1.3527 -1.5949 -0.5086
 4023TIP3    H233561   5.539   2.378  13.596 -0.7644  2.5213  0.7826
 4024TIP3   OH233562   5.655   2.924  12.885 -0.4477  0.3405 -0.1873
 4024TIP3    H133563   5.747   2.900  12.896 -0.2539  1.1481 -0.0046
 4024TIP3    H233564   5.623   2.941  12.973  0.0709  3.0407 -0.4689
 4025TIP3   OH233565   5.561   3.378  16.304 -0.2291 -0.2104  0.3316
 4025TIP3    H133566   5.610   3.369  16.386  0.6603 -2.1983 -0.3872
 4025TIP3    H233567   5.530   3.289  16.285 -2.1158  0.5925 -0.4766
 4026TIP3   OH233568   1.072   4.210  15.365  0.3336 -0.2860  0.1890
 4026TIP3    H133569   0.981   4.189  15.389  0.3330 -0.2182  0.2447
 4026TIP3    H233570   1.119   4.208  15.448  0.1905  0.6910  0.3040
 4027TIP3   OH233571   2.958   2.103   2.387 -0.5075 -0.0617 -0.4921
 4027TIP3    H133572   2.917   2.023   2.419 -0.1381  0.3845  1.1484
 4027TIP3    H233573   3.026   2.073   2.327  2.3346 -1.2391  3.1557
 4028TIP3   OH233574   2.008   3.774   4.321  0.5532 -0.1725  0.1274
 4028TIP3    H133575   2.040   3.860   4.296  0.3637 -0.0219  0.3980
 4028TIP3    H233576   1.954   3.745   4.247  0.5377 -0.0169  0.0782
 4029TIP3   OH233577   1.166   5.198  12.765  0.0642 -0.0454 -0.4248
 4029TIP3    H133578   1.165   5.106  12.740 -0.2761 -0.2104  0.1842
 4029TIP3    H233579   1.196   5.198  12.856 -1.0611  0.3443 -0.0464
 4030TIP3   OH233580   0.379   5.135   0.885 -0.3368 -0.1970 -0.1720
 4030TIP3    H133581   0.304   5.110   0.940 -1.0133  0.0938 -0.9557
 4030TIP3    H233582   0.456   5.108   0.935 -0.9227  0.7268  1.2676
 4031TIP3   OH233583   2.579   1.686  11.142 -0.0161  0.2494  0.3719
 4031TIP3    H133584   2.491   1.658  11.168 -0.2807  1.8416  1.2352
 4031TIP3    H233585   2.637   1.621  11.180 -0.7832 -0.4909  0.2886
 4032TIP3   OH233586   6.738   2.823  17.215  0.6660  0.1467 -0.4475
 4032TIP3    H133587   6.725   2.729  17.198  2.6073 -0.1938 -0.0995
 4032TIP3    H233588   6.674   2.866  17.158  0.4772 -1.3511 -1.3957
 4033TIP3   OH233589   4.045   5.647   3.149  0.1085 -0.7145 -0.4756
 4033TIP3    H133590   4.140   5.638   3.157  0.3107 -0.0138 -1.9158
 4033TIP3    H233591   4.017   5.685   3.232  1.1558 -0.4189 -0.2514
 4034TIP3   OH233592   0.413   2.248   4.311 -0.1987 -0.3059 -0.5183
 4034TIP3    H133593   0.344   2.308   4.337  0.7489  1.2859 -1.5871
 4034TIP3    H233594   0.378   2.202   4.235  0.5128  1.7583 -2.1657
 4035TIP3   OH233595   1.967   2.627   0.051  0.2409  0.1742 -0.2230
 4035TIP3    H133596   2.043   2.650  -0.001 -0.7651  1.6942 -1.0812
 4035TIP3    H233597   1.924   2.557   0.002  0.8257 -0.3698  0.0328
 4036TIP3   OH233598   1.638   1.476  15.633  0.1926 -0.2710 -0.3889
 4036TIP3    H133599   1.702   1.404  15.624 -1.4230 -2.0327  1.7933
 4036TIP3    H233600   1.668   1.541  15.569  2.3356 -2.3991 -1.6863
 4037TIP3   OH233601   2.888   2.966   2.602 -0.1233 -0.4051  0.1719
 4037TIP3    H133602   2.843   3.031   2.656 -0.5732 -0.9420  0.4380
 4037TIP3    H233603   2.889   2.887   2.655  1.0602 -0.4223  0.1308
 4038TIP3   OH233604   2.443   6.621   4.553 -0.0940 -0.3195  0.2097
 4038TIP3    H133605   2.375   6.682   4.523 -0.8224 -2.4078 -2.6130
 4038TIP3    H233606   2.396   6.539   4.568  1.4103 -1.1228  0.6048
 4039TIP3   OH233607   4.209   0.390  11.601  0.5339  0.2655 -0.2655
 4039TIP3    H133608   4.188   0.322  11.666  1.4916 -0.9263 -1.1839
 4039TIP3    H233609   4.227   0.468  11.653 -0.2137 -0.2691  0.8284
 4040TIP3   OH233610   6.816   1.570   2.754 -0.5728 -0.4516 -0.0481
 4040TIP3    H133611   6.859   1.546   2.672  0.1022  0.0420  0.1578
 4040TIP3    H233612   6.757   1.642   2.730  0.5826  0.5743  0.1286
 4041TIP3   OH233613   6.730   0.444   3.912 -0.0817 -0.3336  0.2453
 4041TIP3    H133614   6.679   0.365   3.892 -1.4558  0.8497 -1.0829
 4041TIP3    H233615   6.720   0.499   3.834  1.1101  1.0157  1.0277
 4042TIP3   OH233616   4.322   6.553   6.253  0.2537 -0.2769  0.6164
 4042TIP3    H133617   4.398   6.609   6.240  0.1156 -0.4003 -0.9274
 4042TIP3    H233618   4.358   6.464   6.256  0.0669 -0.4986 -1.9213
 4043TIP3   OH233619   6.086   6.644  13.164 -0.6514  0.3385 -0.0171
 4043TIP3    H133620   6.073   6.550  13.154 -0.3356  0.4656 -1.7301
 4043TIP3    H233621   6.087   6.658  13.259  0.2837 -1.5167  0.2601
 4044TIP3   OH233622   1.314   5.378   2.992  0.1653 -0.5475 -0.6220
 4044TIP3    H133623   1.232   5.343   3.025  0.1211 -2.3236 -2.5434
 4044TIP3    H233624   1.314   5.470   3.020 -2.1818 -0.6891 -0.0742
 4045TIP3   OH233625   1.379   1.572  10.905  0.1996  0.1645  0.2500
 4045TIP3    H133626   1.307   1.511  10.892 -0.3963  0.8828  0.1753
 4045TIP3    H233627   1.368   1.605  10.994 -0.2661  1.1714 -0.1669
 4046TIP3   OH233628   0.365   2.479  17.274 -0.0154 -0.6507  0.5094
 4046TIP3    H133629   0.280   2.482  17.319 -0.0764 -0.4462  0.3837
 4046TIP3    H233630   0.397   2.569  17.277  0.3072 -0.7742  0.7608
 4047TIP3   OH233631   4.476   0.971  10.351  0.1237 -0.2456 -0.4661
 4047TIP3    H133632   4.404   0.923  10.309  0.3626  0.6147 -1.8915
 4047TIP3    H233633   4.550   0.910  10.350 -0.4368 -0.9585  0.5637
 4048TIP3   OH233634   2.481   2.838  10.994  0.1932  0.2459 -0.0599
 4048TIP3    H133635   2.391   2.828  11.024 -0.0691 -0.5657 -1.1132
 4048TIP3    H233636   2.496   2.763  10.936  1.7105  0.0786  0.5219
 4049TIP3   OH233637   4.578   3.555   5.661 -0.2028 -0.5258 -0.1950
 4049TIP3    H133638   4.537   3.620   5.717  0.3463 -0.3912  0.0489
 4049TIP3    H233639   4.531   3.562   5.578  0.7992  1.1924 -0.6416
 4050TIP3   OH233640   6.532   4.373   5.325 -0.0507  0.0765 -0.2467
 4050TIP3    H133641   6.483   4.341   5.249 -2.1207  0.9718  0.6685
 4050TIP3    H233642   6.605   4.423   5.287 -1.4172  1.0675 -1.6642
 4051TIP3   OH233643   6.038   1.798   3.170 -0.7615  0.5573  0.3888
 4051TIP3    H133644   6.008   1.707   3.174 -0.8180  0.5010 -1.0385
 4051TIP3    H233645   6.120   1.799   3.219  1.0348 -1.0368 -2.4431
 4052TIP3   OH233646   4.661   3.532   3.724  0.0107 -0.1954  0.2100
 4052TIP3    H133647   4.589   3.483   3.765 -0.9889  0.3433 -0.8563
 4052TIP3    H233648   4.723   3.465   3.697  0.6200 -0.5818  2.4376
 4053TIP3   OH233649   6.509   6.712  16.307  0.7631  0.3591 -0.3281
 4053TIP3    H133650   6.582   6.686  16.364  1.0076  1.0592 -0.3187
 4053TIP3    H233651   6.518   6.807  16.298  0.1872  0.3709 -0.7944
 4054TIP3   OH233652   1.466   6.123   4.658  0.1903  0.2196  0.1217
 4054TIP3    H133653   1.468   6.085   4.746 -0.8865 -1.6929 -0.6531
 4054TIP3    H233654   1.394   6.079   4.614 -0.0898  2.0688 -1.3410
 4055TIP3   OH233655   0.437   5.261  12.113 -0.1538 -0.1553  0.7178
 4055TIP3    H133656   0.364   5.284  12.170 -0.6338 -2.6179  1.1405
 4055TIP3    H233657   0.429   5.166  12.100  1.1635  0.0375 -1.7444
 4056TIP3   OH233658   0.701   5.796  11.460  0.2814  0.0895  0.1286
 4056TIP3    H133659   0.761   5.860  11.421  2.3678 -0.8095  1.7368
 4056TIP3    H233660   0.741   5.711  11.441 -1.8712 -0.7026 -1.0127
 4057TIP3   OH233661   4.826   3.480  14.823 -0.1216 -0.2519  0.3813
 4057TIP3    H133662   4.877   3.421  14.768 -1.2193 -0.8383 -0.0135
 4057TIP3    H233663   4.775   3.533  14.762  0.4918  0.7804  0.7520
 4058TIP3   OH233664   0.293   0.270   2.055  0.4742  0.2612 -0.0348
 4058TIP3    H133665   0.250   0.328   1.992 -0.6311 -1.6530 -1.0997
 4058TIP3    H233666   0.221   0.221   2.095  1.5382 -1.9560 -0.7746
 4059TIP3   OH233667   2.050   0.988  14.787  0.5598 -0.0984 -0.3561
 4059TIP3    H133668   2.062   1.004  14.880  0.8141 -1.3796 -0.1594
 4059TIP3    H233669   1.969   1.034  14.765 -0.4005 -1.1629  0.8586
 4060TIP3   OH233670   5.825   6.781   6.811  0.0524 -0.5215 -0.2328
 4060TIP3    H133671   5.756   6.834   6.851 -0.6398 -0.5713 -1.3483
 4060TIP3    H233672   5.793   6.763   6.722  1.1982 -1.1041 -0.5321
 4061TIP3   OH233673   4.127   2.289   1.706  0.0902  0.2999  0.1599
 4061TIP3    H133674   4.092   2.368   1.747  0.8178  0.8028 -0.1787
 4061TIP3    H233675   4.099   2.218   1.763  1.3496  1.0210  1.7037
 4062TIP3   OH233676   2.208   0.951   1.220  0.0326 -0.3477  0.2080
 4062TIP3    H133677   2.259   0.967   1.140 -1.6898 -0.9701 -1.0564
 4062TIP3    H233678   2.200   0.856   1.224 -1.9049 -0.2188 -0.2035
 4063TIP3   OH233679   2.280   4.716  17.285  0.0694 -0.0748 -0.2289
 4063TIP3    H133680   2.275   4.629  17.324 -1.3241 -0.1637 -0.5861
 4063TIP3    H233681   2.278   4.776  17.359  0.8347 -0.3340  0.0075
 4064TIP3   OH233682   3.545   2.369   5.879  0.5975 -0.0177  0.6187
 4064TIP3    H133683   3.484   2.444   5.886  0.8078  0.0508  1.8110
 4064TIP3    H233684   3.631   2.407   5.899  1.0673 -0.0840 -1.2217
 4065TIP3   OH233685   3.596   2.987   0.743 -0.0079  0.5133  0.7140
 4065TIP3    H133686   3.575   3.000   0.651  1.0874  0.9896  0.5187
 4065TIP3    H233687   3.523   3.025   0.791 -0.2008  0.9778  0.0463
 4066TIP3   OH233688   6.238   2.262  13.934 -0.1497 -0.8233  0.2486
 4066TIP3    H133689   6.197   2.325  13.875 -0.2235 -1.4022 -0.3307
 4066TIP3    H233690   6.294   2.315  13.991  0.5295 -0.3210 -0.8548
 4067TIP3   OH233691   4.893   0.257   1.204 -0.1897 -0.8355  0.0621
 4067TIP3    H133692   4.826   0.299   1.258 -1.4530 -1.9004 -0.6523
 4067TIP3    H233693   4.845   0.223   1.129  1.7205  1.7865 -2.4792
 4068TIP3   OH233694   5.397   1.475  10.771  0.2224 -0.2833  0.7542
 4068TIP3    H133695   5.439   1.392  10.796 -0.3422 -0.8168 -0.0314
 4068TIP3    H233696   5.342   1.452  10.697 -0.3500  0.7048  0.8687
 4069TIP3   OH233697   5.138   5.826  15.894  0.3237  0.3270  0.0782
 4069TIP3    H133698   5.069   5.830  15.828 -0.7445 -1.0780  1.0553
 4069TIP3    H233699   5.099   5.867  15.971  0.6873 -0.2053  0.5487
 4070TIP3   OH233700   5.490   4.870  10.704 -0.5137 -0.2753  0.5064
 4070TIP3    H133701   5.401   4.893  10.679  0.0948 -0.9397 -2.5355
 4070TIP3    H233702   5.482   4.783  10.744 -1.2420 -0.3254  0.2590
 4071TIP3   OH233703   6.080   5.607  14.625 -0.2205  0.2355  0.0257
 4071TIP3    H133704   6.133   5.686  14.623 -0.9465  0.8060  2.1152
 4071TIP3    H233705   5.993   5.636  14.595 -0.3054  0.0937  0.1309
 4072TIP3   OH233706   4.506   5.998   1.268 -0.1192 -0.3362  0.1350
 4072TIP3    H133707   4.514   6.048   1.349  0.4866  0.2677 -0.2978
 4072TIP3    H233708   4.542   6.055   1.201 -1.1666 -0.6024 -0.6599
 4073TIP3   OH233709   2.041   0.497   1.196  0.5104 -0.4558  0.4475
 4073TIP3    H133710   1.980   0.529   1.130 -0.0544 -0.6720  0.8578
 4073TIP3    H233711   2.072   0.413   1.161 -0.1658 -0.8093  0.6819
 4074TIP3   OH233712   2.115   3.681  16.324 -0.2504  0.6121  0.3088
 4074TIP3    H133713   2.146   3.593  16.347  0.4042  0.0823 -2.3861
 4074TIP3    H233714   2.185   3.739  16.355  0.0212  0.0362  0.7863
 4075TIP3   OH233715   3.689   3.311  14.413  0.2000  0.1394 -0.1590
 4075TIP3    H133716   3.741   3.359  14.477 -1.2672 -0.1398  1.2924
 4075TIP3    H233717   3.617   3.371  14.392 -1.9894 -1.5643  2.1288
 4076TIP3   OH233718   0.961   0.979  15.572 -0.0475  0.8049  0.1604
 4076TIP3    H133719   0.877   0.932  15.570  0.7415 -0.7290  1.4421
 4076TIP3    H233720   0.943   1.059  15.621 -1.2480  1.5262 -1.4217
 4077TIP3   OH233721   4.736   6.689  14.243  0.4949 -0.0583 -0.3434
 4077TIP3    H133722   4.786   6.624  14.193 -1.2510 -0.1707 -2.0075
 4077TIP3    H233723   4.718   6.646  14.327 -0.8794 -1.9014 -1.5328
 4078TIP3   OH233724   1.602   2.703   2.287 -0.0829  0.1336 -0.8068
 4078TIP3    H133725   1.683   2.676   2.329 -0.0677  0.9449 -0.3018
 4078TIP3    H233726   1.583   2.633   2.224 -0.1976 -1.1813  0.6532
 4079TIP3   OH233727   4.988   2.112  15.277 -0.2073  0.2193 -0.2530
 4079TIP3    H133728   4.992   2.115  15.182 -1.5751 -2.2776 -0.4371
 4079TIP3    H233729   4.896   2.096  15.297  0.2455 -0.4646  1.4279
 4080TIP3   OH233730   1.385   6.080  14.686  0.4054  0.2776 -0.3178
 4080TIP3    H133731   1.462   6.047  14.639  2.0489  0.5299  2.1260
 4080TIP3    H233732   1.408   6.170  14.710 -0.7855  0.4493  0.2148
 4081TIP3   OH233733   6.513   1.796   1.653  0.1969 -0.7416 -0.1414
 4081TIP3    H133734   6.584   1.780   1.715 -1.3083  1.6619  2.3559
 4081TIP3    H233735   6.451   1.725   1.668  1.4801 -2.1664 -1.4753
 4082TIP3   OH233736   2.664   1.376  12.391 -0.1404 -0.3834 -0.1368
 4082TIP3    H133737   2.657   1.282  12.410 -1.1173 -0.1777  0.5647
 4082TIP3    H233738   2.617   1.386  12.308 -0.7791 -0.3843  0.2209
 4083TIP3   OH233739   3.951   5.205   1.416 -0.1642  0.0478  0.8504
 4083TIP3    H133740   3.966   5.112   1.400 -0.8983  0.0337  0.2035
 4083TIP3    H233741   3.855   5.214   1.410 -0.2068  0.6021  2.2035
 4084TIP3   OH233742   3.442   4.964  14.838 -0.0832  0.0792  0.1334
 4084TIP3    H133743   3.521   4.979  14.889 -0.9713 -3.3148  2.7239
 4084TIP3    H233744   3.375   5.016  14.881 -0.0556  0.0006  0.2727
 4085TIP3   OH233745   0.200   2.337  10.116 -0.3139  0.0857  0.0387
 4085TIP3    H133746   0.144   2.410  10.092  0.6466  0.9436  0.3489
 4085TIP3    H233747   0.284   2.377  10.139  0.7695 -1.2370 -1.4453
 4086TIP3   OH233748   2.518   6.004  14.810 -0.2460  0.0827  0.3272
 4086TIP3    H133749   2.535   5.922  14.765 -1.2470  0.7124 -1.2346
 4086TIP3    H233750   2.554   6.071  14.752  0.1365  0.7781  1.3600
 4087TIP3   OH233751   6.603   1.030   2.788 -0.2785 -0.3164 -0.3541
 4087TIP3    H133752   6.531   1.073   2.835 -1.4230 -1.3393 -1.1188
 4087TIP3    H233753   6.672   1.096   2.785 -1.3019  0.8117  0.1236
 4088TIP3   OH233754   1.231   2.552  14.728 -0.2958 -0.0161  0.4062
 4088TIP3    H133755   1.226   2.475  14.783  2.1092  0.3900  1.2204
 4088TIP3    H233756   1.323   2.576  14.727 -0.7001  1.6353 -1.5227
 4089TIP3   OH233757   5.505   3.602  11.556  0.1593 -0.0640  0.2630
 4089TIP3    H133758   5.472   3.660  11.487 -0.6531  0.1748  0.8442
 4089TIP3    H233759   5.429   3.549  11.580  0.5746 -0.4933  0.6268
 4090TIP3   OH233760   1.813   2.934  14.338  0.1466  0.2795 -0.5933
 4090TIP3    H133761   1.775   2.849  14.317 -1.2652  0.2233  1.9374
 4090TIP3    H233762   1.745   2.997  14.315  0.2495  0.5280 -0.2243
 4091TIP3   OH233763   5.763   5.443  16.937 -0.1080 -0.1810  0.3971
 4091TIP3    H133764   5.850   5.475  16.960 -0.5270  0.6426  0.8563
 4091TIP3    H233765   5.721   5.518  16.894  0.0246 -1.1244 -1.4146
 4092TIP3   OH233766   2.305   1.396  12.446 -0.2275 -0.3173 -0.2968
 4092TIP3    H133767   2.284   1.410  12.538 -0.0321 -0.8023 -0.1759
 4092TIP3    H233768   2.306   1.301  12.436 -0.6325 -0.2627 -0.8860
 4093TIP3   OH233769   2.575   4.917   3.709 -0.4173 -0.0121  0.4126
 4093TIP3    H133770   2.585   4.862   3.786  1.1622 -1.2272 -0.6084
 4093TIP3    H233771   2.625   4.996   3.729  1.6832 -1.1553 -0.0804
 4094TIP3   OH233772   3.203   6.652  11.347 -0.2189  0.0264  0.4103
 4094TIP3    H133773   3.296   6.639  11.328 -0.7598 -1.5471 -1.3761
 4094TIP3    H233774   3.187   6.744  11.324  1.1052  0.6225  1.7620
 4095TIP3   OH233775   1.174   5.987   4.298  0.1156  0.4921 -0.0583
 4095TIP3    H133776   1.186   6.012   4.390 -1.2131  0.8146  0.0423
 4095TIP3    H233777   1.256   5.946   4.274 -0.4067 -1.9309  2.0422
 4096TIP3   OH233778   4.697   2.897  16.361 -0.8447 -0.6999 -0.9025
 4096TIP3    H133779   4.652   2.818  16.332  1.0849 -2.5860  0.9833
 4096TIP3    H233780   4.632   2.967  16.355 -2.1692 -2.1334 -3.9890
 4097TIP3   OH233781   0.058   6.763  13.091 -0.1197 -0.0515  0.1948
 4097TIP3    H133782   0.128   6.741  13.153  0.0104 -0.6091 -0.1477
 4097TIP3    H233783   0.103   6.809  13.020 -0.0918 -0.4511 -0.0472
 4098TIP3   OH233784   2.658   5.015   2.215  0.2122  0.4734 -0.0870
 4098TIP3    H133785   2.716   5.011   2.140  0.0556 -1.0708 -0.1627
 4098TIP3    H233786   2.714   5.042   2.288  0.8623 -0.2487 -0.3118
 4099TIP3   OH233787   2.718   1.446   4.080  0.3448  0.3920 -0.3865
 4099TIP3    H133788   2.754   1.376   4.134 -0.1037  0.3318 -0.1594
 4099TIP3    H233789   2.722   1.411   3.990 -1.6186 -0.7203 -0.0966
 4100TIP3   OH233790   5.652   3.770  16.140 -0.1521 -0.0462 -0.1022
 4100TIP3    H133791   5.724   3.804  16.086 -2.1472  2.3719 -1.3839
 4100TIP3    H233792   5.651   3.827  16.217 -1.0536  0.3160 -0.3742
 4101TIP3   OH233793   3.188   3.498   3.977  0.0870 -0.3252 -0.3874
 4101TIP3    H133794   3.174   3.570   4.039  0.6676  0.1899 -0.8353
 4101TIP3    H233795   3.269   3.522   3.931  0.2539 -1.2402 -0.5860
 4102TIP3   OH233796   2.963   0.802   2.137 -0.1134  0.1231 -0.4341
 4102TIP3    H133797   2.918   0.726   2.100 -0.5867  0.0695  0.2465
 4102TIP3    H233798   2.945   0.798   2.231  1.1330  0.2249 -0.1799
 4103TIP3   OH233799   0.551   5.176   2.185 -0.1095  0.3434 -0.2177
 4103TIP3    H133800   0.598   5.162   2.267  0.5378  0.8536 -0.5002
 4103TIP3    H233801   0.579   5.104   2.128 -0.2464  0.2224 -0.1342
 4104TIP3   OH233802   3.707   2.273  16.062 -0.2280  0.0219  0.0038
 4104TIP3    H133803   3.785   2.320  16.033 -0.2251 -1.0216 -1.7367
 4104TIP3    H233804   3.728   2.181  16.050 -1.5944 -0.2887 -0.1532
 4105TIP3   OH233805   3.912   2.540  16.685 -0.6539 -0.0737  0.0455
 4105TIP3    H133806   4.001   2.557  16.718 -1.2084  1.1784  0.9640
 4105TIP3    H233807   3.915   2.450  16.653  1.0437  0.0723 -0.2619
 4106TIP3   OH233808   1.201   1.062  11.685  0.2101 -0.0133  0.0789
 4106TIP3    H133809   1.164   1.019  11.608 -0.6181  1.6780 -0.4895
 4106TIP3    H233810   1.293   1.076  11.662  0.0359  0.2115 -0.4905
 4107TIP3   OH233811   0.866   2.771  16.264  0.3258  0.4702  0.1412
 4107TIP3    H133812   0.806   2.843  16.286 -0.0235  1.2323 -3.0111
 4107TIP3    H233813   0.939   2.813  16.220  1.4861 -0.8305  0.8080
 4108TIP3   OH233814   0.788   5.085   0.304 -0.0119 -0.4410 -0.1412
 4108TIP3    H133815   0.839   5.140   0.245 -0.8259 -0.2967 -0.7130
 4108TIP3    H233816   0.739   5.026   0.246 -2.2401  0.9413  0.2927
 4109TIP3   OH233817   2.540   4.692   5.168 -0.2631 -0.1048 -0.0627
 4109TIP3    H133818   2.501   4.652   5.246  0.4745 -2.0821 -0.6560
 4109TIP3    H233819   2.549   4.784   5.189 -0.3013 -0.5795  2.1101
 4110TIP3   OH233820   1.982   5.979  13.495 -0.0490  0.2428  0.2323
 4110TIP3    H133821   2.053   6.031  13.532 -0.2893 -0.8057  2.2382
 4110TIP3    H233822   2.000   5.976  13.401  2.5071  0.0683  0.7069
 4111TIP3   OH233823   0.910   5.244  14.927  0.2373  0.0147 -0.4077
 4111TIP3    H133824   0.912   5.333  14.961  0.1359  0.4027 -1.3909
 4111TIP3    H233825   0.853   5.249  14.850 -2.1780 -1.5085  1.2104
 4112TIP3   OH233826   3.395   1.632  11.445  0.7704 -0.5956 -0.6523
 4112TIP3    H133827   3.379   1.621  11.351  0.3159 -1.6508 -0.4587
 4112TIP3    H233828   3.330   1.575  11.487  0.9810 -0.1394  0.3013
 4113TIP3   OH233829   2.138   4.393  16.940 -0.0752  0.1634  0.2054
 4113TIP3    H133830   2.177   4.441  16.868 -3.3480  1.6711 -0.6766
 4113TIP3    H233831   2.058   4.442  16.961 -0.8375 -2.0268  2.7383
 4114TIP3   OH233832   4.666   3.621  16.119  0.0649  0.3329 -0.8571
 4114TIP3    H133833   4.620   3.597  16.038 -0.1072 -0.1223 -0.6300
 4114TIP3    H233834   4.628   3.563  16.185  1.7797 -0.8525 -0.8791
 4115TIP3   OH233835   2.407   5.231   3.572  0.2695  0.0099  0.0882
 4115TIP3    H133836   2.341   5.161   3.568  0.9928 -0.8230  1.8617
 4115TIP3    H233837   2.488   5.188   3.545  0.9832 -0.2138  2.4869
 4116TIP3   OH233838   4.626   3.273   4.993  0.3712  0.0350  0.1273
 4116TIP3    H133839   4.543   3.229   4.973  0.5893 -0.4376  0.2412
 4116TIP3    H233840   4.601   3.362   5.018 -0.0695  0.0093 -0.2140
 4117TIP3   OH233841   1.753   1.872  13.596  0.0725  0.3716  0.3554
 4117TIP3    H133842   1.744   1.797  13.655 -0.3458 -1.9428 -2.5421
 4117TIP3    H233843   1.664   1.905  13.583  0.0131  0.0959  0.0539
 4118TIP3   OH233844   0.904   3.706  13.533 -0.4777  0.4752 -0.1011
 4118TIP3    H133845   0.944   3.773  13.477 -0.2750  1.5257  1.2813
 4118TIP3    H233846   0.828   3.676  13.482 -0.4742  1.6276 -0.8181
 4119TIP3   OH233847   0.790   5.117   5.805 -0.9322 -0.2839  0.1891
 4119TIP3    H133848   0.769   5.035   5.762 -1.6659 -0.2556  0.4674
 4119TIP3    H233849   0.882   5.132   5.787 -1.0343 -0.6871 -0.6612
 4120TIP3   OH233850   3.517   6.393  14.612  0.3537  0.8156 -0.3926
 4120TIP3    H133851   3.586   6.336  14.578  0.8468  0.8691  0.5053
 4120TIP3    H233852   3.563   6.472  14.640 -0.0736  0.8458  0.2232
 4121TIP3   OH233853   5.375   4.333   5.422  0.9352 -0.0110 -0.4424
 4121TIP3    H133854   5.413   4.359   5.505  0.0930  0.5489 -0.2246
 4121TIP3    H233855   5.442   4.278   5.381  3.0281  2.9960 -1.2098
 4122TIP3   OH233856   2.822   0.592   2.046 -0.4514 -0.2479  0.3475
 4122TIP3    H133857   2.840   0.513   1.995 -1.2285 -1.4890  1.9315
 4122TIP3    H233858   2.733   0.579   2.079 -0.2973  0.9365  1.2523
 4123TIP3   OH233859   1.198   3.848  15.939 -0.0423 -0.0430  0.7572
 4123TIP3    H133860   1.212   3.840  16.033 -0.0871 -0.2190  0.7490
 4123TIP3    H233861   1.274   3.898  15.908  0.8723 -1.4764  0.6287
 4124TIP3   OH233862   1.286   6.260  14.288 -0.1982 -0.1819 -0.1445
 4124TIP3    H133863   1.221   6.328  14.308  2.8875  2.8934 -0.1373
 4124TIP3    H233864   1.362   6.282  14.342  1.6288 -2.4934 -1.6462
 4125TIP3   OH233865   0.431   1.953  16.883  0.1956  0.0331  0.1366
 4125TIP3    H133866   0.483   2.032  16.869 -0.7452  1.1463  2.5508
 4125TIP3    H233867   0.367   1.953  16.813 -1.4410  2.8607  1.5469
 4126TIP3   OH233868   1.437   1.550   4.823 -0.8288  0.4540  0.3329
 4126TIP3    H133869   1.372   1.499   4.774  0.2860  1.2063 -1.9725
 4126TIP3    H233870   1.455   1.497   4.901 -3.0730 -0.4784  0.2649
 4127TIP3   OH233871   4.227   2.849  12.701 -0.3776 -0.1049 -0.8483
 4127TIP3    H133872   4.162   2.915  12.728 -1.0723 -0.7409 -0.9605
 4127TIP3    H233873   4.193   2.815  12.618 -0.8498 -1.7271 -0.0067
 4128TIP3   OH233874   0.684   5.782  14.267 -0.4747 -0.3206 -0.2921
 4128TIP3    H133875   0.748   5.725  14.225 -0.8115 -1.0003  0.1189
 4128TIP3    H233876   0.686   5.862  14.215 -1.8649 -1.6382 -2.4217
 4129TIP3   OH233877   0.059   2.832  12.136 -0.2537 -0.0578 -0.6225
 4129TIP3    H133878  -0.024   2.873  12.112  0.9826  2.2061 -1.1970
 4129TIP3    H233879   0.095   2.890  12.203  1.7307  0.0152 -1.7363
 4130TIP3   OH233880   3.329   6.711   0.938 -0.7101 -0.1376  0.1542
 4130TIP3    H133881   3.336   6.635   0.995 -0.6689 -0.7226 -0.6164
 4130TIP3    H233882   3.292   6.676   0.857 -0.6077  0.6497 -0.2347
 4131TIP3   OH233883   0.499   4.847  16.253  0.1690  0.5969 -0.4272
 4131TIP3    H133884   0.486   4.852  16.158 -1.2915 -1.7247 -0.3934
 4131TIP3    H233885   0.590   4.820  16.263 -0.0601 -0.5086 -1.2242
 4132TIP3   OH233886   3.750   5.208   0.385  0.2648 -0.4408 -0.0813
 4132TIP3    H133887   3.756   5.121   0.346 -1.2510 -0.8100  0.5118
 4132TIP3    H233888   3.709   5.262   0.317 -1.5510 -0.8820  0.6356
 4133TIP3   OH233889   1.902   6.502  14.745  0.3688  0.0760  0.3115
 4133TIP3    H133890   1.897   6.469  14.655  1.2073 -2.9215  1.3056
 4133TIP3    H233891   1.875   6.593  14.738  0.8647  0.0420 -3.0588
 4134TIP3   OH233892   4.814   3.171  13.430 -0.1041 -0.1829 -0.4313
 4134TIP3    H133893   4.798   3.112  13.356 -3.1592 -3.1247  2.3518
 4134TIP3    H233894   4.889   3.133  13.475  0.4720  0.4099 -0.8974
 4135TIP3   OH233895   1.477   3.126   2.566 -0.2327  0.8267  0.0198
 4135TIP3    H133896   1.445   3.063   2.631  1.2869  1.4434  1.3947
 4135TIP3    H233897   1.416   3.200   2.573 -0.8453  0.3471 -0.1918
 4136TIP3   OH233898   5.640   5.494  11.165  0.1412  0.1001  0.3119
 4136TIP3    H133899   5.590   5.420  11.200 -0.1121 -0.1180 -0.5134
 4136TIP3    H233900   5.627   5.489  11.070 -0.7106  1.8005  0.3252
 4137TIP3   OH233901   3.875   6.083   5.956  0.4184  0.1981  0.2499
 4137TIP3    H133902   3.827   6.000   5.959 -0.4015  0.7090  1.6673
 4137TIP3    H233903   3.883   6.109   6.048 -1.2194  2.7844 -0.3214
 4138TIP3   OH233904   6.314   0.836   5.740  0.3332 -1.2279  0.8505
 4138TIP3    H133905   6.226   0.872   5.749  0.3174 -1.0440 -0.0252
 4138TIP3    H233906   6.331   0.793   5.824 -0.3296 -0.6919  1.2575
 4139TIP3   OH233907   6.400   2.009  13.897 -0.2294 -0.1882 -0.0933
 4139TIP3    H133908   6.363   2.086  13.941 -1.4984 -1.8000  1.7520
 4139TIP3    H233909   6.460   1.971  13.961  2.1449  0.4836 -1.8226
 4140TIP3   OH233910   2.593   0.478  13.265 -0.3785 -0.2151  0.3026
 4140TIP3    H133911   2.664   0.516  13.316 -0.2604  0.8710 -0.6538
 4140TIP3    H233912   2.635   0.448  13.184 -0.9912  0.4121 -0.2548
 4141TIP3   OH233913   3.025   5.606  14.917  0.0622 -0.2669 -0.1459
 4141TIP3    H133914   3.088   5.577  14.850 -0.1360  0.3102 -0.5904
 4141TIP3    H233915   2.945   5.625  14.868 -0.0741  0.1997  0.2456
 4142TIP3   OH233916   5.523   1.393   0.749  0.1147 -0.1080  0.0305
 4142TIP3    H133917   5.611   1.399   0.784  0.8469 -1.8795 -1.4122
 4142TIP3    H233918   5.530   1.332   0.676 -1.7325  2.0292 -2.0119
 4143TIP3   OH233919   0.237   3.645  15.525 -0.1075 -0.4573  0.1281
 4143TIP3    H133920   0.317   3.608  15.562  0.6830 -1.2432 -2.2920
 4143TIP3    H233921   0.250   3.740  15.530  1.2251 -0.5850 -0.7826
 4144TIP3   OH233922   3.724   6.653   5.531 -0.2920  0.2209  0.4583
 4144TIP3    H133923   3.711   6.558   5.524 -0.5224  0.1684  1.6056
 4144TIP3    H233924   3.704   6.674   5.622 -0.9802  1.4982  0.0268
 4145TIP3   OH233925   1.083   2.893   0.338  0.1089 -0.5564 -0.2828
 4145TIP3    H133926   1.141   2.952   0.290 -0.4496 -0.6574 -1.0950
 4145TIP3    H233927   1.098   2.807   0.297  1.9290 -1.2620  1.7867
 4146TIP3   OH233928   1.200   4.193  14.901 -0.5872 -0.0099  0.1746
 4146TIP3    H133929   1.271   4.158  14.954 -0.4747  1.1835  0.8205
 4146TIP3    H233930   1.209   4.288  14.908 -1.8698  0.1511 -0.2383
 4147TIP3   OH233931   4.851   1.559   5.423 -0.1852 -0.5497 -0.1738
 4147TIP3    H133932   4.843   1.492   5.355  0.1109 -1.4886  0.7126
 4147TIP3    H233933   4.792   1.530   5.492  2.1275 -1.4267  1.4596
 4148TIP3   OH233934   4.316   0.021   1.193 -0.0890  0.0061  0.0894
 4148TIP3    H133935   4.282  -0.002   1.280  0.0275  1.2172  0.4722
 4148TIP3    H233936   4.401   0.063   1.211 -0.4827  1.0861 -0.5434
 4149TIP3   OH233937   4.791   4.865   1.410 -0.3920  0.7744 -0.2237
 4149TIP3    H133938   4.749   4.950   1.396 -1.2676  0.1029 -1.7958
 4149TIP3    H233939   4.837   4.847   1.328  0.7280  0.2469  0.5096
 4150TIP3   OH233940   1.930   3.776  12.874 -0.2177  0.5535 -0.2260
 4150TIP3    H133941   1.968   3.700  12.831  0.7048  1.3195 -0.7843
 4150TIP3    H233942   1.851   3.795  12.823 -0.2790  0.1761 -0.2770
 4151TIP3   OH233943   3.434   4.076   0.911 -0.0898  0.6230 -0.4043
 4151TIP3    H133944   3.397   4.113   0.831  0.6875  0.8167 -0.6712
 4151TIP3    H233945   3.390   4.123   0.982 -0.8767  0.3603 -0.7027
 4152TIP3   OH233946   2.388   2.063   4.182  0.1414 -0.6552 -0.9032
 4152TIP3    H133947   2.363   1.981   4.225  0.0888 -0.2542 -0.1591
 4152TIP3    H233948   2.305   2.099   4.150 -0.3549  0.8569  1.8858
 4153TIP3   OH233949   2.566   2.905  12.505 -0.0376  0.4759  0.0686
 4153TIP3    H133950   2.573   2.820  12.549  0.9304  0.3534 -0.3158
 4153TIP3    H233951   2.473   2.928  12.513  0.3054  0.9331  2.9998
 4154TIP3   OH233952   2.176   5.365   1.273 -0.1294 -0.1374  0.0885
 4154TIP3    H133953   2.115   5.378   1.201  1.1681 -0.2305 -1.0452
 4154TIP3    H233954   2.230   5.445   1.274  1.0400 -0.9095 -0.2207
 4155TIP3   OH233955   5.481   6.049   4.955  0.5275 -0.1035 -0.6173
 4155TIP3    H133956   5.564   6.085   4.985 -0.5253  1.8479  0.0403
 4155TIP3    H233957   5.432   6.124   4.922 -1.2165 -1.1180 -0.4319
 4156TIP3   OH233958   5.932   1.983  12.274  0.3836  0.0955 -0.2120
 4156TIP3    H133959   5.875   1.943  12.208  1.2533  0.6483 -1.3198
 4156TIP3    H233960   5.920   1.929  12.352 -0.7686 -0.4889 -0.7772
 4157TIP3   OH233961   4.632   6.227   2.369 -0.6144  0.3056 -0.5276
 4157TIP3    H133962   4.562   6.202   2.308 -1.1325  0.1903  0.1002
 4157TIP3    H233963   4.637   6.322   2.362  1.3631  0.0774 -2.9320
 4158TIP3   OH233964   5.933   6.294  16.706 -0.0180 -0.0820  0.3827
 4158TIP3    H133965   5.968   6.286  16.795 -0.1366 -0.7095  0.3781
 4158TIP3    H233966   5.871   6.366  16.710  0.3860  0.2523  0.6757
 4159TIP3   OH233967   0.006   5.290   1.321 -0.4111  0.2120 -0.0599
 4159TIP3    H133968   0.087   5.319   1.279 -0.5217 -0.6426 -0.8878
 4159TIP3    H233969  -0.062   5.345   1.283 -0.0718  1.7613  1.5356
 4160TIP3   OH233970   3.306   2.991  15.805  0.2365  0.3968 -0.3649
 4160TIP3    H133971   3.350   2.996  15.720  0.2825  0.5128 -0.3359
 4160TIP3    H233972   3.374   2.958  15.865  0.4071  0.9533 -0.2402
 4161TIP3   OH233973   6.628   1.200  12.528  0.0134 -0.2269  0.1104
 4161TIP3    H133974   6.657   1.153  12.450  0.4295  0.1905  0.0075
 4161TIP3    H233975   6.534   1.183  12.533 -0.0703 -0.0022 -0.6515
 4162TIP3   OH233976   5.886   4.487  12.703  0.2615 -0.0980  0.2515
 4162TIP3    H133977   5.797   4.486  12.668  0.9714 -0.9104 -1.6060
 4162TIP3    H233978   5.918   4.575  12.684  0.8011 -0.6781 -1.6075
 4163TIP3   OH233979   3.857   5.096   1.839 -0.5124 -0.2354  0.5528
 4163TIP3    H133980   3.884   5.073   1.928  0.2710 -0.8821  0.1621
 4163TIP3    H233981   3.787   5.035   1.818 -0.7261 -0.0545  0.7423
 4164TIP3   OH233982   2.278   0.422  11.034  0.2996 -0.1198  0.3809
 4164TIP3    H133983   2.314   0.363  10.968 -1.2394 -0.7143  0.0426
 4164TIP3    H233984   2.289   0.375  11.117  0.9869  0.0316  0.3757
 4165TIP3   OH233985   5.785   0.165  10.866 -0.3469 -0.0094  0.2469
 4165TIP3    H133986   5.806   0.233  10.802  0.2312 -0.6516 -0.2450
 4165TIP3    H233987   5.831   0.192  10.945  1.1496 -0.6270 -0.3918
 4166TIP3   OH233988   4.376   4.264  15.813 -0.8263 -0.2688  0.2755
 4166TIP3    H133989   4.470   4.245  15.813 -1.0024 -1.2476  2.0024
 4166TIP3    H233990   4.350   4.257  15.721  0.6843 -0.5836 -0.1353
 4167TIP3   OH233991   5.269   2.379   2.977  0.1675 -0.3993 -0.2277
 4167TIP3    H133992   5.314   2.464   2.976 -0.0556 -0.2923 -1.3719
 4167TIP3    H233993   5.315   2.329   3.044  1.7063 -0.1373 -1.0663
 4168TIP3   OH233994   5.418   0.270   0.301 -0.2545  0.4394 -0.6091
 4168TIP3    H133995   5.451   0.242   0.387 -0.7866  0.8179 -0.2748
 4168TIP3    H233996   5.427   0.366   0.303  0.9449  0.3568 -1.4827
 4169TIP3   OH233997   0.529   3.307  16.818 -0.0229  0.1929 -0.1852
 4169TIP3    H133998   0.475   3.345  16.887  0.9816  3.0569 -0.9251
 4169TIP3    H233999   0.618   3.308  16.853  0.0486 -1.4490 -0.2574
 4170TIP3   OH234000   6.321   1.647   3.837  0.0177 -0.4435 -0.0938
 4170TIP3    H134001   6.356   1.580   3.896  1.4673 -0.5783 -1.0785
 4170TIP3    H234002   6.394   1.707   3.824 -1.3649  1.5050  1.0191
 4171TIP3   OH234003   0.677   1.989  14.770  0.5853  0.3153 -0.0245
 4171TIP3    H134004   0.685   1.900  14.804 -3.7453  0.2819  1.2962
 4171TIP3    H234005   0.661   1.977  14.677  0.4646 -0.3047  0.0692
 4172TIP3   OH234006   1.391   4.203  16.575  0.4863  0.4004 -0.6090
 4172TIP3    H134007   1.415   4.287  16.613  1.2901 -0.3114  0.5128
 4172TIP3    H234008   1.407   4.140  16.645 -1.2401 -0.5496 -1.0447
 4173TIP3   OH234009   4.035   2.061  13.650  0.0167 -0.9052  0.1835
 4173TIP3    H134010   4.119   2.106  13.645  0.6182 -2.1392 -1.0737
 4173TIP3    H234011   3.974   2.120  13.605  1.0468 -1.8626 -2.5349
 4174TIP3   OH234012   1.199   6.103  13.362  0.0505 -0.2787 -0.9001
 4174TIP3    H134013   1.118   6.100  13.312 -0.8470 -0.7879  0.5726
 4174TIP3    H234014   1.173   6.090  13.453  1.6066  1.2237 -0.2059
 4175TIP3   OH234015   5.811   6.587   2.600  0.1632  0.1046  0.0885
 4175TIP3    H134016   5.742   6.618   2.659  0.5638  1.8019 -0.3230
 4175TIP3    H234017   5.765   6.528   2.540 -0.5716 -0.2501  0.9746
 4176TIP3   OH234018   3.810   1.151   1.916  0.4385  0.5775  0.1294
 4176TIP3    H134019   3.802   1.081   1.852 -0.3161  0.6541  0.1433
 4176TIP3    H234020   3.840   1.227   1.865 -1.9897  1.1587 -0.4704
 4177TIP3   OH234021   2.097   2.609  14.313  0.4406 -0.3997 -0.1773
 4177TIP3    H134022   2.004   2.589  14.298  0.4191  0.4930 -1.2829
 4177TIP3    H234023   2.102   2.704  14.307  1.1314 -0.3066  1.6655
 4178TIP3   OH234024   5.168   0.259   3.402 -0.4038 -0.5983 -0.7073
 4178TIP3    H134025   5.074   0.279   3.398 -0.5710 -1.3991 -1.0562
 4178TIP3    H234026   5.172   0.163   3.395  0.4108 -0.6163 -0.1058
 4179TIP3   OH234027   5.709   2.505  16.637 -0.0897  0.1893 -0.0371
 4179TIP3    H134028   5.698   2.410  16.627  0.8634  0.0927 -0.1756
 4179TIP3    H234029   5.731   2.517  16.730  0.4993  0.2050 -0.1758
 4180TIP3   OH234030   2.625   3.466   4.916 -0.2148 -0.2565  0.4933
 4180TIP3    H134031   2.680   3.422   4.851 -0.1139 -0.0291  0.4221
 4180TIP3    H234032   2.536   3.444   4.891 -0.2052  0.5242 -0.2259
 4181TIP3   OH234033   3.484   5.129   1.633 -0.6319  0.3612  0.0928
 4181TIP3    H134034   3.550   5.094   1.694 -1.4880 -0.3840  0.6120
 4181TIP3    H234035   3.410   5.070   1.643 -1.8636  1.9280  0.4660
 4182TIP3   OH234036   5.088   6.397  13.664  0.0813 -0.0702 -0.1186
 4182TIP3    H134037   5.057   6.402  13.574 -1.2816  0.6583  0.3646
 4182TIP3    H234038   5.028   6.335  13.707 -0.0025  0.4663  0.5543
 4183TIP3   OH234039   1.469   6.719   2.429  0.1033  0.4695 -0.2496
 4183TIP3    H134040   1.426   6.646   2.474 -1.5712  2.2873  1.1961
 4183TIP3    H234041   1.414   6.795   2.449  2.2668  2.2920 -1.0319
 4184TIP3   OH234042   2.947   6.333   3.847 -0.5473 -0.1809 -1.1249
 4184TIP3    H134043   2.878   6.266   3.851  0.8793 -1.6795 -0.8972
 4184TIP3    H234044   3.028   6.284   3.863  0.7544  1.2396 -3.1703
 4185TIP3   OH234045   5.167   0.035   2.688  0.0042  0.3801  0.3234
 4185TIP3    H134046   5.133   0.124   2.693  0.2158  0.5233 -0.6719
 4185TIP3    H234047   5.107  -0.010   2.628 -0.8736 -0.5142  1.8292
 4186TIP3   OH234048   4.026   2.076   0.547 -0.2582  0.0121  0.2575
 4186TIP3    H134049   3.935   2.047   0.538 -0.7298  1.4151  0.4053
 4186TIP3    H234050   4.038   2.088   0.641 -0.2089  0.7120  0.1669
 4187TIP3   OH234051   4.011   0.398  12.939  0.0394 -0.1891 -0.1072
 4187TIP3    H134052   3.973   0.479  12.973  0.6670  0.5563 -1.1414
 4187TIP3    H234053   4.103   0.420  12.925 -0.5134  0.0640 -3.8295
 4188TIP3   OH234054   0.956   1.377   3.987 -0.1440 -0.0488 -0.0697
 4188TIP3    H134055   0.931   1.428   4.064 -0.3985 -2.4104  1.4982
 4188TIP3    H234056   1.049   1.393   3.977 -0.0991  0.2669  0.7724
 4189TIP3   OH234057   4.966   6.379   1.564 -0.2783  0.3652  0.0787
 4189TIP3    H134058   5.037   6.321   1.536 -2.0902 -1.6604 -0.4058
 4189TIP3    H234059   5.000   6.467   1.546  1.8070 -0.5875 -0.8840
 4190TIP3   OH234060   0.558   0.886   0.274  0.6173 -0.7868 -0.0598
 4190TIP3    H134061   0.462   0.883   0.283  0.5113  0.4116 -0.6835
 4190TIP3    H234062   0.584   0.795   0.261 -0.2328 -1.3778  2.1469
 4191TIP3   OH234063   5.576   0.597   0.638  0.2440  0.0747  0.4553
 4191TIP3    H134064   5.507   0.533   0.654 -0.2539  0.2062 -1.0674
 4191TIP3    H234065   5.572   0.613   0.544  0.4437  2.2301  0.7857
 4192TIP3   OH234066   6.038   6.491  15.573  0.1675 -0.1456  0.3856
 4192TIP3    H134067   6.042   6.409  15.623  0.3659  0.2324  1.0059
 4192TIP3    H234068   6.024   6.558  15.640 -0.8972  0.2338 -0.2156
 4193TIP3   OH234069   0.533   5.744  12.952  0.3256  0.1497  0.3074
 4193TIP3    H134070   0.586   5.821  12.932 -1.0325  0.8188 -0.7998
 4193TIP3    H234071   0.462   5.777  13.006  0.2651 -0.4923  0.6247
 4194TIP3   OH234072   5.849   2.129   3.190  0.0954  0.0478 -0.5931
 4194TIP3    H134073   5.932   2.141   3.143 -0.4689  3.0550 -0.9610
 4194TIP3    H234074   5.864   2.055   3.248  2.3901 -0.7064 -2.0978
 4195TIP3   OH234075   1.195   3.067  14.124 -0.4195  0.1810  0.2421
 4195TIP3    H134076   1.142   3.144  14.101 -1.3632 -0.5229  0.0144
 4195TIP3    H234077   1.220   3.081  14.215  0.0212  1.1082 -0.0229
 4196TIP3   OH234078   2.886   2.321   2.107 -0.1440 -0.1291  0.2626
 4196TIP3    H134079   2.851   2.305   2.194  0.4279  1.5575  0.8239
 4196TIP3    H234080   2.926   2.408   2.113  0.7885 -0.4270 -1.3960
 4197TIP3   OH234081   6.617   5.631   1.275  0.1738 -0.5164 -0.1330
 4197TIP3    H134082   6.612   5.595   1.364 -0.1229 -0.1069  0.0180
 4197TIP3    H234083   6.609   5.555   1.218 -1.4234 -0.5948  0.1679
 4198TIP3   OH234084   1.969   3.361   1.510 -0.4394  0.2712 -0.3196
 4198TIP3    H134085   1.999   3.292   1.569 -3.2742  0.0808  0.9429
 4198TIP3    H234086   2.019   3.345   1.429  0.0022 -2.3940  0.4067
 4199TIP3   OH234087   2.734   0.681   4.458  0.3679  0.1786  0.3414
 4199TIP3    H134088   2.757   0.596   4.494  0.8622 -0.2345 -0.9117
 4199TIP3    H234089   2.648   0.701   4.495 -0.4041 -1.5413 -0.4751
 4200TIP3   OH234090   4.510   3.780  12.365 -0.5824 -0.3274  0.2401
 4200TIP3    H134091   4.473   3.710  12.312  2.1516 -1.1444 -0.6861
 4200TIP3    H234092   4.535   3.737  12.447  0.4682 -0.3065 -0.0627
 4201TIP3   OH234093   0.699   3.324   3.437 -0.4776  0.7115  0.1327
 4201TIP3    H134094   0.690   3.393   3.503 -0.8193 -0.1597  1.0147
 4201TIP3    H234095   0.632   3.259   3.461  0.8203 -0.6296  0.2099
 4202TIP3   OH234096   4.934   6.072  16.619 -0.1897  0.3676  0.5025
 4202TIP3    H134097   4.942   6.165  16.641 -3.4857  0.5254  1.2599
 4202TIP3    H234098   4.974   6.027  16.694  0.9222  1.1499  0.3962
 4203TIP3   OH234099   1.955   3.339  11.092 -0.1017 -0.7553  0.5697
 4203TIP3    H134100   1.953   3.431  11.066  1.7365 -0.3020  1.8634
 4203TIP3    H234101   1.863   3.315  11.102 -0.6551  0.4961 -1.2430
 4204TIP3   OH234102   1.962   3.851  15.854 -0.4714  0.7838  0.2291
 4204TIP3    H134103   1.992   3.940  15.870  0.3153  0.5951 -0.1975
 4204TIP3    H234104   1.929   3.822  15.939 -0.7680  1.4911  0.3597
 4205TIP3   OH234105   1.103   4.901  15.780 -0.5894  0.1553  0.2043
 4205TIP3    H134106   1.169   4.950  15.731 -3.0199  3.1411 -0.2215
 4205TIP3    H234107   1.084   4.825  15.725  2.5535 -0.8587  0.4148
 4206TIP3   OH234108   0.849   0.734  12.454 -0.3534 -0.7061 -0.5020
 4206TIP3    H134109   0.832   0.801  12.520  0.1204 -2.4616  1.4410
 4206TIP3    H234110   0.941   0.712  12.465  0.0408 -0.2159 -2.5490
 4207TIP3   OH234111   5.277   4.482   1.737  0.4349 -0.5628 -0.0702
 4207TIP3    H134112   5.319   4.513   1.817 -0.4953  2.4564 -0.6876
 4207TIP3    H234113   5.183   4.491   1.754  0.2429  2.6868 -2.3705
 4208TIP3   OH234114   5.665   0.201  12.269 -0.9138  0.4200 -0.5105
 4208TIP3    H134115   5.724   0.207  12.194  1.9469 -2.0179  1.4094
 4208TIP3    H234116   5.611   0.124  12.251  0.8553 -1.1312  0.5527
 4209TIP3   OH234117   3.427   4.785  12.949 -0.2870 -0.0929 -0.1790
 4209TIP3    H134118   3.438   4.857  12.888  1.7053 -0.6488 -0.5158
 4209TIP3    H234119   3.515   4.769  12.983 -1.3504  0.2417  2.8831
 4210TIP3   OH234120   3.483   3.082  11.002  0.0062  0.3853  0.4229
 4210TIP3    H134121   3.575   3.060  10.988  0.0140  0.9784 -0.5180
 4210TIP3    H234122   3.481   3.131  11.084  0.5937  0.8282  0.1723
 4211TIP3   OH234123   3.636   5.276   4.569 -0.1369 -0.2944  0.4470
 4211TIP3    H134124   3.643   5.370   4.555  0.2896 -0.5721 -1.3375
 4211TIP3    H234125   3.671   5.262   4.657  1.2094  1.0277  0.1404
 4212TIP3   OH234126   4.987   4.025   5.017 -0.2201 -0.3787  0.1603
 4212TIP3    H134127   4.962   4.116   5.002  1.9487  0.3866  0.9279
 4212TIP3    H234128   4.960   4.008   5.108  1.2336  0.1771  0.7079
 4213TIP3   OH234129   5.122   6.450  16.132 -0.5983 -0.1978 -0.4491
 4213TIP3    H134130   5.035   6.479  16.104  0.2191 -0.3602 -3.2924
 4213TIP3    H234131   5.129   6.360  16.101 -0.0155 -0.7395  1.1942
 4214TIP3   OH234132   1.717   3.501   0.106 -0.2578 -0.4540 -0.1843
 4214TIP3    H134133   1.636   3.552   0.098 -1.0856 -1.9204 -1.2517
 4214TIP3    H234134   1.770   3.528   0.031 -0.5171 -0.8691 -0.5121
 4215TIP3   OH234135   1.596   5.196   1.638 -0.5226  0.9870  0.3700
 4215TIP3    H134136   1.670   5.242   1.678 -0.6264  1.6319 -0.1687
 4215TIP3    H234137   1.629   5.170   1.552 -1.0494  1.6308 -0.0330
 4216TIP3   OH234138   4.200   0.978  11.808 -0.5439 -0.2672  0.1168
 4216TIP3    H134139   4.131   1.000  11.871 -1.9188 -1.4434 -0.9347
 4216TIP3    H234140   4.226   0.889  11.831  1.1910  0.4410  0.9843
 4217TIP3   OH234141   3.147   4.750   1.640 -0.6884  0.7724 -0.2816
 4217TIP3    H134142   3.081   4.754   1.708 -0.1664 -1.4231  0.3983
 4217TIP3    H234143   3.215   4.693   1.675  0.6205  1.3413 -1.7826
 4218TIP3   OH234144   1.210   5.714  15.221  0.2105  0.4327 -0.0667
 4218TIP3    H134145   1.182   5.647  15.283 -0.2726  2.9973  2.6245
 4218TIP3    H234146   1.135   5.727  15.163 -0.4485  0.1219  0.7167
 4219TIP3   OH234147   4.379   2.354  13.445  0.4513 -0.6092 -0.1122
 4219TIP3    H134148   4.465   2.320  13.417  1.4116  1.1816  0.5873
 4219TIP3    H234149   4.400   2.417  13.514 -1.5357 -1.0165  0.8849
 4220TIP3   OH234150   1.742   1.165   4.352 -0.6572 -0.0330 -0.0108
 4220TIP3    H134151   1.684   1.179   4.277  0.2861 -0.2771 -0.7945
 4220TIP3    H234152   1.750   1.070   4.359 -0.8675 -0.0170  0.5031
 4221TIP3   OH234153   0.144   5.435  12.624  0.0175 -0.1684 -0.7012
 4221TIP3    H134154   0.113   5.363  12.679 -0.8156  0.2279 -0.6546
 4221TIP3    H234155   0.069   5.458  12.569  0.3434  0.5300 -0.8601
 4222TIP3   OH234156   2.615   0.172  15.509  0.1190 -0.1463  0.0706
 4222TIP3    H134157   2.649   0.242  15.454 -2.2680  0.5425 -0.5801
 4222TIP3    H234158   2.636   0.092  15.460  0.7107  0.2588 -0.3568
 4223TIP3   OH234159   2.530   2.006   6.360  0.7039  0.0110  0.0096
 4223TIP3    H134160   2.546   2.069   6.289  0.3503 -0.6433 -0.6695
 4223TIP3    H234161   2.612   2.003   6.409  0.5265  1.4572  0.4247
 4224TIP3   OH234162   2.070   1.014  10.673  0.0878  0.0313 -0.2981
 4224TIP3    H134163   2.116   1.078  10.619  1.1995 -0.2871  0.2555
 4224TIP3    H234164   1.994   1.062  10.707 -0.2205  0.4380 -1.5574
 4225TIP3   OH234165   5.939   3.994   5.092  0.3520  0.6551 -0.0396
 4225TIP3    H134166   5.922   3.929   5.160  2.0359  0.9905  0.7354
 4225TIP3    H234167   5.862   4.050   5.092 -1.1859 -1.3781 -0.7980
 4226TIP3   OH234168   1.270   4.388   1.818  0.1489  0.0026  0.2154
 4226TIP3    H134169   1.226   4.443   1.753  0.2190 -0.2408 -0.0377
 4226TIP3    H234170   1.211   4.314   1.831  0.4702 -0.3099 -0.1050
 4227TIP3   OH234171   5.576   0.460  11.442 -0.2971 -0.6921 -0.0472
 4227TIP3    H134172   5.542   0.517  11.512 -0.5740 -0.1649 -0.6102
 4227TIP3    H234173   5.567   0.371  11.478  2.1272 -0.2781  1.7034
 4228TIP3   OH234174   5.646   5.236   6.111 -0.1388 -0.0138 -0.1616
 4228TIP3    H134175   5.691   5.222   6.028 -0.2068  1.2002 -0.4100
 4228TIP3    H234176   5.668   5.326   6.135 -2.3196  0.5544 -0.2222
 4229TIP3   OH234177   1.808   0.778  11.458  0.0393 -0.2721 -0.6444
 4229TIP3    H134178   1.821   0.708  11.521  0.9390  0.5817  0.1324
 4229TIP3    H234179   1.762   0.847  11.507 -0.3842 -0.1065 -1.2589
 4230TIP3   OH234180   1.424   1.828   0.478 -0.2861 -0.0601  0.0675
 4230TIP3    H134181   1.371   1.765   0.527 -2.4954  0.6460 -1.3212
 4230TIP3    H234182   1.384   1.913   0.496  1.2390  0.6822  0.0746
 4231TIP3   OH234183   6.258   3.651  15.585  0.0942 -0.2719 -0.3486
 4231TIP3    H134184   6.229   3.662  15.494 -1.3905  0.2924  0.1640
 4231TIP3    H234185   6.212   3.573  15.616 -0.3147  0.2031  0.2621
 4232TIP3   OH234186   5.255   0.169  13.873  0.3032  0.7009  0.1123
 4232TIP3    H134187   5.318   0.112  13.830  2.7053  3.0745  0.3265
 4232TIP3    H234188   5.228   0.231  13.806  2.0184  2.7500  1.2338
 4233TIP3   OH234189   3.774   5.745  11.657 -0.3131 -0.4647  0.2272
 4233TIP3    H134190   3.772   5.650  11.670 -1.6959 -0.1345  2.6241
 4233TIP3    H234191   3.813   5.756  11.570  0.7135 -3.1823  0.2839
 4234TIP3   OH234192   2.386   3.965  16.831 -0.3884  0.0395  0.3409
 4234TIP3    H134193   2.295   3.974  16.803  0.0256  0.6485 -0.8711
 4234TIP3    H234194   2.436   4.018  16.768  0.7845 -0.1721  1.0728
 4235TIP3   OH234195   2.196   4.229   2.144  0.7943 -0.2316 -0.2157
 4235TIP3    H134196   2.227   4.274   2.223  1.0588 -1.1830  0.2269
 4235TIP3    H234197   2.107   4.262   2.131  0.6359 -0.2973  0.6545
 4236TIP3   OH234198   2.195   4.425   3.066  0.5502 -0.0604 -0.4587
 4236TIP3    H134199   2.152   4.510   3.071 -0.5729 -0.6618  0.5199
 4236TIP3    H234200   2.287   4.444   3.080  0.2696  0.9785  0.0468
 4237TIP3   OH234201   3.078   2.141  11.864 -0.4591 -0.0569  0.1461
 4237TIP3    H134202   2.987   2.118  11.843 -0.0295  0.2546 -2.1667
 4237TIP3    H234203   3.074   2.175  11.954 -2.5664 -0.3128  0.1739
 4238TIP3   OH234204   1.836   3.073  15.595  0.1352  0.0151 -0.2780
 4238TIP3    H134205   1.847   3.083  15.689 -0.7801  2.7473 -0.3992
 4238TIP3    H234206   1.887   3.145  15.557 -0.4489 -0.3492 -1.8084
 4239TIP3   OH234207   1.195   1.759  13.126 -0.5724 -0.0597  0.0441
 4239TIP3    H134208   1.218   1.847  13.155  2.6606 -0.4148 -1.1827
 4239TIP3    H234209   1.204   1.705  13.205 -2.1495  0.6347  0.7030
 4240TIP3   OH234210   2.036   1.647  12.004  0.1663  0.5495  0.0543
 4240TIP3    H134211   2.053   1.574  12.063  1.2275 -0.5837 -1.6223
 4240TIP3    H234212   2.099   1.714  12.030  3.5614 -1.5404 -2.4874
 4241TIP3   OH234213   6.688   1.865   3.280  0.1438  0.4705  0.1854
 4241TIP3    H134214   6.648   1.951   3.272 -0.4347  0.3221  1.3228
 4241TIP3    H234215   6.673   1.823   3.195 -1.0824  0.8555  0.2020
 4242TIP3   OH234216   5.947   4.905   3.889 -0.3720  0.1883 -0.3729
 4242TIP3    H134217   5.869   4.899   3.944  0.5198  1.7431  1.0966
 4242TIP3    H234218   5.997   4.979   3.925  3.0425 -2.3182  0.3644
 4243TIP3   OH234219   1.290   2.858  15.698 -0.1195 -0.0073  0.6762
 4243TIP3    H134220   1.376   2.830  15.727 -1.1714 -1.8994  2.0753
 4243TIP3    H234221   1.248   2.778  15.666 -1.5815  0.7651  0.6167
 4244TIP3   OH234222   6.142   5.199   5.850  0.5594 -0.0132  0.0426
 4244TIP3    H134223   6.090   5.133   5.896  0.1973 -0.1672 -0.5715
 4244TIP3    H234224   6.156   5.268   5.914 -0.3116 -0.0222  0.2513
 4245TIP3   OH234225   0.452   2.048  15.211 -0.5541  0.0178  0.4130
 4245TIP3    H134226   0.442   1.954  15.195 -1.1449  0.3050 -0.9197
 4245TIP3    H234227   0.545   2.059  15.231 -0.1133 -0.5925 -1.2104
 4246TIP3   OH234228   1.418   2.427  14.933 -0.0341  0.3017 -0.5248
 4246TIP3    H134229   1.340   2.385  14.969  0.3874  1.0434  1.3117
 4246TIP3    H234230   1.482   2.356  14.926 -0.5288 -0.0971 -1.0162
 4247TIP3   OH234231   6.086   6.431  11.836 -0.2107  0.3547 -0.4188
 4247TIP3    H134232   6.037   6.390  11.765 -0.9906  2.7040 -1.2996
 4247TIP3    H234233   6.035   6.411  11.915  0.3415 -1.7576 -0.5566
 4248TIP3   OH234234   3.242   1.238  15.938 -0.6107 -0.5006 -0.1070
 4248TIP3    H134235   3.275   1.151  15.916 -1.0355 -0.5416 -0.6082
 4248TIP3    H234236   3.281   1.258  16.023 -0.4550 -1.1535 -0.0183
 4249TIP3   OH234237   5.620   5.933   0.617 -0.5464  0.0763 -0.1908
 4249TIP3    H134238   5.641   5.986   0.539  0.0742  0.0344 -0.0537
 4249TIP3    H234239   5.597   5.998   0.684 -0.3195  0.1495 -0.1822
 4250TIP3   OH234240   0.316   4.749   6.564  0.0126  0.2019  0.4640
 4250TIP3    H134241   0.382   4.748   6.495 -0.1667 -1.6517  0.3149
 4250TIP3    H234242   0.243   4.800   6.527  0.7635  1.0295  0.1062
 4251TIP3   OH234243   5.396   3.980  11.649 -0.5646  0.0186  0.0026
 4251TIP3    H134244   5.365   3.908  11.595  2.4232 -1.2512 -0.1273
 4251TIP3    H234245   5.387   3.949  11.739 -0.2449 -0.0916 -0.0043
 4252TIP3   OH234246   0.849   4.411  13.004 -0.4372  0.1708  0.0416
 4252TIP3    H134247   0.909   4.470  12.958  0.3907 -0.6593  0.0658
 4252TIP3    H234248   0.775   4.402  12.944 -0.2326  0.6330 -0.2873
 4253TIP3   OH234249   5.782   3.181  11.540  0.0696 -0.5877  0.2908
 4253TIP3    H134250   5.750   3.270  11.523  1.0394 -0.2918 -0.0416
 4253TIP3    H234251   5.709   3.137  11.582 -0.1542  0.6092  1.1841
 4254TIP3   OH234252   0.087   3.119   0.562 -0.2309  0.5524  0.1757
 4254TIP3    H134253   0.145   3.102   0.488 -0.2158  1.3485 -0.0075
 4254TIP3    H234254   0.131   3.188   0.611 -0.8769  0.9502  0.1974
 4255TIP3   OH234255   6.606   0.741   6.692  0.0958 -0.4403 -0.5221
 4255TIP3    H134256   6.575   0.800   6.762  0.6389 -1.5613  0.6708
 4255TIP3    H234257   6.680   0.787   6.654  0.1182 -0.0478 -0.0214
 4256TIP3   OH234258   4.920   0.761   1.270  0.2992 -0.3750  0.4457
 4256TIP3    H134259   4.993   0.805   1.314  0.1816 -0.3647  0.6338
 4256TIP3    H234260   4.843   0.787   1.321  0.1624 -0.3605  0.2285
 4257TIP3   OH234261   4.048   4.931   1.679  0.2910 -0.3638 -0.1939
 4257TIP3    H134262   4.013   4.975   1.756  1.5662  0.1450  0.1088
 4257TIP3    H234263   3.996   4.964   1.606 -1.4567 -1.4522  0.5221
 4258TIP3   OH234264   1.812   3.767  10.963  0.2246  0.1571 -0.1638
 4258TIP3    H134265   1.794   3.838  10.901 -0.1388 -0.6588 -1.0062
 4258TIP3    H234266   1.734   3.712  10.960  1.1336 -1.1386 -0.7272
 4259TIP3   OH234267   1.964   3.102   3.703  0.1132  0.1514 -0.8613
 4259TIP3    H134268   1.941   3.019   3.662  2.0864 -1.4664  1.1644
 4259TIP3    H234269   1.925   3.098   3.790  0.0101  1.4590 -0.8336
 4260TIP3   OH234270   4.988   1.226  16.330  0.3214 -0.4797 -0.1011
 4260TIP3    H134271   5.069   1.180  16.350 -2.3959 -4.9526  1.2346
 4260TIP3    H234272   4.941   1.169  16.270 -1.2908  2.6704 -1.9868
 4261TIP3   OH234273   2.738   4.637   1.013 -0.1658  0.7590  0.5661
 4261TIP3    H134274   2.824   4.594   1.015  0.3349  1.7245  0.3781
 4261TIP3    H234275   2.759   4.731   1.013 -1.1747  1.0065 -1.8345
 4262TIP3   OH234276   2.951   3.098   3.905  0.8448  0.0433  0.8158
 4262TIP3    H134277   2.874   3.147   3.875  0.5741 -0.4433  0.7110
 4262TIP3    H234278   2.950   3.108   4.000  0.3872 -0.3409  0.8565
 4263TIP3   OH234279   6.012   4.725  16.339  0.0250 -0.3777 -0.1627
 4263TIP3    H134280   5.924   4.687  16.331  1.0307 -2.7750 -0.1149
 4263TIP3    H234281   6.054   4.674  16.408  1.5659  0.5768 -0.3738
 4264TIP3   OH234282   2.826   4.915   0.995 -0.3322  0.1960  0.3218
 4264TIP3    H134283   2.859   4.918   1.085 -0.5608 -2.5568  0.5389
 4264TIP3    H234284   2.903   4.896   0.942  0.0946  3.3504 -0.3081
 4265TIP3   OH234285   5.058   6.655  14.513  0.2323  0.2812  0.0081
 4265TIP3    H134286   5.114   6.622  14.442 -0.7505  0.7266 -0.9897
 4265TIP3    H234287   5.118   6.670  14.586  1.1348 -0.9791 -0.4528
 4266TIP3   OH234288   3.613   0.694  12.390 -0.1740  0.4100 -0.3510
 4266TIP3    H134289   3.678   0.637  12.348  0.3957  1.1686 -0.5141
 4266TIP3    H234290   3.561   0.635  12.445 -0.0457 -0.3731 -1.0624
 4267TIP3   OH234291   3.710   1.291   5.149  0.1646 -0.1895 -0.4581
 4267TIP3    H134292   3.729   1.212   5.099  0.0757 -0.8457  0.5245
 4267TIP3    H234293   3.785   1.300   5.209  0.3015  0.6153 -0.7421
 4268TIP3   OH234294   4.682   6.192   5.465 -0.1367  0.0347  0.1493
 4268TIP3    H134295   4.601   6.156   5.504 -0.3586  0.4911  0.1076
 4268TIP3    H234296   4.740   6.116   5.458 -0.4442 -0.2381  0.4808
 4269TIP3   OH234297   4.151   5.218  10.980 -1.0142  0.0254  0.8767
 4269TIP3    H134298   4.079   5.208  10.918 -1.0901  0.1636  0.9425
 4269TIP3    H234299   4.137   5.304  11.019  0.1208  0.7724 -0.3154
 4270TIP3   OH234300   0.742   1.403  13.856 -0.3148 -0.3647 -0.1176
 4270TIP3    H134301   0.753   1.422  13.949 -1.1798  0.6165 -0.2041
 4270TIP3    H234302   0.658   1.358  13.850 -1.9294  2.5995 -0.7889
 4271TIP3   OH234303   0.951   0.619   5.613 -0.8758  0.0815 -0.3476
 4271TIP3    H134304   0.912   0.617   5.700  0.3570 -0.7442  0.1882
 4271TIP3    H234305   1.017   0.688   5.618 -0.2087 -0.5583 -0.3767
 4272TIP3   OH234306   4.470   3.352   4.262 -0.3113 -0.0076  0.0006
 4272TIP3    H134307   4.376   3.334   4.258 -0.3162  0.1905 -1.2680
 4272TIP3    H234308   4.507   3.279   4.310 -1.1431  0.0017  0.6599
 4273TIP3   OH234309   0.207   6.486   4.684 -0.2551 -0.3081 -0.0177
 4273TIP3    H134310   0.262   6.558   4.654  0.7055 -0.8374  0.4665
 4273TIP3    H234311   0.202   6.496   4.779 -0.7222 -0.4626 -0.0203
 4274TIP3   OH234312   6.409   1.203  13.351  0.1507  0.0679 -0.2607
 4274TIP3    H134313   6.413   1.151  13.271 -2.0511 -1.0581  0.3090
 4274TIP3    H234314   6.321   1.188  13.385  0.4045  2.0077  1.3942
 4275TIP3   OH234315   1.605   5.644   5.934  0.5763 -0.2145  0.3049
 4275TIP3    H134316   1.681   5.698   5.957  2.2002 -2.0432 -0.6020
 4275TIP3    H234317   1.614   5.565   5.987  0.3331 -1.2445 -1.1558
 4276TIP3   OH234318   2.423   3.233   2.461 -0.2718 -0.1044  0.0365
 4276TIP3    H134319   2.416   3.206   2.552 -0.4828 -2.4763 -0.6562
 4276TIP3    H234320   2.334   3.223   2.426 -0.1159  0.4529 -0.5263
 4277TIP3   OH234321   4.708   6.135  15.692  0.1128 -0.5003 -0.1865
 4277TIP3    H134322   4.654   6.212  15.676  2.0677  0.8324 -0.5589
 4277TIP3    H234323   4.651   6.061  15.673 -1.2909  0.8848 -1.5133
 4278TIP3   OH234324   6.385   1.143   5.594 -0.3721  0.7180 -0.2759
 4278TIP3    H134325   6.385   1.148   5.690  2.9369 -0.6492 -0.1520
 4278TIP3    H234326   6.308   1.090   5.574 -1.0486  0.9220  1.6112
 4279TIP3   OH234327   5.507   2.030  15.764 -0.2307  0.8477  0.1167
 4279TIP3    H134328   5.521   1.936  15.752  0.1106  0.9416 -0.2382
 4279TIP3    H234329   5.486   2.063  15.676 -1.1324  0.9706  0.3805
 4280TIP3   OH234330   4.085   2.925  13.286  0.7999 -0.4693  0.4875
 4280TIP3    H134331   4.044   2.916  13.372  0.6536  0.3248  0.5012
 4280TIP3    H234332   4.091   2.835  13.253 -1.6775 -0.5388  0.1340
 4281TIP3   OH234333   3.158   6.644  13.005  0.0318 -0.0230  0.6321
 4281TIP3    H134334   3.183   6.673  13.092 -2.2785  2.1250  0.6222
 4281TIP3    H234335   3.242   6.629  12.960  1.2419  0.7555  2.5663
 4282TIP3   OH234336   2.549   3.760   4.389  0.0841  0.0098 -0.2229
 4282TIP3    H134337   2.470   3.799   4.425  0.4406  1.2734 -0.7955
 4282TIP3    H234338   2.520   3.678   4.349 -0.7262 -0.1302  0.6666
 4283TIP3   OH234339   4.107   0.213   0.800 -0.0057  0.0505 -0.2525
 4283TIP3    H134340   4.193   0.246   0.828  0.2677 -0.6015 -0.3272
 4283TIP3    H234341   4.086   0.146   0.864 -0.5137  0.2856 -0.1724
 4284TIP3   OH234342   6.102   6.695  12.489  0.2250  0.2924 -0.4369
 4284TIP3    H134343   6.197   6.701  12.482  0.1934 -0.0228 -1.1731
 4284TIP3    H234344   6.073   6.786  12.493  0.6432  0.3805  1.2174
 4285TIP3   OH234345   2.960   4.423  17.110  0.2095  0.4695 -0.8207
 4285TIP3    H134346   2.996   4.381  17.188 -0.0207  0.2422 -0.8393
 4285TIP3    H234347   3.030   4.415  17.045  0.5902  1.0896 -0.4946
 4286TIP3   OH234348   2.297   1.290  16.904 -0.0855  0.0327 -0.3700
 4286TIP3    H134349   2.246   1.212  16.882 -0.6088 -0.0939  1.1974
 4286TIP3    H234350   2.265   1.357  16.843  0.1442 -0.8871 -1.5149
 4287TIP3   OH234351   2.785   2.469  11.720 -0.5860  0.5301  0.4309
 4287TIP3    H134352   2.795   2.540  11.783  0.7041  0.8296 -0.0982
 4287TIP3    H234353   2.863   2.474  11.665 -1.0664 -0.5409 -0.3750
 4288TIP3   OH234354   0.652   1.197   5.188 -0.4676 -0.3149 -0.0262
 4288TIP3    H134355   0.597   1.236   5.120  1.3304  0.9046 -0.8373
 4288TIP3    H234356   0.719   1.149   5.139  0.2732 -0.2286  0.8900
 4289TIP3   OH234357   4.903   1.046   1.589  0.0708 -0.2520  0.3116
 4289TIP3    H134358   4.835   0.981   1.606  0.5285 -0.5937  0.8853
 4289TIP3    H234359   4.887   1.115   1.653  1.3489 -1.1922  1.6995
 4290TIP3   OH234360   2.994   4.954   4.090  0.5757  0.4341 -0.3522
 4290TIP3    H134361   3.039   4.999   4.018 -0.1246  1.1760 -0.3312
 4290TIP3    H234362   2.958   5.024   4.144 -1.1559 -0.1451 -0.7290
 4291TIP3   OH234363   1.668   2.842  12.451  0.7843  0.1668 -0.1367
 4291TIP3    H134364   1.573   2.846  12.450  0.8216  1.6842 -2.4789
 4291TIP3    H234365   1.693   2.880  12.535 -0.6521  0.0255  0.3708
 4292TIP3   OH234366   1.173   4.667  14.153  0.6671 -0.2227 -1.0442
 4292TIP3    H134367   1.206   4.578  14.154  1.1010 -0.0622 -0.6660
 4292TIP3    H234368   1.175   4.693  14.060  3.8458  0.5893 -0.8021
 4293TIP3   OH234369   2.744   6.468   1.465 -0.0414 -0.3170  0.4937
 4293TIP3    H134370   2.686   6.501   1.534  2.2840 -0.3172  2.4817
 4293TIP3    H234371   2.713   6.379   1.450  0.1610 -0.7400  2.4111
 4294TIP3   OH234372   4.309   1.820   5.424  0.0187 -0.3234 -0.4884
 4294TIP3    H134373   4.399   1.790   5.409 -0.4574 -1.4189 -1.1881
 4294TIP3    H234374   4.313   1.865   5.509  0.2879 -4.3534  1.7527
 4295TIP3   OH234375   3.166   5.075  15.752  0.1839  0.6401 -0.0376
 4295TIP3    H134376   3.098   5.034  15.699  1.3405 -0.3980 -0.7265
 4295TIP3    H234377   3.138   5.059  15.843  0.1378 -0.8486 -0.3060
 4296TIP3   OH234378   0.952   0.134  12.583  0.5795 -0.4333 -0.2957
 4296TIP3    H134379   1.029   0.185  12.558 -0.6471  0.7644 -1.7845
 4296TIP3    H234380   0.950   0.062  12.519 -1.1706  1.2303 -2.1944
 4297TIP3   OH234381   5.267   6.818   4.513 -0.2914 -0.3676  0.0463
 4297TIP3    H134382   5.180   6.856   4.503 -0.5895 -0.2519  2.8489
 4297TIP3    H234383   5.254   6.724   4.499 -0.9656 -0.4218  1.0033
 4298TIP3   OH234384   3.508   1.122   4.352 -0.2210 -0.5664  0.4689
 4298TIP3    H134385   3.545   1.071   4.280 -0.7319  0.6904 -0.7069
 4298TIP3    H234386   3.555   1.091   4.429  2.1081 -0.1810 -0.7542
 4299TIP3   OH234387   6.160   4.520  15.401  0.5951  0.1072 -0.0109
 4299TIP3    H134388   6.226   4.500  15.468  0.1550  0.2601  0.4710
 4299TIP3    H234389   6.169   4.614  15.386 -0.5013  0.4039  1.1230
 4300TIP3   OH234390   6.240   2.234  13.580  0.2380 -0.3596 -0.0190
 4300TIP3    H134391   6.215   2.304  13.639 -3.3717 -2.4425  1.0442
 4300TIP3    H234392   6.302   2.181  13.631  1.7458  1.1112 -0.2740
 4301TIP3   OH234393   3.900   2.155   4.941  0.1989  0.2524 -0.6654
 4301TIP3    H134394   3.902   2.215   5.016  0.1900  1.7591 -1.8433
 4301TIP3    H234395   3.829   2.094   4.961  0.9455 -0.0758  1.0826
 4302TIP3   OH234396   3.653   0.524  14.176  0.5871 -0.2749 -0.3930
 4302TIP3    H134397   3.636   0.498  14.266  0.6357 -2.5926 -1.0149
 4302TIP3    H234398   3.747   0.539  14.173  0.2739  2.1167  0.4744
 4303TIP3   OH234399   2.411   5.335   1.882  0.1896 -0.0261  0.1931
 4303TIP3    H134400   2.447   5.421   1.861  0.4049 -0.1589  0.0129
 4303TIP3    H234401   2.456   5.309   1.962 -1.2013  0.8233  1.2588
 4304TIP3   OH234402   1.807   2.842   3.974 -0.4370  0.2535  0.1529
 4304TIP3    H134403   1.773   2.928   3.948 -1.5586 -0.3077 -0.2648
 4304TIP3    H234404   1.729   2.790   3.993  0.1808 -1.0131 -0.6920
 4305TIP3   OH234405   4.115   4.711  14.232 -0.3506  0.1485  0.0304
 4305TIP3    H134406   4.103   4.741  14.142 -0.0906  0.0599 -0.0346
 4305TIP3    H234407   4.168   4.778  14.273  1.1712 -0.7448 -0.4232
 4306TIP3   OH234408   4.046   2.653  14.129 -0.2940  0.0620  0.5150
 4306TIP3    H134409   3.971   2.709  14.150 -0.0836 -0.6171  3.2295
 4306TIP3    H234410   4.015   2.564  14.145  0.5938 -0.3477  0.0128
 4307TIP3   OH234411   1.849   2.166  12.300  0.2126 -0.0625  0.0770
 4307TIP3    H134412   1.780   2.224  12.267  1.8417  1.7948 -0.1613
 4307TIP3    H234413   1.841   2.087  12.246 -0.9377  0.6118 -0.7643
 4308TIP3   OH234414   6.621   4.587   0.229 -0.8657 -0.0215 -0.1579
 4308TIP3    H134415   6.597   4.502   0.267 -0.7921  0.2257  0.4409
 4308TIP3    H234416   6.538   4.634   0.223 -1.0312 -0.4301 -1.2401
 4309TIP3   OH234417   5.674   5.278  16.532  0.0009 -0.0688  0.8079
 4309TIP3    H134418   5.744   5.306  16.473 -0.5812 -1.9033 -0.8197
 4309TIP3    H234419   5.719   5.253  16.613  0.8295  2.2486  1.1098
 4310TIP3   OH234420   0.246   5.244  13.180 -0.1678 -0.2095  0.1483
 4310TIP3    H134421   0.198   5.163  13.164 -1.7071  0.6277  0.4271
 4310TIP3    H234422   0.183   5.300  13.226  1.6644  0.2575  2.1134
 4311TIP3   OH234423   5.527   3.749   2.670  0.5582  0.1175  0.3051
 4311TIP3    H134424   5.534   3.842   2.692 -0.3560  0.4922 -0.9110
 4311TIP3    H234425   5.472   3.712   2.739  0.7499  0.5178  0.6760
 4312TIP3   OH234426   1.086   2.833  15.113  0.5211 -0.0418 -0.3667
 4312TIP3    H134427   1.088   2.870  15.025  2.1041 -0.2291 -0.4192
 4312TIP3    H234428   1.078   2.738  15.100  0.2915 -0.0338 -0.2948
 4313TIP3   OH234429   4.190   6.722   0.384  0.5096  0.0641 -0.1269
 4313TIP3    H134430   4.280   6.736   0.412  0.2023  0.1834  0.8058
 4313TIP3    H234431   4.136   6.764   0.451 -0.2492 -0.1178 -0.6047
 4314TIP3   OH234432   2.290   5.567  13.935 -0.0176 -0.3684 -0.2574
 4314TIP3    H134433   2.309   5.615  13.854 -1.8368  1.1325  0.1822
 4314TIP3    H234434   2.345   5.609  14.001  0.7816 -1.0011 -0.5055
 4315TIP3   OH234435   2.052   1.203  17.223 -0.3595  0.7967  0.0883
 4315TIP3    H134436   2.020   1.147  17.152 -0.8930 -1.3349  1.9417
 4315TIP3    H234437   1.990   1.189  17.294  0.2872  2.7229  1.0608
 4316TIP3   OH234438   5.702   6.070  16.861  0.5875  0.1180  0.1686
 4316TIP3    H134439   5.697   6.148  16.917  1.1374  0.4939 -0.2810
 4316TIP3    H234440   5.786   6.030  16.885  0.4466 -0.1626  0.1834
 4317TIP3   OH234441   5.487   2.668   0.582 -0.4136  0.2317  0.5226
 4317TIP3    H134442   5.493   2.692   0.674  0.4288  0.3937  0.4287
 4317TIP3    H234443   5.429   2.733   0.544  2.1497  2.4227  0.1813
 4318TIP3   OH234444   6.258   4.214   0.955  0.9248 -0.3127 -0.4377
 4318TIP3    H134445   6.335   4.218   1.011  1.5742 -1.1526 -1.2518
 4318TIP3    H234446   6.248   4.121   0.934 -1.7431 -0.5760  1.6078
 4319TIP3   OH234447   5.748   2.686  13.908  0.5240  0.1803 -0.5606
 4319TIP3    H134448   5.831   2.687  13.862  0.9796  0.5888  0.2548
 4319TIP3    H234449   5.721   2.594  13.908  1.2549 -0.0352 -0.3284
 4320TIP3   OH234450   1.671   0.850  12.764  0.0242  0.0177  0.2627
 4320TIP3    H134451   1.698   0.769  12.809  0.3194 -0.6488 -1.1006
 4320TIP3    H234452   1.602   0.885  12.820 -0.9977 -1.8553  0.2258
 4321TIP3   OH234453   1.583   3.611  10.884 -0.1666 -0.2476 -0.1606
 4321TIP3    H134454   1.630   3.532  10.858 -0.1600 -0.7970  1.4530
 4321TIP3    H234455   1.535   3.637  10.806  0.7939 -1.1481 -1.0704
 4322TIP3   OH234456   2.353   3.481   3.280  0.2131  0.2126  0.6314
 4322TIP3    H134457   2.320   3.565   3.249 -1.4748 -0.5371  0.3037
 4322TIP3    H234458   2.292   3.417   3.243  0.6853 -1.0391  1.9743
 4323TIP3   OH234459   6.583   3.111   0.774  0.4769 -0.4063 -0.2865
 4323TIP3    H134460   6.632   3.095   0.855  1.5689  0.1805 -0.8177
 4323TIP3    H234461   6.549   3.200   0.783 -1.1459 -1.0872  0.4060
 4324TIP3   OH234462   2.829   2.322  14.743 -0.8184  0.8041 -0.4931
 4324TIP3    H134463   2.918   2.348  14.720 -0.6153 -0.1604 -0.7943
 4324TIP3    H234464   2.833   2.304  14.837 -1.4507  3.8955  0.1892
 4325TIP3   OH234465   2.269   0.424   5.091  0.0642 -0.4807  0.1469
 4325TIP3    H134466   2.178   0.452   5.098  0.4348  0.8668 -0.2776
 4325TIP3    H234467   2.312   0.494   5.042  1.4084 -0.9167  0.6803
 4326TIP3   OH234468   4.974   3.589  15.307  0.0268  0.1462 -0.2954
 4326TIP3    H134469   4.963   3.592  15.212 -0.7199  1.9885 -0.1608
 4326TIP3    H234470   4.884   3.586  15.342  0.2912 -0.5040  0.3678
 4327TIP3   OH234471   2.494   3.022  11.320  0.5431 -0.1867 -0.3276
 4327TIP3    H134472   2.574   2.970  11.309 -0.4076 -2.2154  2.0382
 4327TIP3    H234473   2.427   2.958  11.343 -1.1972  1.8279  0.2948
 4328TIP3   OH234474   2.521   2.089   3.946  0.2920 -0.0718  0.6515
 4328TIP3    H134475   2.594   2.113   4.004 -0.5039  0.8399  1.3011
 4328TIP3    H234476   2.444   2.095   4.002 -0.5775  1.5328 -0.6808
 4329TIP3   OH234477   1.853   1.662   3.601 -0.2091  0.5207  0.1079
 4329TIP3    H134478   1.923   1.717   3.566  1.5855 -0.8799  1.3755
 4329TIP3    H234479   1.856   1.678   3.696 -1.9448  0.8252  0.1174
 4330TIP3   OH234480   3.094   2.384   3.058 -0.2222  0.0303 -0.3264
 4330TIP3    H134481   3.087   2.299   3.013  1.1640  0.8758 -2.1688
 4330TIP3    H234482   3.018   2.433   3.028 -1.4166 -0.7788  1.2888
 4331TIP3   OH234483   3.280   0.758  14.220  1.1074 -0.3216 -0.3438
 4331TIP3    H134484   3.269   0.683  14.161 -1.0908  0.9340 -1.6145
 4331TIP3    H234485   3.351   0.809  14.182  0.0937  0.1741 -1.5907
 4332TIP3   OH234486   1.791   1.381   2.174  0.2495 -0.3115  0.6767
 4332TIP3    H134487   1.729   1.354   2.106 -0.7284  1.2386  0.9367
 4332TIP3    H234488   1.873   1.338   2.149 -0.9603 -2.6320  0.4979
 4333TIP3   OH234489   6.808   2.250   0.550  0.2782  0.0410 -0.1197
 4333TIP3    H134490   6.756   2.221   0.625 -1.4290  0.6598 -1.0368
 4333TIP3    H234491   6.813   2.173   0.493 -0.5194  0.2676 -0.5054
 4334TIP3   OH234492   1.094   2.350  11.218  0.1100  0.1067 -0.0244
 4334TIP3    H134493   1.166   2.390  11.170  0.4110 -0.5418 -0.1223
 4334TIP3    H234494   1.136   2.289  11.278 -0.1892  1.6364  1.7887
 4335TIP3   OH234495   2.749   6.720   3.085  0.4834  0.0681 -0.2004
 4335TIP3    H134496   2.664   6.714   3.043  0.1500 -4.3526  0.8639
 4335TIP3    H234497   2.731   6.705   3.178  2.2778  0.4013  0.2187
 4336TIP3   OH234498   4.103   2.489  12.104  0.0531 -0.0690  0.0437
 4336TIP3    H134499   4.131   2.411  12.153 -0.6456  0.7182  1.6947
 4336TIP3    H234500   4.008   2.480  12.096  0.1647 -0.2120 -1.2129
 4337TIP3   OH234501   1.189   3.313  15.540 -0.1416 -0.3332 -0.4019
 4337TIP3    H134502   1.227   3.266  15.614  1.6678 -0.3535 -1.3281
 4337TIP3    H234503   1.197   3.253  15.466 -0.4594  0.3037 -0.9601
 4338TIP3   OH234504   0.074   2.896   0.297  0.0881 -0.6683 -0.2154
 4338TIP3    H134505  -0.019   2.905   0.317  0.5807  1.6559  1.2051
 4338TIP3    H234506   0.099   2.812   0.335 -1.6585 -1.8479 -1.6001
 4339TIP3   OH234507   2.408   1.028   0.318 -0.2714 -0.2133 -0.1529
 4339TIP3    H134508   2.366   1.056   0.237 -1.7049  1.2697  1.0733
 4339TIP3    H234509   2.383   0.936   0.329 -0.4332 -0.2872 -1.1506
 4340TIP3   OH234510   0.489   1.323  15.113 -0.2935  0.0252 -0.3470
 4340TIP3    H134511   0.583   1.330  15.094 -0.6525 -0.5753 -2.5306
 4340TIP3    H234512   0.478   1.232  15.142  0.0642  0.6064  1.6908
 4341TIP3   OH234513   4.305   5.958  15.598 -0.2044  0.6756 -0.0655
 4341TIP3    H134514   4.212   5.937  15.585 -0.0884 -0.0091  0.2087
 4341TIP3    H234515   4.328   6.011  15.521 -0.2756 -0.9178 -1.2102
 4342TIP3   OH234516   0.963   5.968   0.813 -0.0378 -0.5355  0.6691
 4342TIP3    H134517   0.991   5.880   0.836 -3.3180 -2.2903 -1.6843
 4342TIP3    H234518   1.006   5.986   0.730 -1.3449 -0.9714 -0.1173
 4343TIP3   OH234519   5.647   2.691   0.070  0.2077 -0.2823 -0.1729
 4343TIP3    H134520   5.685   2.730   0.149  1.3797  1.8418 -1.7350
 4343TIP3    H234521   5.689   2.605   0.064 -0.0348 -0.5562  1.6032
 4344TIP3   OH234522   3.219   6.284  17.029  0.3971 -0.3346  0.0258
 4344TIP3    H134523   3.188   6.287  16.938  2.7727 -0.5680 -0.8290
 4344TIP3    H234524   3.139   6.287  17.081 -1.0722 -1.1387 -2.0862
 4345TIP3   OH234525   1.572   3.819   4.022 -0.1644 -0.0895  0.2104
 4345TIP3    H134526   1.605   3.898   4.064  0.4020  0.6327 -1.5758
 4345TIP3    H234527   1.538   3.848   3.938 -0.4770 -1.6606 -0.2261
 4346TIP3   OH234528   3.740   2.938   1.213 -0.2721 -0.0430  0.1554
 4346TIP3    H134529   3.705   3.024   1.236 -1.4181 -0.5660  0.3799
 4346TIP3    H234530   3.696   2.877   1.273  1.6280 -0.6205  1.0318
 4347TIP3   OH234531   0.319   1.759   3.244 -0.6598  0.0152  0.7214
 4347TIP3    H134532   0.305   1.722   3.157  0.3029  0.8432  0.1978
 4347TIP3    H234533   0.236   1.801   3.266 -1.1461 -0.8427  0.5192
 4348TIP3   OH234534   5.641   0.484   4.673 -0.1056 -0.3991  0.2183
 4348TIP3    H134535   5.694   0.493   4.752 -1.2734  0.5560  0.9104
 4348TIP3    H234536   5.669   0.401   4.634  0.3503 -0.9574  1.7192
 4349TIP3   OH234537   3.216   3.955  14.104  0.3696 -0.1690 -0.2336
 4349TIP3    H134538   3.156   3.976  14.176  0.4910  1.9444 -0.6982
 4349TIP3    H234539   3.297   3.927  14.147 -0.0987 -0.5130  0.4311
 4350TIP3   OH234540   2.577   2.813   2.751  0.5324  0.5488  0.4560
 4350TIP3    H134541   2.491   2.788   2.782  0.8535  0.3005  1.1553
 4350TIP3    H234542   2.591   2.758   2.673 -1.3541  3.0248 -1.7254
 4351TIP3   OH234543   0.280   4.514  16.623  0.0185 -0.1031 -0.5599
 4351TIP3    H134544   0.275   4.539  16.531 -2.5860  1.4651 -0.0310
 4351TIP3    H234545   0.214   4.445  16.634 -0.9744  0.9941  0.5157
 4352TIP3   OH234546   4.939   5.904  14.563  0.2223  0.1683  0.5334
 4352TIP3    H134547   4.955   5.918  14.657 -0.8535  1.2350  0.5630
 4352TIP3    H234548   4.870   5.839  14.560  1.1148 -0.7886  0.4571
 4353TIP3   OH234549   0.542   1.172   4.897  0.2395  0.7938 -0.0404
 4353TIP3    H134550   0.543   1.195   4.804 -0.5119  1.1532  0.0370
 4353TIP3    H234551   0.450   1.178   4.922  0.3725  0.2201  0.6127
 4354TIP3   OH234552   4.875   3.646   3.495  0.0382 -0.3508 -0.1236
 4354TIP3    H134553   4.856   3.553   3.512  0.6166 -0.5128 -0.3293
 4354TIP3    H234554   4.790   3.688   3.489 -0.3032 -1.2312 -1.9988
 4355TIP3   OH234555   4.785   3.327  17.041  0.3878 -0.1072 -0.2995
 4355TIP3    H134556   4.734   3.247  17.054  3.3531 -2.3390 -1.7346
 4355TIP3    H234557   4.847   3.328  17.114 -1.0213  2.0749  0.9134
 4356TIP3   OH234558   0.643   3.034   2.222  0.2197 -0.4937 -0.0410
 4356TIP3    H134559   0.617   3.088   2.148  0.1442 -0.1868  0.2068
 4356TIP3    H234560   0.727   3.069   2.249  0.3371 -0.7291 -0.1021
 4357TIP3   OH234561   5.288   1.686   3.844  0.0625 -0.6101  0.2235
 4357TIP3    H134562   5.254   1.771   3.817  0.5152 -0.1267  1.1257
 4357TIP3    H234563   5.342   1.706   3.921  1.0994 -1.5554 -0.2476
 4358TIP3   OH234564   2.617   1.174  15.334 -0.5763  0.0386 -0.7888
 4358TIP3    H134565   2.579   1.233  15.267  0.2667  1.2342 -0.2367
 4358TIP3    H234566   2.604   1.221  15.416  0.8585 -0.1854 -0.4363
 4359TIP3   OH234567   1.611   0.999  15.759 -0.0273 -0.4835  0.0914
 4359TIP3    H134568   1.675   1.070  15.757 -0.2188 -0.3254 -0.9446
 4359TIP3    H234569   1.653   0.927  15.713  0.3969 -1.2554  1.6670
 4360TIP3   OH234570   5.880   6.565  10.929 -0.0771  0.0998  0.0423
 4360TIP3    H134571   5.903   6.640  10.874 -0.1011 -0.0247 -0.1367
 4360TIP3    H234572   5.964   6.520  10.944 -0.3634 -1.0353 -1.6101
 4361TIP3   OH234573   5.515   5.008  15.971 -0.0608 -0.0820  0.1746
 4361TIP3    H134574   5.479   4.921  15.957  1.3476 -0.9808  1.8874
 4361TIP3    H234575   5.593   5.011  15.916 -0.7136  0.5112 -0.7267
 4362TIP3   OH234576   2.831   5.115   0.421 -0.1813  0.3453 -0.2073
 4362TIP3    H134577   2.914   5.143   0.459  0.3671 -3.5522  1.6743
 4362TIP3    H234578   2.781   5.080   0.494 -2.8079  1.0554 -1.6014
 4363TIP3   OH234579   1.650   6.240   1.734 -0.4166 -0.2874 -0.0806
 4363TIP3    H134580   1.713   6.249   1.662 -0.8550  1.4273 -0.2753
 4363TIP3    H234581   1.574   6.291   1.706 -1.0064 -0.4775  1.1426
 4364TIP3   OH234582   0.943   2.257   3.028  0.1185  0.1050  0.0419
 4364TIP3    H134583   0.859   2.228   2.991 -0.9771  3.4878 -0.2504
 4364TIP3    H234584   0.941   2.228   3.119 -1.4115  0.2101  0.0541
 4365TIP3   OH234585   0.474   6.691  12.246  0.4936  0.3294  0.8463
 4365TIP3    H134586   0.460   6.604  12.210  1.7002  0.3691  0.2710
 4365TIP3    H234587   0.416   6.695  12.322 -0.4223 -0.5543  0.2113
 4366TIP3   OH234588   0.932   3.380   6.582  0.3039  0.0023 -0.2296
 4366TIP3    H134589   0.898   3.293   6.560  3.2702 -1.5071  0.9769
 4366TIP3    H234590   0.884   3.405   6.661  1.3783 -1.7689  1.0075
 4367TIP3   OH234591   0.241   4.894   4.925 -0.0487  0.1349 -0.0753
 4367TIP3    H134592   0.295   4.883   5.003  0.1881  1.2187 -0.0798
 4367TIP3    H234593   0.155   4.920   4.958 -0.6563 -1.7959 -0.0558
 4368TIP3   OH234594   1.792   0.836   1.361 -0.7682  0.3393 -0.4302
 4368TIP3    H134595   1.883   0.839   1.392 -0.3077  1.4149 -1.8273
 4368TIP3    H234596   1.756   0.922   1.384 -1.0139  0.4149 -1.0828
 4369TIP3   OH234597   2.325   0.161   2.286  0.0789 -0.1371 -0.1921
 4369TIP3    H134598   2.298   0.164   2.194  1.8981  3.8911 -0.6684
 4369TIP3    H234599   2.411   0.120   2.284  1.1686  2.1090 -0.6132
 4370TIP3   OH234600   6.736   5.087  11.870 -0.2046 -0.2694 -0.3988
 4370TIP3    H134601   6.748   5.137  11.951  1.5009 -1.3081  0.0194
 4370TIP3    H234602   6.681   5.013  11.895 -0.5662 -0.0160 -0.4385
 4371TIP3   OH234603   6.155   6.649  16.858 -0.5801  0.1380  0.0195
 4371TIP3    H134604   6.164   6.568  16.808 -0.0752  0.6432 -0.6946
 4371TIP3    H234605   6.175   6.719  16.796 -0.9651  0.8147  0.6539
 4372TIP3   OH234606   2.766   3.775  14.456  0.2637  0.3009 -0.4017
 4372TIP3    H134607   2.759   3.866  14.427  1.0886  0.2791 -0.7025
 4372TIP3    H234608   2.775   3.780  14.551 -1.5827  0.4220 -0.2183
 4373TIP3   OH234609   4.695   3.926   5.772  0.2721  0.1501 -0.2358
 4373TIP3    H134610   4.618   3.934   5.716  0.5150  1.6999 -0.3664
 4373TIP3    H234611   4.742   3.849   5.738 -0.0268  0.5743 -1.6013
 4374TIP3   OH234612   6.689   3.697  11.701 -0.1977 -0.4881 -0.1202
 4374TIP3    H134613   6.744   3.718  11.777 -0.7653  1.5672 -0.2637
 4374TIP3    H234614   6.714   3.761  11.635 -1.3736 -0.7974 -0.8733
 4375TIP3   OH234615   4.391   4.424  10.685  0.0010  0.0647  1.0147
 4375TIP3    H134616   4.394   4.516  10.659  4.3650  0.0743  1.2594
 4375TIP3    H234617   4.427   4.376  10.611  1.2191 -1.0731  2.3060
 4376TIP3   OH234618   2.558   1.850  13.223  0.5997  0.0854 -0.2641
 4376TIP3    H134619   2.589   1.925  13.274  1.3420 -0.3311 -0.0977
 4376TIP3    H234620   2.634   1.821  13.174  0.4225 -0.8013 -0.0271
 4377TIP3   OH234621   1.303   4.587   1.096  0.1541  0.6064  0.3076
 4377TIP3    H134622   1.395   4.559   1.089  0.6747  2.8900 -2.8807
 4377TIP3    H234623   1.309   4.680   1.119 -1.3736  0.8574 -0.3247
 4378TIP3   OH234624   6.141   0.045  14.896 -0.7614 -0.3023 -0.4628
 4378TIP3    H134625   6.117  -0.030  14.841  1.7764 -1.5302  0.0377
 4378TIP3    H234626   6.144   0.010  14.985  2.0187 -0.0390 -0.4174
 4379TIP3   OH234627   5.780   4.937  16.281  0.4493  0.2686 -0.5889
 4379TIP3    H134628   5.775   4.843  16.264  0.6966  0.0401  0.5452
 4379TIP3    H234629   5.799   4.944  16.375  0.9389  1.4392 -0.7575
 4380TIP3   OH234630   1.949   3.975   2.111 -0.0229 -0.1208 -0.1519
 4380TIP3    H134631   2.005   3.964   2.188  0.5417  1.8137 -0.2763
 4380TIP3    H234632   1.919   3.886   2.091  2.1036 -1.0291  0.5800
 4381TIP3   OH234633   5.009   5.755  15.102 -0.0340  0.6030  0.1816
 4381TIP3    H134634   5.046   5.716  15.022 -0.8979  0.8579 -0.3474
 4381TIP3    H234635   5.049   5.706  15.173  0.8669  0.4703 -0.4042
 4382TIP3   OH234636   0.252   5.411   4.554  0.1020  0.3757 -0.1417
 4382TIP3    H134637   0.229   5.319   4.568  1.8911 -0.0608  0.1028
 4382TIP3    H234638   0.211   5.458   4.626 -2.0256 -0.0260 -1.0612
 4383TIP3   OH234639   5.820   6.676   4.399 -0.4620  0.2772 -0.7231
 4383TIP3    H134640   5.771   6.651   4.477  0.7434 -1.4916 -0.4958
 4383TIP3    H234641   5.765   6.650   4.326 -0.9126  0.4945 -0.4625
 4384TIP3   OH234642   4.197   0.408  16.305 -0.0115 -0.4985 -0.1319
 4384TIP3    H134643   4.109   0.399  16.341  0.3219 -0.7255  0.6232
 4384TIP3    H234644   4.243   0.464  16.367  0.1249  0.3689 -0.9831
 4385TIP3   OH234645   2.280   1.164  14.685  0.4175 -0.1741  0.3419
 4385TIP3    H134646   2.249   1.093  14.741  1.8045 -0.0098  1.3541
 4385TIP3    H234647   2.236   1.242  14.718 -0.2657 -0.3907 -0.0607
 4386TIP3   OH234648   3.293   6.101   4.506  0.0269  0.2407  0.6384
 4386TIP3    H134649   3.293   6.062   4.419  2.4721 -0.4046  0.8722
 4386TIP3    H234650   3.201   6.101   4.533 -0.2783 -3.8083 -0.1076
 4387TIP3   OH234651   1.893   6.277   5.241 -0.0192  0.1809 -0.2614
 4387TIP3    H134652   1.879   6.292   5.335 -0.2662 -0.3086 -0.2158
 4387TIP3    H234653   1.978   6.233   5.237  0.1956  0.6001 -0.3035
 4388TIP3   OH234654   3.671   6.146  11.469  0.0953  0.2724 -0.8481
 4388TIP3    H134655   3.660   6.153  11.375  0.0975  3.2956 -0.6530
 4388TIP3    H234656   3.702   6.056  11.483 -0.2452 -0.3109 -3.6640
 4389TIP3   OH234657   2.607   0.705  13.799  0.4802 -0.5631  0.4799
 4389TIP3    H134658   2.585   0.727  13.889  1.0611 -1.5632  0.8733
 4389TIP3    H234659   2.566   0.774  13.746  1.6039  1.0123  1.6243
 4390TIP3   OH234660   0.841   1.057   1.357 -0.1205  0.1826 -0.0576
 4390TIP3    H134661   0.901   1.081   1.286 -0.8400  0.7317 -0.4826
 4390TIP3    H234662   0.874   1.105   1.432 -0.3481  0.9191 -0.4230
 4391TIP3   OH234663   0.101   0.134  16.002  0.0686 -0.5791  0.5448
 4391TIP3    H134664   0.160   0.101  16.069  0.6670 -1.6674 -0.4848
 4391TIP3    H234665   0.154   0.134  15.922 -0.8530 -0.0446 -0.0732
 4392TIP3   OH234666   4.032   4.533   1.283  0.2543 -0.3677 -0.1967
 4392TIP3    H134667   3.958   4.502   1.335 -0.5083  0.0241 -1.0358
 4392TIP3    H234668   4.002   4.528   1.193  0.9504  0.5853 -0.4959
 4393TIP3   OH234669   4.521   4.949   2.645  0.2715  0.1783  1.0087
 4393TIP3    H134670   4.482   4.871   2.684  0.5970  1.2036  3.4607
 4393TIP3    H234671   4.523   5.014   2.716  1.0147  2.0695 -0.6691
 4394TIP3   OH234672   5.904   6.484  16.022  0.2744  0.1423 -0.3599
 4394TIP3    H134673   5.850   6.412  15.990  0.3337  0.3701 -0.9780
 4394TIP3    H234674   5.916   6.466  16.115 -0.5532 -0.1096 -0.3029
 4395TIP3   OH234675   4.865   5.562  14.301 -0.8514 -0.1573 -0.2201
 4395TIP3    H134676   4.865   5.649  14.342  1.3295 -0.1981 -0.1021
 4395TIP3    H234677   4.952   5.526  14.320 -1.2073 -1.7621 -1.5449
 4396TIP3   OH234678   5.510   1.600   2.845  0.4349  0.2120  0.0646
 4396TIP3    H134679   5.505   1.505   2.858  2.9355  0.2283  1.5293
 4396TIP3    H234680   5.418   1.629   2.845 -0.3065 -1.9458  1.7162
 4397TIP3   OH234681   0.572   2.877   4.422  0.8281 -0.2897 -0.0046
 4397TIP3    H134682   0.613   2.809   4.476  1.0886 -0.5829 -0.5643
 4397TIP3    H234683   0.644   2.933   4.395  0.6590  0.0147  0.1820
 4398TIP3   OH234684   0.917   5.445  17.165 -0.2529  1.1806  0.7922
 4398TIP3    H134685   0.832   5.404  17.179  0.0095 -0.5573 -2.1166
 4398TIP3    H234686   0.969   5.418  17.240 -1.6160  0.3435  1.4635
 4399TIP3   OH234687   4.918   3.213   2.940 -0.3189 -0.3238 -0.7668
 4399TIP3    H134688   4.985   3.226   2.873 -0.0136 -1.4489 -0.6872
 4399TIP3    H234689   4.881   3.127   2.920  0.8017 -1.3204  1.4085
 4400TIP3   OH234690   6.121   0.216   4.008  0.1060 -0.1010  0.4304
 4400TIP3    H134691   6.208   0.198   4.045  0.6709 -0.8791 -1.2445
 4400TIP3    H234692   6.060   0.175   4.069  0.9541 -0.2391  1.2001
 4401TIP3   OH234693   1.245   3.380   4.886  0.5517 -0.6636 -0.3991
 4401TIP3    H134694   1.300   3.411   4.958  0.1926 -1.8927  0.4162
 4401TIP3    H234695   1.172   3.442   4.883  0.5869 -0.5872  0.2647
 4402TIP3   OH234696   5.095   2.632  13.537 -0.1286  0.2404 -0.2351
 4402TIP3    H134697   5.099   2.657  13.629 -1.0756 -0.3020 -0.0472
 4402TIP3    H234698   5.013   2.669  13.505 -0.8670 -1.4246 -0.3064
 4403TIP3   OH234699   2.164   5.218  15.926 -0.0337 -0.1529  0.2468
 4403TIP3    H134700   2.123   5.132  15.924 -0.8023  0.2106  0.1788
 4403TIP3    H234701   2.121   5.267  15.856  0.2487  0.3531  0.4228
 4404TIP3   OH234702   6.327   4.678   1.537 -0.0392 -0.1691 -0.3290
 4404TIP3    H134703   6.283   4.762   1.551 -1.3924 -1.0780  0.9909
 4404TIP3    H234704   6.277   4.637   1.466 -0.0035 -0.2712 -0.2953
 4405TIP3   OH234705   2.319   2.480   5.507 -0.7491 -0.0674  0.5274
 4405TIP3    H134706   2.406   2.493   5.469 -0.5919 -0.0567  0.8938
 4405TIP3    H234707   2.259   2.515   5.441 -0.4319  0.7514  0.6578
 4406TIP3   OH234708   2.468   1.280  14.221 -0.3504  0.2496  0.2481
 4406TIP3    H134709   2.377   1.269  14.192  0.1724  1.0314 -1.7684
 4406TIP3    H234710   2.512   1.320  14.147  1.4312  0.8260  1.5851
 4407TIP3   OH234711   0.358   0.752   2.613 -0.0694 -0.1054 -0.5235
 4407TIP3    H134712   0.309   0.772   2.693 -1.0781 -0.5813 -1.0126
 4407TIP3    H234713   0.445   0.788   2.629 -0.5974  0.8251  0.3337
 4408TIP3   OH234714   0.034   0.396   0.643  0.5446  0.2997 -0.4099
 4408TIP3    H134715   0.036   0.378   0.737 -0.8244  1.9677 -0.0423
 4408TIP3    H234716  -0.056   0.379   0.617  0.8567  0.0984 -1.3791
 4409TIP3   OH234717   6.227   4.708  13.776  0.2798 -0.4797  0.0991
 4409TIP3    H134718   6.180   4.629  13.751  2.8436 -1.7385 -0.9048
 4409TIP3    H234719   6.161   4.777  13.773 -1.7040 -2.3403 -0.2887
 4410TIP3   OH234720   6.668   5.048  13.618  0.0129 -0.1451  0.1980
 4410TIP3    H134721   6.585   5.090  13.642 -0.0514 -0.3299  0.3002
 4410TIP3    H234722   6.661   5.034  13.523 -0.4126 -0.9024  0.3397
 4411TIP3   OH234723   4.718   5.749  14.091 -0.1148 -0.0528 -0.3635
 4411TIP3    H134724   4.726   5.654  14.081 -0.3991 -0.3544  1.9256
 4411TIP3    H234725   4.801   5.775  14.133 -0.4577  0.5492 -0.0523
 4412TIP3   OH234726   4.086   2.647   3.148  0.2385 -0.5145  0.3646
 4412TIP3    H134727   4.111   2.696   3.226  1.4722 -1.3499  0.4913
 4412TIP3    H234728   4.163   2.596   3.125 -0.7108 -1.6735 -0.3341
 4413TIP3   OH234729   0.352   2.954   3.728  0.2929  0.0093  0.2570
 4413TIP3    H134730   0.421   2.942   3.794 -0.5907  0.0657  1.2037
 4413TIP3    H234731   0.363   2.881   3.668  0.2556 -0.8018  1.2296
 4414TIP3   OH234732   0.442   2.846  14.708  0.4010 -0.2484  0.2141
 4414TIP3    H134733   0.536   2.830  14.701  0.3830 -0.0631 -0.4546
 4414TIP3    H234734   0.423   2.832  14.801  1.2030  0.3077  0.4771
 4415TIP3   OH234735   1.749   2.393  11.916 -0.1834 -0.0645  0.3209
 4415TIP3    H134736   1.791   2.464  11.868 -0.6718  1.8161  2.5902
 4415TIP3    H234737   1.669   2.375  11.867  0.9629 -0.5432 -1.4508
 4416TIP3   OH234738   5.186   3.973  10.816  0.2209  0.4853 -0.0816
 4416TIP3    H134739   5.091   3.974  10.809  0.1924 -0.6062  0.1313
 4416TIP3    H234740   5.216   3.964  10.725  0.1006 -0.2384 -0.0502
 4417TIP3   OH234741   4.932   5.215  11.632 -0.3688 -0.4388  0.2831
 4417TIP3    H134742   4.902   5.124  11.636  0.1568 -0.5655  1.6250
 4417TIP3    H234743   4.968   5.232  11.719  1.1289  0.5062 -0.4993
 4418TIP3   OH234744   3.672   5.654   6.751 -0.1904  0.3268 -0.2678
 4418TIP3    H134745   3.743   5.661   6.688 -1.9459  1.5962 -2.1707
 4418TIP3    H234746   3.615   5.586   6.716 -1.1668  1.0131 -0.0298
 4419TIP3   OH234747   1.904   2.325   1.662 -0.7813 -0.4962 -0.3138
 4419TIP3    H134748   1.963   2.251   1.675 -1.0659 -0.5705  0.5335
 4419TIP3    H234749   1.817   2.286   1.656 -0.9292 -0.2267  0.1112
 4420TIP3   OH234750   6.794   5.593   0.098  0.2907  0.0504  0.0488
 4420TIP3    H134751   6.734   5.640   0.156  0.6334  2.1346 -1.2046
 4420TIP3    H234752   6.869   5.652   0.089  0.3451 -0.3220 -2.2735
 4421TIP3   OH234753   6.669   2.768   6.275 -0.4629  0.5847  0.1437
 4421TIP3    H134754   6.738   2.710   6.306 -0.1910  0.6380 -0.3778
 4421TIP3    H234755   6.656   2.830   6.347 -1.2043 -0.5078  0.9748
 4422TIP3   OH234756   6.673   1.711   4.568 -0.2376 -0.3741  0.1137
 4422TIP3    H134757   6.649   1.785   4.512 -1.0008  0.0535  0.9771
 4422TIP3    H234758   6.594   1.657   4.572 -0.3030 -0.2314  1.0157
 4423TIP3   OH234759   5.958   2.635  16.282 -0.3669  0.3331 -0.3549
 4423TIP3    H134760   6.023   2.678  16.227  0.0964 -1.3123 -1.1305
 4423TIP3    H234761   5.907   2.581  16.221 -0.3211 -0.9391  0.7024
 4424TIP3   OH234762   3.195   4.329  15.321  0.1455 -0.5635 -0.8247
 4424TIP3    H134763   3.191   4.249  15.374 -1.5602 -0.5949 -0.9678
 4424TIP3    H234764   3.171   4.399  15.382  0.2174 -0.3360 -1.0572
 4425TIP3   OH234765   1.378   5.163  13.688  0.5520 -0.2628 -0.9149
 4425TIP3    H134766   1.283   5.158  13.681  0.5758  0.5270 -1.8916
 4425TIP3    H234767   1.399   5.253  13.662  1.4522 -0.0384  0.5571
 4426TIP3   OH234768   1.797   6.623   2.154  0.6841  0.1003 -0.2467
 4426TIP3    H134769   1.792   6.554   2.089  0.6908 -0.1354  0.0028
 4426TIP3    H234770   1.884   6.615   2.192  0.6993  0.2701 -0.2431
 4427TIP3   OH234771   6.689   4.246   1.364  0.4321 -0.3317 -0.3357
 4427TIP3    H134772   6.761   4.307   1.377 -0.4597  0.5225  0.7377
 4427TIP3    H234773   6.611   4.297   1.384 -0.5016 -1.1688 -1.7405
 4428TIP3   OH234774   2.239   2.720   2.147  0.3641  0.0943  0.6012
 4428TIP3    H134775   2.177   2.663   2.193  0.3768 -1.9403 -1.7751
 4428TIP3    H234776   2.315   2.663   2.131  1.7424  1.7709  1.1009
 4429TIP3   OH234777   1.825   0.581  14.623 -0.0261 -0.3833  0.3446
 4429TIP3    H134778   1.827   0.593  14.718  1.8918 -1.2291  0.4276
 4429TIP3    H234779   1.732   0.583  14.601 -0.4417  0.8135  2.1044
 4430TIP3   OH234780   3.971   2.029  10.750 -0.1578  0.2083  0.4657
 4430TIP3    H134781   3.885   2.068  10.731  1.5368  2.9645 -2.0791
 4430TIP3    H234782   3.982   1.962  10.682 -0.3319 -0.2421  0.8781
 4431TIP3   OH234783   3.668   4.322  12.239 -0.2677  0.4402  0.2560
 4431TIP3    H134784   3.650   4.305  12.331 -0.8707  0.2480  0.1060
 4431TIP3    H234785   3.740   4.263  12.217 -1.9878 -1.5374 -0.1210
 4432TIP3   OH234786   5.752   1.520  13.872  0.3853  0.0442 -0.0641
 4432TIP3    H134787   5.784   1.610  13.877 -1.1923  0.5896  0.2702
 4432TIP3    H234788   5.832   1.466  13.878  1.4095  1.4125 -1.1336
 4433TIP3   OH234789   1.694   4.340   1.271 -0.3465  0.1509  0.1056
 4433TIP3    H134790   1.775   4.347   1.221  0.2796  1.3183  1.2623
 4433TIP3    H234791   1.636   4.287   1.216  2.4479 -3.9178  0.8814
 4434TIP3   OH234792   0.815   3.344  13.833 -0.1139  0.0078  0.1870
 4434TIP3    H134793   0.756   3.355  13.759  0.4489  0.7681 -0.1540
 4434TIP3    H234794   0.836   3.433  13.861  2.1837 -0.1911 -0.7589
 4435TIP3   OH234795   4.569   4.645  14.673  0.4198  0.6292  0.3777
 4435TIP3    H134796   4.640   4.709  14.676  1.3871 -0.4415  1.2851
 4435TIP3    H234797   4.614   4.562  14.655 -0.7183  0.0799  0.0455
 4436TIP3   OH234798   0.294   0.801   6.242  0.3360 -0.6473 -0.1291
 4436TIP3    H134799   0.335   0.867   6.297  1.5042 -0.6388 -0.9983
 4436TIP3    H234800   0.272   0.730   6.302  0.7953 -0.2742  0.4868
 4437TIP3   OH234801   2.249   1.447  16.653 -0.7060 -0.5003 -0.1532
 4437TIP3    H134802   2.168   1.491  16.678 -0.9296  0.3681 -2.3403
 4437TIP3    H234803   2.228   1.401  16.572  0.6493 -1.3013 -0.0756
 4438TIP3   OH234804   6.642   0.322   5.543 -0.1990 -1.0156 -0.1615
 4438TIP3    H134805   6.737   0.311   5.555 -0.3905 -3.0984 -0.3463
 4438TIP3    H234806   6.618   0.394   5.602  1.5760 -0.0858 -0.5305
 4439TIP3   OH234807   3.444   5.251  12.610  0.1072  0.4142  0.1247
 4439TIP3    H134808   3.438   5.236  12.516  0.0657  0.0828  0.1811
 4439TIP3    H234809   3.372   5.310  12.631 -2.2075 -2.4943  0.5927
 4440TIP3   OH234810   2.557   0.719  13.504  0.6307  0.7622  0.6995
 4440TIP3    H134811   2.475   0.713  13.456  2.2423  2.0250 -2.3973
 4440TIP3    H234812   2.544   0.791  13.565 -0.4806  1.1510  0.0152
 4441TIP3   OH234813   3.813   1.664   5.178 -0.2644  0.3237 -0.0546
 4441TIP3    H134814   3.862   1.700   5.251 -0.1037 -0.3248  0.1530
 4441TIP3    H234815   3.873   1.603   5.135 -0.4436  0.5049 -0.5735
 4442TIP3   OH234816   5.045   1.979   6.120 -0.8405 -0.8497 -0.3897
 4442TIP3    H134817   5.042   2.019   6.207  2.2894  0.0825 -0.6257
 4442TIP3    H234818   5.035   2.053   6.060  1.0664 -0.8802 -0.7992
 4443TIP3   OH234819   6.406   1.438  14.336  0.3329  0.0142 -0.1686
 4443TIP3    H134820   6.499   1.418  14.348  0.2574 -0.1907  0.0638
 4443TIP3    H234821   6.361   1.379  14.396  0.0350 -0.1130 -0.5192
 4444TIP3   OH234822   5.711   5.892   3.439 -0.2693  0.0814 -0.2244
 4444TIP3    H134823   5.714   5.864   3.530  0.0087  1.2595  0.1407
 4444TIP3    H234824   5.690   5.813   3.390 -1.6880 -0.3204  0.9775
 4445TIP3   OH234825   5.748   6.566  13.215 -0.3214  0.6561  0.0594
 4445TIP3    H134826   5.736   6.497  13.149  0.2722 -0.0373  0.6623
 4445TIP3    H234827   5.660   6.600  13.230 -0.8734 -1.0449  0.8828
 4446TIP3   OH234828   3.711   0.150  16.864 -0.5567 -0.0786 -0.5503
 4446TIP3    H134829   3.735   0.069  16.818 -2.3320 -1.1104  0.3095
 4446TIP3    H234830   3.687   0.122  16.952 -0.9923  1.4144 -0.1836
 4447TIP3   OH234831   6.291   5.202   4.962  0.5522  0.5460 -0.4633
 4447TIP3    H134832   6.367   5.229   5.013  0.2192  0.4014  0.1168
 4447TIP3    H234833   6.230   5.165   5.026  0.2612  0.0613 -1.0058
 4448TIP3   OH234834   5.481   0.950   1.998  0.0019  0.3492 -0.8441
 4448TIP3    H134835   5.388   0.971   2.010  0.2098  0.9630 -0.2893
 4448TIP3    H234836   5.491   0.943   1.903 -0.5587  0.5433 -0.9203
 4449TIP3   OH234837   0.842   2.854  13.535 -0.0074 -0.1093 -0.0401
 4449TIP3    H134838   0.774   2.877  13.599  1.2183 -0.2933  1.3401
 4449TIP3    H234839   0.804   2.782  13.485 -0.4657 -0.8299  1.3301
 4450TIP3   OH234840   6.505   6.077   5.535  0.3546  0.5549  0.2619
 4450TIP3    H134841   6.489   6.042   5.448  0.9653 -1.0809  0.7857
 4450TIP3    H234842   6.534   6.167   5.520  0.0766  0.4129 -1.1963
 4451TIP3   OH234843   1.413   4.288   4.682  0.0381 -0.8457  0.1912
 4451TIP3    H134844   1.412   4.308   4.775  2.0512 -0.4869  0.1507
 4451TIP3    H234845   1.363   4.207   4.674 -1.9755  0.2405  1.2826
 4452TIP3   OH234846   6.203   0.421   4.883  0.5748 -0.6693  0.5037
 4452TIP3    H134847   6.249   0.488   4.932 -0.2902 -1.7256  2.8038
 4452TIP3    H234848   6.259   0.404   4.807 -0.0385  3.8666 -1.0809
 4453TIP3   OH234849   6.738   0.554  16.348  0.1238  0.5425  0.0040
 4453TIP3    H134850   6.772   0.636  16.310 -0.0918 -0.4985 -2.5080
 4453TIP3    H234851   6.680   0.518  16.281  0.7913 -2.0519  0.7505
 4454TIP3   OH234852   1.385   4.622   6.215 -0.5358  0.4586 -0.3491
 4454TIP3    H134853   1.322   4.619   6.287 -1.3211 -0.6890 -1.0702
 4454TIP3    H234854   1.444   4.548   6.232  0.2162  1.1089 -0.0616
 4455TIP3   OH234855   0.179   4.330   1.735 -0.3040  0.3730 -0.4825
 4455TIP3    H134856   0.226   4.389   1.794 -0.0338 -0.6499  0.3438
 4455TIP3    H234857   0.100   4.306   1.783  0.2701 -1.0432 -0.1959
 4456TIP3   OH234858   0.547   6.638  14.582  0.0037  0.6226 -0.3758
 4456TIP3    H134859   0.511   6.572  14.641 -1.8948 -0.1885 -2.3709
 4456TIP3    H234860   0.567   6.713  14.638 -1.8353 -0.0880  1.2617
 4457TIP3   OH234861   6.772   1.583   4.260 -0.3590  1.1537  0.0893
 4457TIP3    H134862   6.812   1.524   4.196 -1.5185  1.4751 -0.9469
 4457TIP3    H234863   6.738   1.525   4.328  0.7126  0.7970  0.3144
 4458TIP3   OH234864   3.800   5.170   0.786  0.7135 -0.2011  0.0044
 4458TIP3    H134865   3.835   5.172   0.875 -0.2275 -1.3534  0.4118
 4458TIP3    H234866   3.826   5.085   0.751 -1.5936 -1.0874  0.3177
 4459TIP3   OH234867   1.877   2.630  15.874  0.3717 -0.4969  0.0446
 4459TIP3    H134868   1.788   2.653  15.901  2.3126  1.4499  5.4206
 4459TIP3    H234869   1.904   2.703  15.818 -0.4009  0.4162  0.8387
 4460TIP3   OH234870   4.162   0.219  12.103  0.5900 -0.3646 -0.1471
 4460TIP3    H134871   4.174   0.246  12.194 -1.0995  2.0530 -0.6183
 4460TIP3    H234872   4.101   0.145  12.108 -1.8672  1.6553  0.4909
 4461TIP3   OH234873   4.667   2.208   5.842  0.0463 -0.5882  0.6204
 4461TIP3    H134874   4.743   2.164   5.879  0.3917 -0.8212 -0.3472
 4461TIP3    H234875   4.597   2.194   5.906  0.1998 -2.3542  0.4274
 4462TIP3   OH234876   3.594   5.242   3.988 -0.2335 -0.4394 -0.4846
 4462TIP3    H134877   3.531   5.302   3.947 -1.9384 -1.5293  0.4584
 4462TIP3    H234878   3.611   5.176   3.922  1.1012  0.6751 -1.2754
 4463TIP3   OH234879   5.175   4.678   1.218 -0.2535  0.1493  0.0600
 4463TIP3    H134880   5.266   4.655   1.201  0.0805  2.0542 -0.8136
 4463TIP3    H234881   5.147   4.618   1.287  1.7076 -0.3303  0.4446
 4464TIP3   OH234882   0.810   2.153   0.759  0.2144  0.0752  0.3349
 4464TIP3    H134883   0.743   2.107   0.810  0.6616 -0.4421  0.4630
 4464TIP3    H234884   0.816   2.104   0.677 -1.2546  1.5298 -0.6684
 4465TIP3   OH234885   3.014   5.600   1.481 -0.5411 -0.3978 -0.6052
 4465TIP3    H134886   2.981   5.582   1.393 -0.2038 -0.4424 -0.7268
 4465TIP3    H234887   2.969   5.539   1.538  0.1368 -1.2030 -0.9251
 4466TIP3   OH234888   6.654   3.142   3.360  0.7644  0.7994  0.1218
 4466TIP3    H134889   6.620   3.146   3.449  1.1142  2.0324  0.2087
 4466TIP3    H234890   6.749   3.151   3.370  0.9116 -0.2414 -0.2944
 4467TIP3   OH234891   6.042   6.256  14.194  0.1682  0.0812 -0.1721
 4467TIP3    H134892   6.078   6.168  14.189  0.0959  0.0370  0.0990
 4467TIP3    H234893   5.947   6.243  14.187  0.2274  0.2299 -1.3351
 4468TIP3   OH234894   4.167   3.180   6.134 -0.0760 -0.2133 -0.5572
 4468TIP3    H134895   4.152   3.128   6.055  1.2478  0.1866 -1.0795
 4468TIP3    H234896   4.259   3.167   6.154 -0.6207 -1.1201  1.5224
 4469TIP3   OH234897   6.367   1.188   5.860 -0.1843  0.4872  0.0596
 4469TIP3    H134898   6.387   1.253   5.928 -0.2297  1.7270 -1.0935
 4469TIP3    H234899   6.361   1.105   5.908  0.2017  1.2688  1.5112
 4470TIP3   OH234900   6.126   2.738  14.079  0.1322 -0.0195  0.5987
 4470TIP3    H134901   6.156   2.677  14.147 -0.4224  1.4608  2.2329
 4470TIP3    H234902   6.206   2.772  14.040  0.5851  1.2898  2.5424
 4471TIP3   OH234903   0.166   2.305  11.317  0.3576 -0.0442  0.3005
 4471TIP3    H134904   0.181   2.211  11.314 -0.8714 -0.2315 -0.4423
 4471TIP3    H234905   0.131   2.326  11.230 -1.2963  0.7596  1.1511
 4472TIP3   OH234906   2.474   4.378   5.154  0.0083 -0.5717 -0.6653
 4472TIP3    H134907   2.552   4.406   5.105 -0.0669  0.0136 -0.4464
 4472TIP3    H234908   2.455   4.291   5.119  0.6397 -0.6341 -0.8688
 4473TIP3   OH234909   4.503   4.268   6.062  0.8565 -0.1941 -0.4089
 4473TIP3    H134910   4.581   4.261   6.116 -0.1264 -2.8138  0.7718
 4473TIP3    H234911   4.462   4.350   6.088  2.3646  0.3950  0.1201
 4474TIP3   OH234912   6.364   1.997   4.187 -1.2637 -0.1431 -0.0147
 4474TIP3    H134913   6.431   2.029   4.248 -1.3924 -0.0022  0.0548
 4474TIP3    H234914   6.282   2.010   4.234 -1.2894 -0.9039  0.1446
 4475TIP3   OH234915   3.577   4.012   1.393 -0.0817 -0.3307  0.4534
 4475TIP3    H134916   3.507   4.077   1.396 -0.7429 -1.0420  0.6250
 4475TIP3    H234917   3.569   3.963   1.475  0.0906 -0.9510  0.1103
 4476TIP3   OH234918   4.386   1.975   4.768  0.5011  0.6443  0.6054
 4476TIP3    H134919   4.336   1.936   4.840 -0.5429 -0.0900 -0.4818
 4476TIP3    H234920   4.468   1.926   4.767  0.5381  0.6843  1.3158
 4477TIP3   OH234921   3.057   6.036   1.035  0.3398 -0.6726  0.5319
 4477TIP3    H134922   2.993   6.022   0.965 -0.5891 -0.9460  1.4229
 4477TIP3    H234923   3.134   6.071   0.990 -1.0217  1.2999 -0.3595
 4478TIP3   OH234924   1.287   6.457   6.123 -0.1538 -1.1423  0.3582
 4478TIP3    H134925   1.206   6.506   6.139  0.7133 -0.3524  2.5464
 4478TIP3    H234926   1.325   6.445   6.210  3.2182  0.5003 -0.7804
 4479TIP3   OH234927   0.873   6.028  11.336  0.2355 -0.1643  0.5921
 4479TIP3    H134928   0.891   6.004  11.245 -0.1641  0.4002  0.3568
 4479TIP3    H234929   0.910   6.116  11.346 -3.4964  1.6142 -0.3138
 4480TIP3   OH234930   3.888   1.978  13.908 -0.1230 -0.7212  0.0016
 4480TIP3    H134931   3.920   1.958  13.820  0.3810 -1.0818  0.2611
 4480TIP3    H234932   3.850   1.895  13.939 -1.6289 -0.2151 -0.4273
 4481TIP3   OH234933   5.524   1.521  11.510 -0.2393  0.5412  0.1944
 4481TIP3    H134934   5.559   1.484  11.591 -0.7923 -0.0551  0.1604
 4481TIP3    H234935   5.463   1.455  11.477 -0.7431  1.1944 -0.2035
 4482TIP3   OH234936   2.286   1.394  14.456  0.5732 -0.4909  0.0296
 4482TIP3    H134937   2.223   1.322  14.467 -0.3921  0.4829  1.0249
 4482TIP3    H234938   2.246   1.451  14.390  1.1270 -0.6493 -0.4380
 4483TIP3   OH234939   1.317   6.535  12.498  0.7769  0.6884  0.0834
 4483TIP3    H134940   1.251   6.487  12.448 -0.2681  0.4056  1.7144
 4483TIP3    H234941   1.331   6.482  12.577  2.0177  1.3921  0.3528
 4484TIP3   OH234942   0.319   0.290   0.252 -0.1175  0.6189  0.4327
 4484TIP3    H134943   0.333   0.356   0.320 -0.1219  1.5636 -0.4565
 4484TIP3    H234944   0.277   0.339   0.181 -1.2741 -0.6220  0.2483
 4485TIP3   OH234945   3.146   4.808   5.973  0.3888 -0.4777  0.1882
 4485TIP3    H134946   3.133   4.717   6.002  0.7892 -0.1469  1.4310
 4485TIP3    H234947   3.230   4.833   6.012  0.3832  0.3505 -0.3416
 4486TIP3   OH234948   2.048   4.035  14.247 -0.0060 -0.0141 -0.3917
 4486TIP3    H134949   2.004   4.032  14.332 -1.1318 -1.3587 -0.9970
 4486TIP3    H234950   2.139   4.014  14.265 -0.5732 -1.9682  0.2834
 4487TIP3   OH234951   4.323   3.902  14.894  0.6743 -0.7602 -0.3000
 4487TIP3    H134952   4.262   3.934  14.961  2.9936 -1.3176  2.1816
 4487TIP3    H234953   4.275   3.831  14.850 -0.9903 -0.2220  0.6079
 4488TIP3   OH234954   5.652   2.392   1.358  0.2044 -0.4194  0.2577
 4488TIP3    H134955   5.599   2.422   1.433  1.3491 -1.3884  1.4832
 4488TIP3    H234956   5.723   2.455   1.351  1.7376 -1.9101  1.8576
 4489TIP3   OH234957   1.449   0.731   3.130  0.2187 -0.7830  0.3862
 4489TIP3    H134958   1.426   0.664   3.194 -0.6113  0.0277  0.9550
 4489TIP3    H234959   1.411   0.811   3.165 -1.3126 -0.5430 -1.7039
 4490TIP3   OH234960   2.598   2.712   2.465 -0.0621 -0.3559 -0.5245
 4490TIP3    H134961   2.581   2.800   2.431 -1.2203 -0.3771 -0.0510
 4490TIP3    H234962   2.512   2.669   2.463  0.1625 -0.9026  0.8618
 4491TIP3   OH234963   0.799   6.608  11.733 -0.0160  0.3979 -0.5999
 4491TIP3    H134964   0.879   6.652  11.764  0.1093 -0.8669  0.9348
 4491TIP3    H234965   0.817   6.586  11.642  1.6042 -0.3193 -0.1252
 4492TIP3   OH234966   2.509   4.835  13.311 -0.2309  0.4552  0.1205
 4492TIP3    H134967   2.546   4.770  13.251 -2.0672  0.4743 -1.0565
 4492TIP3    H234968   2.471   4.782  13.382  0.2438  0.3494  0.2973
 4493TIP3   OH234969   6.717   6.586  17.257 -0.2818 -0.0852 -0.8949
 4493TIP3    H134970   6.782   6.554  17.195 -1.3966 -0.3352 -1.9675
 4493TIP3    H234971   6.633   6.567  17.215 -1.0413  0.4656  0.3414
 4494TIP3   OH234972   6.729   4.010   1.931 -0.0700 -0.0620  0.4762
 4494TIP3    H134973   6.665   3.947   1.898  0.3442 -0.8136  1.0771
 4494TIP3    H234974   6.728   3.997   2.026  1.1398 -0.2581  0.4780
 4495TIP3   OH234975   2.137   6.631   6.467  0.4273  0.1318 -0.2752
 4495TIP3    H134976   2.047   6.604   6.485  1.0854 -2.3334 -0.5118
 4495TIP3    H234977   2.160   6.686   6.541 -1.0077  0.1500  0.1860
 4496TIP3   OH234978   2.839   6.522  17.030 -0.3650 -0.2743  0.0312
 4496TIP3    H134979   2.845   6.536  16.936  0.6281  0.7421  0.2381
 4496TIP3    H234980   2.828   6.427  17.040 -1.6041 -0.2729 -1.1464
 4497TIP3   OH234981   5.508   3.293  12.662 -0.1829  0.1534  0.5221
 4497TIP3    H134982   5.536   3.335  12.581 -2.5028  1.8923  0.5797
 4497TIP3    H234983   5.563   3.215  12.669  1.8019  1.3389 -1.3896
 4498TIP3   OH234984   6.480   0.309  13.089 -0.0977  0.0138  0.1914
 4498TIP3    H134985   6.542   0.382  13.087 -0.1053 -0.0041 -1.9696
 4498TIP3    H234986   6.536   0.232  13.100  0.6498 -0.2705 -4.3448
 4499TIP3   OH234987   0.207   3.293  14.941 -0.3381 -0.2809 -0.1373
 4499TIP3    H134988   0.115   3.310  14.920 -0.5251 -0.4044  0.5520
 4499TIP3    H234989   0.252   3.375  14.919 -0.6153 -0.2098 -0.4503
 4500TIP3   OH234990   2.707   2.800  12.264  0.3035 -0.2602  0.1455
 4500TIP3    H134991   2.656   2.817  12.343 -0.0673 -1.4243  0.1688
 4500TIP3    H234992   2.649   2.749  12.208  0.4758  0.7682 -0.9966
 4501TIP3   OH234993   6.343   1.112   2.864  0.0472  0.0150  0.6066
 4501TIP3    H134994   6.335   1.093   2.770 -0.4684 -0.2348  0.7012
 4501TIP3    H234995   6.289   1.190   2.877 -0.1429 -0.1418  0.7575
 4502TIP3   OH234996   6.196   1.912   2.138 -0.2236 -0.0150 -0.1573
 4502TIP3    H134997   6.272   1.897   2.195 -1.1340 -1.7873  0.6186
 4502TIP3    H234998   6.179   2.006   2.145  0.9347  0.1298  0.8982
 4503TIP3   OH234999   1.963   4.744  16.366 -0.0466  0.6289 -0.3550
 4503TIP3    H135000   1.929   4.676  16.308 -0.6095 -0.0678  0.7759
 4503TIP3    H235001   2.051   4.762  16.332 -0.3289  0.1634 -1.3621
 4504TIP3   OH235002   3.065   3.621   3.344  0.2420 -0.2220  0.6461
 4504TIP3    H135003   2.991   3.585   3.295  0.8921 -0.2210 -0.3474
 4504TIP3    H235004   3.115   3.670   3.279  1.5669 -0.9159  1.1168
 4505TIP3   OH235005   1.277   3.978  13.323  0.7359 -0.1017  0.3605
 4505TIP3    H135006   1.369   4.003  13.335 -0.0816  3.6462 -0.3451
 4505TIP3    H235007   1.233   4.061  13.301 -2.9250 -1.7092  1.3344
 4506TIP3   OH235008   3.583   6.229  11.773  0.2882 -0.8241  0.1142
 4506TIP3    H135009   3.529   6.170  11.826  1.7764 -1.6262  0.7753
 4506TIP3    H235010   3.671   6.191  11.776  0.6394 -0.2559 -2.0212
 4507TIP3   OH235011   2.100   1.326   4.906  0.3194 -1.0954  0.1483
 4507TIP3    H135012   2.027   1.294   4.959 -0.3717 -0.6897 -0.5278
 4507TIP3    H235013   2.134   1.401   4.955  2.9397 -3.7103  2.5014
 4508TIP3   OH235014   2.697   2.408   0.643 -0.0534  0.2096 -0.0952
 4508TIP3    H135015   2.682   2.501   0.629 -0.4863  0.0615 -0.6378
 4508TIP3    H235016   2.653   2.388   0.726  0.7117  0.6446  0.4246
 4509TIP3   OH235017   4.852   5.856   1.561  0.0153  0.2661  0.1518
 4509TIP3    H135018   4.807   5.938   1.582 -0.4603  0.1305 -0.3366
 4509TIP3    H235019   4.802   5.789   1.608  0.1089  0.1964  0.1527
 4510TIP3   OH235020   5.187   6.582  13.999  0.2155 -0.0490  0.1557
 4510TIP3    H135021   5.229   6.535  14.071 -2.2651 -0.3884  1.4195
 4510TIP3    H235022   5.174   6.671  14.033 -0.5984 -0.0988 -0.0150
 4511TIP3   OH235023   5.263   5.422   2.640 -0.4186  1.6581  0.5253
 4511TIP3    H135024   5.172   5.428   2.610 -0.4780  0.2390  0.4050
 4511TIP3    H235025   5.258   5.371   2.721  0.3166  1.2249  0.3023
 4512TIP3   OH235026   3.993   4.413   4.346 -0.2855 -0.0358  0.5707
 4512TIP3    H135027   3.953   4.326   4.353  1.0013 -0.6582  0.3706
 4512TIP3    H235028   4.071   4.399   4.293  1.7231  0.6395  3.2439
 4513TIP3   OH235029   3.907   3.732  12.062 -0.0328 -0.4222 -0.0067
 4513TIP3    H135030   3.862   3.648  12.068  2.9900 -2.1568 -0.6149
 4513TIP3    H235031   3.960   3.737  12.142  1.0314  0.1455 -0.7355
 4514TIP3   OH235032   1.466   5.473   5.501 -0.0353 -0.4630  0.3653
 4514TIP3    H135033   1.503   5.559   5.523 -2.0820  0.6160 -0.2745
 4514TIP3    H235034   1.454   5.430   5.586 -0.8603  0.7021  0.8623
 4515TIP3   OH235035   0.131   4.915   6.442  0.2175  0.6158  0.3857
 4515TIP3    H135036   0.048   4.895   6.399 -0.1894  2.1270  0.4356
 4515TIP3    H235037   0.183   4.958   6.374 -0.1543  2.3336  1.1382
 4516TIP3   OH235038   0.639   2.103   4.942  0.6176  0.2822  0.1114
 4516TIP3    H135039   0.591   2.183   4.959  2.0109  1.0322  0.6017
 4516TIP3    H235040   0.730   2.124   4.965  1.1731 -1.1095 -0.7361
 4517TIP3   OH235041   4.094   0.056  12.480  0.0837  0.3708  0.5213
 4517TIP3    H135042   4.145   0.084  12.556  0.0250 -1.9458  1.4428
 4517TIP3    H235043   4.148   0.081  12.405  0.4818  2.0143  1.3304
 4518TIP3   OH235044   5.485   6.398   4.695  0.2325  0.2337  0.2603
 4518TIP3    H135045   5.418   6.357   4.639  1.0191 -1.0020  0.2043
 4518TIP3    H235046   5.566   6.391   4.644  0.5682  0.9583  0.6875
 4519TIP3   OH235047   0.726   0.681  16.726 -0.9036  0.2655  0.0799
 4519TIP3    H135048   0.635   0.656  16.707 -0.4092 -1.8138  0.3311
 4519TIP3    H235049   0.722   0.723  16.812 -1.6151  0.0981  0.1351
 4520TIP3   OH235050   0.853   1.196  17.087  0.2856 -0.5856  0.0179
 4520TIP3    H135051   0.791   1.265  17.112 -0.8540 -1.1324 -1.2565
 4520TIP3    H235052   0.816   1.157  17.009  1.9861 -1.2935 -0.4662
 4521TIP3   OH235053   5.924   4.168  16.893  0.3875  0.2796  0.7206
 4521TIP3    H135054   5.890   4.207  16.813  0.8550 -0.1683  0.3022
 4521TIP3    H235055   5.869   4.205  16.963 -0.6698 -0.1103  0.1038
 4522TIP3   OH235056   6.220   4.020   3.502 -0.1749  0.5832  0.0626
 4522TIP3    H135057   6.229   3.988   3.412  2.1068 -0.0813  0.4880
 4522TIP3    H235058   6.281   3.966   3.552 -0.7667  1.5578  1.8570
 4523TIP3   OH235059   1.397   1.499  16.782  0.2536  0.1094 -0.2516
 4523TIP3    H135060   1.440   1.539  16.858 -0.7014  2.7865 -1.0756
 4523TIP3    H235061   1.376   1.410  16.811 -0.1868  1.1108  2.6872
 4524TIP3   OH235062   0.109   5.857  11.901  0.0826 -0.2314  0.2492
 4524TIP3    H135063   0.159   5.938  11.890  2.4172 -1.5040  1.2817
 4524TIP3    H235064   0.164   5.789  11.862  0.5427 -2.1113  3.9382
 4525TIP3   OH235065   5.876   5.031  11.846 -0.4190 -0.0383 -0.2918
 4525TIP3    H135066   5.858   5.068  11.760 -1.1416 -0.8620 -0.5030
 4525TIP3    H235067   5.963   4.992  11.838 -0.5425 -0.2339 -0.6927
 4526TIP3   OH235068   4.634   0.350  13.345 -0.1618 -0.1941 -0.2856
 4526TIP3    H135069   4.576   0.297  13.290  0.5960 -1.8867  0.5103
 4526TIP3    H235070   4.644   0.299  13.425  1.6533  0.5151 -0.0400
 4527TIP3   OH235071   4.806   1.952   2.580  0.0109  0.2092  0.3234
 4527TIP3    H135072   4.870   2.021   2.589 -0.8897  0.9658  1.0283
 4527TIP3    H235073   4.808   1.905   2.663 -0.0392 -0.0454  0.1844
 4528TIP3   OH235074   2.071   1.963  14.259  0.0856 -0.0037 -0.2096
 4528TIP3    H135075   2.062   1.966  14.164  1.5732  0.2007 -0.3537
 4528TIP3    H235076   2.165   1.974  14.275 -0.4482  2.5020  1.3863
 4529TIP3   OH235077   6.536   1.376  13.127  0.0326 -0.1310 -0.3095
 4529TIP3    H135078   6.604   1.376  13.059  0.0408 -2.2354 -0.3389
 4529TIP3    H235079   6.453   1.372  13.078  0.0500 -1.9951 -0.2178
 4530TIP3   OH235080   5.670   1.296   0.498 -0.3053 -0.6830  0.0408
 4530TIP3    H135081   5.710   1.382   0.515  0.9827 -1.8265  3.2796
 4530TIP3    H235082   5.744   1.236   0.495 -1.3280 -1.9372 -0.3554
 4531TIP3   OH235083   2.931   6.517   2.945 -0.4938  0.4437  0.0647
 4531TIP3    H135084   2.965   6.475   3.025 -0.4438  0.5025  0.0736
 4531TIP3    H235085   2.848   6.556   2.972 -0.9806 -0.4264 -0.1583
 4532TIP3   OH235086   0.257   2.626   1.757 -0.1741  0.2228  0.4151
 4532TIP3    H135087   0.281   2.632   1.850 -0.0320 -0.4909  0.4266
 4532TIP3    H235088   0.323   2.678   1.712  2.0796 -2.6048  0.3353
 4533TIP3   OH235089   4.045   3.060  12.426 -0.2249  0.2400 -0.0391
 4533TIP3    H135090   3.993   3.030  12.501 -0.9450  1.0635 -0.1948
 4533TIP3    H235091   4.132   3.024  12.441 -0.8370 -1.1362  0.2441
 4534TIP3   OH235092   0.212   6.079  12.113  0.1422 -0.2244 -1.0021
 4534TIP3    H135093   0.279   6.070  12.181  0.0907  2.3973 -0.5471
 4534TIP3    H235094   0.253   6.042  12.035  0.5821 -2.3382  0.1867
 4535TIP3   OH235095   0.787   3.951  14.806 -0.2708 -0.2094  0.9724
 4535TIP3    H135096   0.867   3.974  14.757 -0.5401 -0.5271  0.3833
 4535TIP3    H235097   0.770   4.028  14.860  1.4401 -0.8372  2.4308
 4536TIP3   OH235098   4.302   5.879  13.265 -0.2128 -0.0492  0.0699
 4536TIP3    H135099   4.269   5.967  13.284 -1.2518 -0.1855 -1.0572
 4536TIP3    H235100   4.397   5.890  13.257 -0.1907  0.7183  1.3134
 4537TIP3   OH235101   5.084   1.049   3.737 -0.2393  0.3359  0.5540
 4537TIP3    H135102   5.056   1.101   3.661  2.7178 -0.2617 -1.0138
 4537TIP3    H235103   5.071   0.958   3.709 -0.3531  0.1296  1.2715
 4538TIP3   OH235104   6.114   4.552   6.895  0.5117 -0.0229  0.1430
 4538TIP3    H135105   6.049   4.587   6.956  0.3986 -0.6505  0.3861
 4538TIP3    H235106   6.178   4.623   6.886  0.3853  0.1783  0.7740
 4539TIP3   OH235107   1.759   0.365  11.232 -0.4480  0.1187 -0.2297
 4539TIP3    H135108   1.827   0.318  11.184  0.2216  1.6835 -0.8474
 4539TIP3    H235109   1.789   0.365  11.322  0.9779  1.8436 -0.6938
 4540TIP3   OH235110   4.024   2.536   4.789  0.4260  0.2076  0.3069
 4540TIP3    H135111   4.119   2.530   4.799  0.3785 -1.3701 -0.0324
 4540TIP3    H235112   4.007   2.496   4.703 -0.3061  2.6886 -0.7466
 4541TIP3   OH235113   5.264   3.795   6.201 -0.3902  0.6869 -0.3947
 4541TIP3    H135114   5.194   3.766   6.143 -1.0233  2.9856 -0.7890
 4541TIP3    H235115   5.326   3.840   6.144  0.2890  0.6568  0.3053
 4542TIP3   OH235116   1.809   4.684  13.330  0.0064  0.1310 -0.6122
 4542TIP3    H135117   1.785   4.745  13.261  0.1514 -1.8146 -2.4093
 4542TIP3    H235118   1.762   4.603  13.309  0.4694 -0.6658  1.2617
 4543TIP3   OH235119   2.298   6.541  16.901 -0.4800  0.0234 -0.2862
 4543TIP3    H135120   2.245   6.518  16.824 -0.8568  2.5569 -0.8467
 4543TIP3    H235121   2.381   6.573  16.864  0.1076 -0.6144  0.4552
 4544TIP3   OH235122   4.736   4.834  12.913 -0.2143 -0.5933 -0.0140
 4544TIP3    H135123   4.827   4.840  12.885  0.0202 -0.8230  0.6859
 4544TIP3    H235124   4.713   4.742  12.903 -0.2135 -0.6262  0.2834
 4545TIP3   OH235125   0.301   4.588  10.764 -0.0109  0.0613  0.4744
 4545TIP3    H135126   0.243   4.655  10.800 -2.8552 -1.2956 -1.4134
 4545TIP3    H235127   0.297   4.516  10.827 -0.5220 -0.0821  0.2835
 4546TIP3   OH235128   1.620   0.754  13.729  0.2948 -0.1223  0.4288
 4546TIP3    H135129   1.639   0.738  13.821 -0.7825  1.0137  0.8635
 4546TIP3    H235130   1.644   0.846  13.716 -2.3702  0.6041  0.3409
 4547TIP3   OH235131   3.016   2.043  14.516  0.1512  0.2843  0.1982
 4547TIP3    H135132   2.923   2.067  14.518  0.2622  0.9619 -1.6038
 4547TIP3    H235133   3.049   2.071  14.601 -1.1969  0.4463  0.6888
 4548TIP3   OH235134   0.006   0.148   2.848  0.4197  0.3268 -0.0892
 4548TIP3    H135135   0.046   0.199   2.777 -0.9038  1.6126  0.0664
 4548TIP3    H235136   0.079   0.099   2.886  1.2953  0.2734 -1.7902
 4549TIP3   OH235137   3.551   4.924   4.578 -0.3948  0.1040 -0.0333
 4549TIP3    H135138   3.633   4.882   4.604 -1.5550 -1.0085  1.9585
 4549TIP3    H235139   3.499   4.853   4.540 -0.5124  0.7750 -1.1603
 4550TIP3   OH235140   0.592   5.097  16.225 -0.1227  0.1642  0.0083
 4550TIP3    H135141   0.569   5.004  16.230  1.4306 -0.1969  0.6297
 4550TIP3    H235142   0.512   5.143  16.252 -1.3323 -0.9309 -1.6507
 4551TIP3   OH235143   0.230   1.867  13.253 -0.4177 -0.6579  0.4313
 4551TIP3    H135144   0.306   1.865  13.195 -0.3484  3.2472  0.2562
 4551TIP3    H235145   0.155   1.862  13.195 -0.3243 -0.4513  0.2925
 4552TIP3   OH235146   3.125   3.805  13.881 -0.5139  0.0181 -0.0469
 4552TIP3    H135147   3.091   3.729  13.928 -0.1881 -0.7864 -1.0821
 4552TIP3    H235148   3.162   3.862  13.949 -0.9841 -0.6327  0.7543
 4553TIP3   OH235149   0.461   0.966   1.821  0.0805  0.2897 -0.2635
 4553TIP3    H135150   0.508   0.884   1.837 -2.2344 -1.3309 -1.3831
 4553TIP3    H235151   0.452   0.970   1.726 -0.9700  1.2054 -0.1346
 4554TIP3   OH235152   3.748   2.713  13.809 -0.2060  0.1417 -0.0008
 4554TIP3    H135153   3.763   2.750  13.896 -1.6545  0.4413  0.1433
 4554TIP3    H235154   3.653   2.714  13.800 -0.1701 -1.8619 -0.7421
 4555TIP3   OH235155   3.549   2.785   5.229 -0.3202  0.1687  0.0220
 4555TIP3    H135156   3.457   2.763   5.243 -0.6756  1.4133 -0.3960
 4555TIP3    H235157   3.549   2.876   5.201  0.9633 -0.1266 -0.9903
 4556TIP3   OH235158   1.687   6.759  15.822  0.2894  0.0550 -0.1694
 4556TIP3    H135159   1.731   6.713  15.893 -0.0075 -0.3553 -0.2447
 4556TIP3    H235160   1.595   6.763  15.850  0.3519  0.8010 -0.0623
 4557TIP3   OH235161   1.307   3.451  11.280 -0.0783 -0.1595  0.0613
 4557TIP3    H135162   1.302   3.360  11.308 -1.5260  0.2840  1.3346
 4557TIP3    H235163   1.265   3.452  11.194 -0.0309 -0.6944  0.0317
 4558TIP3   OH235164   0.319   3.025  16.043 -0.1384 -0.1107 -0.2803
 4558TIP3    H135165   0.369   2.997  16.119 -0.4611  0.6800  0.2345
 4558TIP3    H235166   0.286   3.112  16.067  1.1580  0.8825 -1.9781
 4559TIP3   OH235167   5.683   2.782   2.197 -0.2329 -0.5817  0.0265
 4559TIP3    H135168   5.594   2.748   2.190  0.1518 -2.0592  1.9123
 4559TIP3    H235169   5.692   2.807   2.289  1.6630 -1.5796  0.1365
 4560TIP3   OH235170   6.367   6.572   1.558  0.0891 -0.2594 -0.3337
 4560TIP3    H135171   6.378   6.666   1.569  0.7612 -0.2845 -0.7459
 4560TIP3    H235172   6.285   6.564   1.510  1.2506  0.2696 -2.5050
 4561TIP3   OH235173   5.453   2.513   2.392  0.0232  0.1366  0.4058
 4561TIP3    H135174   5.482   2.426   2.367  0.5811  0.2648  0.5997
 4561TIP3    H235175   5.503   2.533   2.472  0.4913  0.9502 -0.0813
 4562TIP3   OH235176   4.608   4.398  14.922  0.0429  0.0686 -0.0077
 4562TIP3    H135177   4.521   4.373  14.953 -0.3498 -1.6512 -2.3638
 4562TIP3    H235178   4.592   4.439  14.837  1.4976 -0.0668 -0.3619
 4563TIP3   OH235179   2.231   3.875   5.491  0.2717 -0.3064  0.3900
 4563TIP3    H135180   2.218   3.790   5.534  1.6226 -0.3322  0.7742
 4563TIP3    H235181   2.320   3.900   5.515  0.5876  0.2952 -1.3389
 4564TIP3   OH235182   6.543   3.144   2.470  0.1030 -0.3395 -0.1844
 4564TIP3    H135183   6.589   3.133   2.553 -0.3481  0.4297  0.1676
 4564TIP3    H235184   6.487   3.066   2.463 -0.3173 -0.1076  0.5290
 4565TIP3   OH235185   0.677   0.849  14.262  0.2342  0.2657 -0.4871
 4565TIP3    H135186   0.633   0.794  14.328  1.8352  0.0228  0.4148
 4565TIP3    H235187   0.683   0.793  14.185  0.4615 -0.2811 -0.0746
 4566TIP3   OH235188   1.341   0.464  14.071  0.5497  0.0151  0.5274
 4566TIP3    H135189   1.434   0.468  14.090  0.1617  0.7191  2.4572
 4566TIP3    H235190   1.309   0.553  14.085 -0.3005 -0.0646 -0.7702
 4567TIP3   OH235191   4.788   5.635  11.290 -0.0980 -0.5525  0.0843
 4567TIP3    H135192   4.843   5.570  11.247  1.0930  0.3692  0.2038
 4567TIP3    H235193   4.710   5.641  11.235  0.8570 -0.3097 -1.2577
 4568TIP3   OH235194   6.803   2.347  16.625 -0.0953  0.3670 -0.4272
 4568TIP3    H135195   6.897   2.326  16.627 -0.5054 -1.5711 -0.4632
 4568TIP3    H235196   6.797   2.435  16.663  1.7985  0.7698 -0.9926
 4569TIP3   OH235197   2.351   2.671   2.595  0.6678  0.1222  0.0598
 4569TIP3    H135198   2.340   2.761   2.564 -1.3472 -0.3872 -0.7671
 4569TIP3    H235199   2.264   2.646   2.627  1.1790 -1.5721  0.1564
 4570TIP3   OH235200   5.070   2.210  15.805  0.4165  0.3064  0.2231
 4570TIP3    H135201   5.073   2.240  15.714  1.3499  0.1427  0.2015
 4570TIP3    H235202   5.161   2.212  15.835  0.0036  1.3007  1.4639
 4571TIP3   OH235203   6.029   0.019  11.842 -0.9312 -0.1599  0.7190
 4571TIP3    H135204   5.954   0.076  11.824 -0.0712  0.7994  0.1438
 4571TIP3    H235205   6.001  -0.067  11.810 -0.4083  0.9454 -2.9745
 4572TIP3   OH235206   3.632   3.457   4.704 -0.3314 -0.0771 -0.5639
 4572TIP3    H135207   3.568   3.495   4.764 -1.3328 -0.8611 -1.1089
 4572TIP3    H235208   3.685   3.531   4.675 -1.6267  0.7600 -0.8541
 4573TIP3   OH235209   4.645   6.657   0.001 -0.2513  0.1071  0.3842
 4573TIP3    H135210   4.610   6.710  -0.070  0.6513 -0.4649 -0.5028
 4573TIP3    H235211   4.738   6.682   0.006  0.5374 -2.3817 -0.9896
 4574TIP3   OH235212   1.552   1.345  13.994 -0.1371  0.2441  0.1978
 4574TIP3    H135213   1.472   1.398  13.993 -1.4121 -1.6139  0.8724
 4574TIP3    H235214   1.622   1.407  14.009 -1.5892  1.7498  0.8875
 4575TIP3   OH235215   1.489   6.506   4.093 -0.7721 -0.1017 -0.3392
 4575TIP3    H135216   1.534   6.590   4.103  1.0316 -1.3444  2.5090
 4575TIP3    H235217   1.547   6.453   4.039 -1.0559 -0.1382 -0.6111
 4576TIP3   OH235218   4.410   2.553  13.168 -0.4311  0.6092 -0.2723
 4576TIP3    H135219   4.329   2.512  13.137 -0.5869  0.7127  0.0014
 4576TIP3    H235220   4.441   2.604  13.093 -1.9791  2.6616  0.4392
 4577TIP3   OH235221   1.785   4.759  12.461  0.4228  0.1150 -0.4664
 4577TIP3    H135222   1.866   4.708  12.464 -0.4648 -1.2485  0.8658
 4577TIP3    H235223   1.715   4.694  12.457 -0.7358  1.1934  1.2108
 4578TIP3   OH235224   4.805   5.369  16.632 -0.7085 -0.2886  0.6158
 4578TIP3    H135225   4.772   5.292  16.677 -1.0759 -1.5441 -1.7185
 4578TIP3    H235226   4.798   5.348  16.539  0.6845  1.9315 -0.0517
 4579TIP3   OH235227   3.647   1.766   4.091 -0.1965  0.1509 -0.0425
 4579TIP3    H135228   3.730   1.768   4.043  0.2064  0.0579  0.6409
 4579TIP3    H235229   3.667   1.809   4.174 -1.1581  1.2613 -0.3761
 4580TIP3   OH235230   0.512   3.934  13.382  0.0719  0.7648 -0.0768
 4580TIP3    H135231   0.551   4.008  13.337 -1.1841  1.8238  0.5310
 4580TIP3    H235232   0.518   3.862  13.319 -0.3626  1.8580 -1.4135
 4581TIP3   OH235233   2.119   4.934  15.645 -0.5948 -0.1794  0.0014
 4581TIP3    H135234   2.055   4.927  15.574  1.0472 -2.1929 -1.3120
 4581TIP3    H235235   2.202   4.907  15.606  0.3458 -1.3613  2.7086
 4582TIP3   OH235236   3.943   1.294  16.027 -0.1809  0.0795  0.1385
 4582TIP3    H135237   3.933   1.375  16.078  0.3687  0.8650 -0.9764
 4582TIP3    H235238   4.032   1.299  15.992 -0.5882 -0.4144 -0.9702
 4583TIP3   OH235239   2.677   3.198   4.361  0.0371 -0.7665 -0.4649
 4583TIP3    H135240   2.769   3.218   4.344 -0.1847  1.4162  0.7731
 4583TIP3    H235241   2.632   3.222   4.280  0.0995  1.6551  0.1761
 4584TIP3   OH235242   1.059   2.079  12.908 -0.0281  0.3160  0.1777
 4584TIP3    H135243   1.145   2.047  12.880 -1.0495 -1.2275 -1.2728
 4584TIP3    H235244   1.063   2.174  12.893  1.0372  0.1087 -0.9513
 4585TIP3   OH235245   3.422   2.650  11.209  0.0759 -0.3124 -0.8261
 4585TIP3    H135246   3.366   2.728  11.204  1.3863  0.5485 -3.0714
 4585TIP3    H235247   3.477   2.666  11.286  1.1674  1.6123 -1.9580
 4586TIP3   OH235248   1.822   0.419  13.693  0.0729 -0.1568 -0.6905
 4586TIP3    H135249   1.871   0.480  13.639  1.3057  0.4978  1.1364
 4586TIP3    H235250   1.850   0.332  13.662 -0.9298  0.1632 -2.6003
 4587TIP3   OH235251   5.415   2.885  15.705  0.1050 -0.2574  0.0408
 4587TIP3    H135252   5.344   2.827  15.735  0.1863  0.9931  2.8711
 4587TIP3    H235253   5.376   2.972  15.705  1.2879  0.2823  0.4322
 4588TIP3   OH235254   2.758   3.011   2.240  0.2874  0.1268 -0.6209
 4588TIP3    H135255   2.692   3.005   2.309  2.1851 -2.2717  1.0823
 4588TIP3    H235256   2.807   3.091   2.261  0.2883 -0.1124  0.3293
 4589TIP3   OH235257   1.298   4.834   1.202 -0.1209  0.2123  0.3196
 4589TIP3    H135258   1.334   4.853   1.288  0.1451  1.0967  0.0211
 4589TIP3    H235259   1.221   4.891   1.195  0.4296  0.8709 -0.4188
 4590TIP3   OH235260   2.330   3.878   4.530  0.4441  0.6115  0.6805
 4590TIP3    H135261   2.234   3.872   4.531  0.2421  2.9638 -0.5598
 4590TIP3    H235262   2.353   3.910   4.618  0.3035 -2.0671  1.7347
 4591TIP3   OH235263   2.946   1.573  13.414 -0.3564 -0.1757 -0.0010
 4591TIP3    H135264   2.870   1.553  13.470 -1.2572  2.2537 -0.3209
 4591TIP3    H235265   3.000   1.631  13.468  0.6345 -0.8156 -0.2933
 4592TIP3   OH235266   3.486   1.800   2.662  0.0867  0.1706  0.5683
 4592TIP3    H135267   3.534   1.727   2.700  0.7893  0.9341  1.1567
 4592TIP3    H235268   3.399   1.764   2.644  1.2695 -1.6379 -1.8425
 4593TIP3   OH235269   6.116   0.239  14.016 -0.5791  0.6005  0.2226
 4593TIP3    H135270   6.190   0.299  14.015  0.9921 -1.2582 -3.3898
 4593TIP3    H235271   6.079   0.244  13.928 -1.6797 -2.1130  0.4785
 4594TIP3   OH235272   3.621   6.177   5.234 -0.0726 -0.0436 -0.1357
 4594TIP3    H135273   3.624   6.187   5.329  0.5961  0.9113 -0.2396
 4594TIP3    H235274   3.539   6.219   5.207  0.3965  0.9043 -0.1035
 4595TIP3   OH235275   2.662   2.686   4.286 -0.2448  0.1445  0.2754
 4595TIP3    H135276   2.592   2.659   4.226 -0.4539 -0.8179  0.9292
 4595TIP3    H235277   2.735   2.710   4.229 -0.2234 -1.3610 -0.3534
 4596TIP3   OH235278   2.401   1.169  15.902 -1.0968 -0.2926  0.0763
 4596TIP3    H135279   2.342   1.241  15.881 -1.4328 -0.1042  1.6398
 4596TIP3    H235280   2.425   1.183  15.993 -0.6549 -1.8018  0.2047
 4597TIP3   OH235281   4.223   2.769   2.162 -0.1308 -0.8192 -0.0887
 4597TIP3    H135282   4.274   2.717   2.224  0.8306  1.6777  1.2664
 4597TIP3    H235283   4.132   2.751   2.186  0.1990 -1.3522  0.8068
 4598TIP3   OH235284   3.651   3.077  14.002  0.0906  0.8316  0.2264
 4598TIP3    H135285   3.633   3.123  13.920  0.0969 -0.6599 -0.6336
 4598TIP3    H235286   3.595   3.121  14.066 -2.0342  0.2619 -1.1517
 4599TIP3   OH235287   0.820   6.028   2.529 -0.1112 -0.3614 -0.0124
 4599TIP3    H135288   0.816   5.967   2.456  1.7516 -0.6725  0.1353
 4599TIP3    H235289   0.837   6.113   2.488 -0.7722 -0.2483 -0.0617
 4600TIP3   OH235290   0.604   3.411  17.258 -0.5552  0.4835 -0.3352
 4600TIP3    H135291   0.528   3.431  17.312 -0.3626  0.8625 -0.1996
 4600TIP3    H235292   0.657   3.352  17.312 -0.9481 -0.0975 -0.5894
 4601TIP3   OH235293   5.902   4.515  15.569 -0.0541 -0.5946  0.2137
 4601TIP3    H135294   5.921   4.609  15.571 -2.7333  0.0542 -1.4881
 4601TIP3    H235295   5.978   4.476  15.526  0.6687  0.9212  0.0879
 4602TIP3   OH235296   6.552   0.028  12.834  0.1394 -0.3280 -0.5509
 4602TIP3    H135297   6.470   0.073  12.857  0.7338  0.0063  0.9805
 4602TIP3    H235298   6.557   0.035  12.739 -1.8029 -0.6745 -0.7023
 4603TIP3   OH235299   4.294   1.551  12.939  0.2383  0.3022  0.3404
 4603TIP3    H135300   4.212   1.520  12.978  0.6147 -1.8427 -0.4922
 4603TIP3    H235301   4.268   1.627  12.886 -1.1989 -0.2373  0.2372
 4604TIP3   OH235302   2.264   5.619  13.284  0.5205 -0.5604 -0.1496
 4604TIP3    H135303   2.294   5.627  13.193  0.7436  0.0184 -0.0237
 4604TIP3    H235304   2.339   5.647  13.336  0.1131 -0.0947  0.1895
 4605TIP3   OH235305   1.343   3.652   2.265 -0.2511 -0.1126  0.2043
 4605TIP3    H135306   1.279   3.582   2.250  0.1483 -0.6478  0.9721
 4605TIP3    H235307   1.390   3.625   2.343  0.6131  0.5070 -0.0935
 4606TIP3   OH235308   3.279   3.559   6.537 -0.6028 -0.3157  0.4363
 4606TIP3    H135309   3.345   3.563   6.607 -0.4021  0.6858  0.1902
 4606TIP3    H235310   3.207   3.510   6.576  0.5349 -1.9902  0.5081
 4607TIP3   OH235311   0.143   4.232   4.696 -0.0170 -0.4408  0.2803
 4607TIP3    H135312   0.235   4.218   4.676  0.0362 -1.8788  1.3970
 4607TIP3    H235313   0.143   4.299   4.764  0.4159 -2.4200  2.2960
 4608TIP3   OH235314   5.787   1.900  11.197  1.1514  0.2534  0.0712
 4608TIP3    H135315   5.839   1.856  11.130  0.1690 -3.0103  1.3236
 4608TIP3    H235316   5.697   1.895  11.165  0.7469 -0.8115  1.3230
 4609TIP3   OH235317   3.127   2.456   3.565 -0.0517  0.2866 -0.6040
 4609TIP3    H135318   3.158   2.379   3.517  0.7236  0.2048  0.0003
 4609TIP3    H235319   3.114   2.424   3.655 -1.0063  0.5516 -0.6443
 4610TIP3   OH235320   0.959   2.110  15.844  0.0097 -0.3520  0.4876
 4610TIP3    H135321   0.943   2.137  15.754 -1.1175 -1.6299  0.2917
 4610TIP3    H235322   0.882   2.138  15.893  0.0559 -0.7690  0.8087
 4611TIP3   OH235323   2.432   6.207  16.590  0.1156  0.5710  0.0940
 4611TIP3    H135324   2.377   6.280  16.618 -0.5612 -0.0026  0.2504
 4611TIP3    H235325   2.521   6.234  16.614 -0.3104  0.6394  1.6512
 4612TIP3   OH235326   6.612   2.487   3.927 -0.4144 -0.1709 -0.5569
 4612TIP3    H135327   6.596   2.567   3.976 -0.6783 -0.2313 -0.5423
 4612TIP3    H235328   6.697   2.500   3.886 -0.5301  0.1827 -0.6839
 4613TIP3   OH235329   0.558   1.389  15.423 -0.3483 -0.0341  0.1419
 4613TIP3    H135330   0.499   1.349  15.488 -0.1286  1.9903  1.6405
 4613TIP3    H235331   0.541   1.483  15.430 -0.2568  0.2254 -2.7223
 4614TIP3   OH235332   1.242   6.771   1.325  0.7241 -0.2388 -0.1151
 4614TIP3    H135333   1.321   6.746   1.277  1.4102 -1.0383  1.4013
 4614TIP3    H235334   1.260   6.860   1.356  0.9263 -0.3132 -0.0111
 4615TIP3   OH235335   4.834   6.778  12.841  0.1624  0.5125  0.2216
 4615TIP3    H135336   4.837   6.754  12.748  1.1812 -0.4134  0.4752
 4615TIP3    H235337   4.746   6.754  12.869  0.3349 -0.5888 -0.1526
 4616TIP3   OH235338   6.262   2.487  12.906  0.0971 -0.2873  0.3495
 4616TIP3    H135339   6.267   2.416  12.843 -0.1971 -1.5970  1.7774
 4616TIP3    H235340   6.239   2.564  12.853 -1.2630 -1.5720 -0.9969
 4617TIP3   OH235341   6.709   0.870  12.740 -0.0469  0.3958 -0.0021
 4617TIP3    H135342   6.800   0.877  12.712 -0.4869  2.9001 -0.9025
 4617TIP3    H235343   6.659   0.898  12.664 -1.5900 -0.6527  0.5977
 4618TIP3   OH235344   4.473   3.803  14.231 -0.4344  0.7142 -0.2883
 4618TIP3    H135345   4.532   3.853  14.175  0.1740  2.0381  1.4891
 4618TIP3    H235346   4.521   3.722  14.249  1.6310  2.4522  2.4587
 4619TIP3   OH235347   5.923   2.943   5.268  0.4088 -0.4186 -0.5375
 4619TIP3    H135348   5.830   2.928   5.285  0.3772 -0.2896 -0.5906
 4619TIP3    H235349   5.942   3.026   5.312  0.0657  0.4742 -1.9911
 4620TIP3   OH235350   3.746   2.843  14.036 -0.5957  0.1763  0.2433
 4620TIP3    H135351   3.708   2.928  14.017 -1.3238 -0.1744  0.1097
 4620TIP3    H235352   3.804   2.858  14.111  0.5047  1.0982 -0.7913
 4621TIP3   OH235353   2.037   2.030  13.985 -0.2426 -0.2978  0.0332
 4621TIP3    H135354   2.114   2.084  13.969 -0.4884  0.1909  0.4828
 4621TIP3    H235355   1.980   2.047  13.910 -0.2851 -0.0051  0.1356
 4622TIP3   OH235356   4.428   4.836  13.543 -0.3838  0.4557 -0.2199
 4622TIP3    H135357   4.401   4.827  13.452  1.7383  0.9122 -0.9373
 4622TIP3    H235358   4.493   4.907  13.541 -1.1328  1.2309  1.8292
 4623TIP3   OH235359   2.864   4.124   0.112 -0.1663  0.2785  0.4086
 4623TIP3    H135360   2.818   4.100   0.192  0.2995  0.7165  0.8090
 4623TIP3    H235361   2.873   4.219   0.117  0.7877  0.1886  0.3258
 4624TIP3   OH235362   3.278   2.561   1.579 -0.3779 -0.4948  0.4697
 4624TIP3    H135363   3.264   2.655   1.578 -1.7199 -0.6566  2.3674
 4624TIP3    H235364   3.345   2.546   1.512  0.3116  1.8628  0.6034
 4625TIP3   OH235365   0.711   4.345  16.869  0.5249  0.2031 -0.4637
 4625TIP3    H135366   0.644   4.413  16.868  1.6527  1.3496  0.8591
 4625TIP3    H235367   0.717   4.317  16.960  0.8490 -0.8878 -0.8114
 4626TIP3   OH235368   2.493   2.066  16.324 -0.3456  0.9237 -0.4319
 4626TIP3    H135369   2.485   2.004  16.252 -0.1047 -1.0319  1.1966
 4626TIP3    H235370   2.419   2.126  16.312  0.1869  1.1575 -2.7785
 4627TIP3   OH235371   0.990   4.715  12.510  0.2211  0.2733 -0.1276
 4627TIP3    H135372   1.039   4.754  12.582  0.0781  1.7182 -0.8010
 4627TIP3    H235373   0.946   4.788  12.468 -1.4724 -0.8399 -0.3483
 4628TIP3   OH235374   2.053   0.998  13.187  0.6141  0.4937  0.5155
 4628TIP3    H135375   2.126   0.972  13.131 -0.6420 -0.4416 -0.7270
 4628TIP3    H235376   2.042   0.925  13.248 -1.5872 -1.0069 -1.6381
 4629TIP3   OH235377   1.108   2.572  15.134  0.0637  0.5672  0.0398
 4629TIP3    H135378   1.123   2.527  15.218 -1.1022 -0.1935 -0.1497
 4629TIP3    H235379   1.145   2.512  15.069 -0.9274  0.1590 -0.1599
 4630TIP3   OH235380   1.490   0.988   0.583 -0.3735  0.0655 -0.0872
 4630TIP3    H135381   1.428   0.954   0.519  0.4333 -1.6492  0.0367
 4630TIP3    H235382   1.548   1.045   0.531 -0.1055 -0.8241 -0.7772
 4631TIP3   OH235383   2.930   1.264   5.363  0.0996 -0.1179  0.2145
 4631TIP3    H135384   2.927   1.258   5.458  1.3454 -1.0010  0.1931
 4631TIP3    H235385   2.956   1.355   5.345 -0.7392  0.2207  0.7009
 4632TIP3   OH235386   4.231   2.570   0.486  0.0891  0.3727 -0.1257
 4632TIP3    H135387   4.136   2.559   0.487 -0.0275  1.3100 -0.7017
 4632TIP3    H235388   4.263   2.509   0.552 -0.9577  0.4703  0.4713
 4633TIP3   OH235389   0.794   4.760   4.778 -0.1776  0.2950 -0.5388
 4633TIP3    H135390   0.845   4.836   4.805  1.5352 -0.7843 -0.6802
 4633TIP3    H235391   0.787   4.768   4.683 -3.4883  2.4042 -0.1859
 4634TIP3   OH235392   5.448   2.744  11.567 -0.2038 -0.1726 -0.3421
 4634TIP3    H135393   5.458   2.811  11.500  1.6937  1.7887  1.8452
 4634TIP3    H235394   5.399   2.786  11.637  0.1266 -1.3763  0.6419
 4635TIP3   OH235395   2.586   3.835  15.974 -0.4214 -0.1103  0.0789
 4635TIP3    H135396   2.530   3.787  16.035 -1.3828 -0.5288 -1.1097
 4635TIP3    H235397   2.552   3.812  15.888 -0.5674  2.3474 -0.5320
 4636TIP3   OH235398   1.612   5.107  12.274  0.5110  0.2075  0.4170
 4636TIP3    H135399   1.537   5.160  12.300 -0.4968 -1.4110  0.9255
 4636TIP3    H235400   1.607   5.104  12.179 -0.3830 -0.2833  0.4654
 4637TIP3   OH235401   2.371   4.150   4.998 -0.5601 -0.0465 -0.4456
 4637TIP3    H135402   2.360   4.061   4.966  1.5330 -1.0991  1.5637
 4637TIP3    H235403   2.399   4.201   4.922  0.9249 -1.7249 -1.0504
 4638TIP3   OH235404   4.521   1.520   0.798 -0.1731 -0.0902  0.4402
 4638TIP3    H135405   4.435   1.501   0.761  0.2415 -2.1501  0.4481
 4638TIP3    H235406   4.532   1.455   0.868  2.3424 -1.4095 -1.1108
 4639TIP3   OH235407   3.569   2.877  12.185 -0.2391  0.5163  0.2509
 4639TIP3    H135408   3.659   2.877  12.218 -0.6543 -0.2095  1.4224
 4639TIP3    H235409   3.538   2.966  12.202  0.0478  0.5816  0.4493
 4640TIP3   OH235410   5.297   3.353   0.129  0.6931 -0.3957 -0.1259
 4640TIP3    H135411   5.230   3.422   0.133  1.2497  0.1808 -0.5544
 4640TIP3    H235412   5.274   3.302   0.051  1.0139  0.0831 -0.5384
 4641TIP3   OH235413   5.634   0.331   3.541 -0.2494  0.0045 -0.4260
 4641TIP3    H135414   5.675   0.293   3.463  0.1528  0.0559 -0.2431
 4641TIP3    H235415   5.630   0.425   3.522 -0.9513 -0.0902 -0.7470
 4642TIP3   OH235416   0.149   2.270   0.813  0.4803  0.2986  0.1227
 4642TIP3    H135417   0.152   2.270   0.909 -0.8341  1.5350  0.1756
 4642TIP3    H235418   0.071   2.219   0.792  0.5711  0.3305 -0.2962
 4643TIP3   OH235419   3.136   1.514   5.979  0.0180  0.5151 -0.5496
 4643TIP3    H135420   3.123   1.608   5.971 -1.0209  0.4389  0.1833
 4643TIP3    H235421   3.109   1.493   6.068 -1.8348 -0.8076 -1.3927
 4644TIP3   OH235422   3.844   3.601  15.260 -0.4452  0.1251 -1.0927
 4644TIP3    H135423   3.877   3.633  15.177  1.1691  0.5238 -0.3151
 4644TIP3    H235424   3.913   3.543  15.293 -1.0151  0.0563  0.0198
 4645TIP3   OH235425   5.674   6.421  12.968 -0.9536 -0.2030  0.1944
 4645TIP3    H135426   5.723   6.362  12.911  1.0029  0.7600  0.8439
 4645TIP3    H235427   5.657   6.498  12.915  1.7364  1.1096  1.1614
 4646TIP3   OH235428   0.633   6.167  12.774  0.3641 -0.7010 -0.4269
 4646TIP3    H135429   0.668   6.237  12.828  0.0779 -0.7941 -0.1215
 4646TIP3    H235430   0.540   6.165  12.795  0.4792 -1.5887  0.0303
 4647TIP3   OH235431   0.845   3.129   2.353 -0.1897 -0.1020 -0.3833
 4647TIP3    H135432   0.921   3.094   2.400  0.9123  0.2171 -1.8827
 4647TIP3    H235433   0.794   3.174   2.420  1.1903  0.0767  0.5673
 4648TIP3   OH235434   0.292   5.367   4.227  0.1465  0.3295 -0.0268
 4648TIP3    H135435   0.258   5.398   4.311 -0.5756 -0.2563 -0.1006
 4648TIP3    H235436   0.220   5.316   4.189  1.0321 -0.7581 -0.2698
 4649TIP3   OH235437   1.157   2.209   3.874  0.3829  0.2934  0.8137
 4649TIP3    H135438   1.239   2.197   3.922  0.2657 -0.8257  0.7538
 4649TIP3    H235439   1.098   2.252   3.937  1.2550  1.8193  0.6002
 4650TIP3   OH235440   5.950   2.984   4.989 -0.1068 -0.3414 -0.0189
 4650TIP3    H135441   5.978   2.959   5.077 -0.6025 -1.0697 -0.0619
 4650TIP3    H235442   5.867   3.029   5.002 -0.5398 -1.0917 -0.1746
 4651TIP3   OH235443   6.540   1.331  16.299 -0.0361  0.2523  0.3214
 4651TIP3    H135444   6.502   1.406  16.254  1.6740  1.1990  0.4227
 4651TIP3    H235445   6.634   1.345  16.295  0.2233 -0.5689  2.5795
 4652TIP3   OH235446   1.627   3.740  16.494 -0.1697  0.7234  0.5549
 4652TIP3    H135447   1.718   3.770  16.500  0.3064 -0.8185  1.1995
 4652TIP3    H235448   1.633   3.653  16.455 -1.3460  0.4907  0.8842
 4653TIP3   OH235449   5.413   3.366   6.030 -0.0360  0.3335  0.2887
 4653TIP3    H135450   5.468   3.301   6.073  0.4987  0.8302  0.3622
 4653TIP3    H235451   5.386   3.425   6.101 -0.5358  0.1839  0.2284
 4654TIP3   OH235452   1.171   6.342   5.108  0.3203  0.2593 -0.2443
 4654TIP3    H135453   1.075   6.351   5.109  0.3364  0.3838  0.2290
 4654TIP3    H235454   1.188   6.263   5.158  0.6376  1.9307  2.4001
 4655TIP3   OH235455   3.729   2.372   0.728  0.3002 -0.3249  0.4289
 4655TIP3    H135456   3.694   2.314   0.660  3.2164 -0.7534 -0.7458
 4655TIP3    H235457   3.707   2.460   0.697  0.0818 -0.5883 -0.1745
 4656TIP3   OH235458   5.246   5.708  16.165 -0.3417  0.7787  0.0709
 4656TIP3    H135459   5.200   5.660  16.096  0.1764  0.7061 -0.2270
 4656TIP3    H235460   5.197   5.790  16.172 -1.3849  0.1054  0.7664
 4657TIP3   OH235461   0.992   5.118   6.538 -0.0835  1.1577  0.2229
 4657TIP3    H135462   1.001   5.213   6.550 -1.2482  1.0841  1.8031
 4657TIP3    H235463   1.037   5.081   6.614  1.6790  0.3903 -1.1647
 4658TIP3   OH235464   1.526   4.837  12.183 -0.7028  0.6764  0.0221
 4658TIP3    H135465   1.560   4.903  12.243 -0.6524  0.2434  0.4735
 4658TIP3    H235466   1.554   4.866  12.097  1.5142 -0.1199  0.4583
 4659TIP3   OH235467   1.633   5.965  12.514  0.7175 -0.0536  0.7122
 4659TIP3    H135468   1.713   5.916  12.533  1.3494  1.1018  1.0833
 4659TIP3    H235469   1.600   5.991  12.600 -0.0599 -0.5189  0.5594
 4660TIP3   OH235470   5.926   0.490   1.516 -0.1063  0.2372 -0.1899
 4660TIP3    H135471   6.005   0.537   1.489 -1.0508  1.9383 -0.0553
 4660TIP3    H235472   5.936   0.479   1.610 -0.1287  0.6712 -0.1333
 4661TIP3   OH235473   6.287   1.935  14.813  0.2619  0.3148 -0.1437
 4661TIP3    H135474   6.347   1.956  14.742 -0.8701 -0.8780 -1.4856
 4661TIP3    H235475   6.217   1.885  14.771 -1.9042  2.0542  1.3164
 4662TIP3   OH235476   1.097   3.442   0.181  0.1633  0.2053 -0.4958
 4662TIP3    H135477   1.089   3.535   0.161  0.1885  0.3522  0.1498
 4662TIP3    H235478   1.184   3.418   0.151  0.7858  0.7790  0.8049
 4663TIP3   OH235479   6.010   3.630  14.361 -0.2310 -0.3496  0.1334
 4663TIP3    H135480   6.015   3.710  14.308 -0.7124 -1.0108 -0.9137
 4663TIP3    H235481   5.924   3.636  14.403  0.0651  0.0740  0.6841
 4664TIP3   OH235482   3.455   6.548  16.245  0.5600 -0.2176  0.4147
 4664TIP3    H135483   3.441   6.582  16.157  2.1151  1.1495  0.6768
 4664TIP3    H235484   3.550   6.546  16.255  0.4118 -1.0645  1.8053
 4665TIP3   OH235485   5.517   2.743   1.817 -0.0160  0.2817 -0.1336
 4665TIP3    H135486   5.611   2.750   1.803  0.1881 -4.2075 -1.5784
 4665TIP3    H235487   5.507   2.689   1.895 -1.4219 -0.1636 -0.6037
 4666TIP3   OH235488   3.743   1.542   0.907  0.5615  0.9168  0.4417
 4666TIP3    H135489   3.814   1.547   0.843 -1.0254  1.9428 -1.2818
 4666TIP3    H235490   3.781   1.579   0.987  2.3298  0.3466 -0.1165
 4667TIP3   OH235491   3.096   0.277  15.175  0.5448 -0.8037  0.2145
 4667TIP3    H135492   3.032   0.209  15.196 -0.6220  0.3923  0.5801
 4667TIP3    H235493   3.090   0.339  15.248  1.2841 -0.0825 -0.3317
 4668TIP3   OH235494   5.555   1.781   5.909  0.3659 -0.1758  0.0168
 4668TIP3    H135495   5.495   1.822   5.971  0.3266 -0.5143  0.2037
 4668TIP3    H235496   5.497   1.738   5.845  0.4090 -0.2099  0.0013
 4669TIP3   OH235497   2.669   3.352  14.463  0.1615 -0.1680  0.1462
 4669TIP3    H135498   2.703   3.282  14.408  2.9519  1.9457 -0.9491
 4669TIP3    H235499   2.719   3.346  14.545  0.0771  0.2568  0.2343
 4670TIP3   OH235500   5.599   3.012  14.852 -0.1802  0.5263 -0.5341
 4670TIP3    H135501   5.524   3.071  14.857 -0.7021 -0.0846 -1.0251
 4670TIP3    H235502   5.569   2.941  14.795  0.6676  0.1274 -0.4810
 4671TIP3   OH235503   2.111   5.832   2.762 -0.0470  0.0705 -0.6594
 4671TIP3    H135504   2.081   5.886   2.835 -0.9487  0.0184 -0.9865
 4671TIP3    H235505   2.182   5.780   2.799  0.1670  0.7623 -0.0804
 4672TIP3   OH235506   2.169   6.544   0.012 -0.0151  0.2327  0.5147
 4672TIP3    H135507   2.074   6.555   0.002 -0.0309  1.6280  2.0578
 4672TIP3    H235508   2.200   6.627   0.047  1.8321 -0.1407 -0.1579
 4673TIP3   OH235509   4.344   5.149  13.838  0.5359 -0.5911 -0.0368
 4673TIP3    H135510   4.354   5.161  13.933 -0.8300 -0.4832  0.1080
 4673TIP3    H235511   4.299   5.065  13.829 -2.5162  0.9950 -0.3996
 4674TIP3   OH235512   2.057   6.542  16.178  0.3147  0.1466  0.4136
 4674TIP3    H135513   2.135   6.594  16.195  0.7156 -0.5051  0.5756
 4674TIP3    H235514   2.068   6.463  16.231 -0.3505 -0.0463  0.2796
 4675TIP3   OH235515   5.193   2.824   4.794 -0.5922 -0.3484 -0.1509
 4675TIP3    H135516   5.178   2.755   4.730  1.3225 -2.6762  1.8362
 4675TIP3    H235517   5.278   2.862   4.768 -0.5159 -0.3207  0.1427
 4676TIP3   OH235518   3.990   2.262   4.442 -0.0221  0.4537  0.4997
 4676TIP3    H135519   3.997   2.357   4.449 -0.4243  0.3509  3.0148
 4676TIP3    H235520   3.955   2.235   4.527  0.1366 -1.9454 -0.1655
 4677TIP3   OH235521   5.342   4.475   0.661  0.2384 -0.6942 -0.0879
 4677TIP3    H135522   5.372   4.544   0.720  2.5815 -1.3258 -0.4934
 4677TIP3    H235523   5.290   4.520   0.595 -1.7930  0.1095  2.0163
 4678TIP3   OH235524   1.450   5.649  13.001  0.1167  0.2262  0.1253
 4678TIP3    H135525   1.392   5.724  13.015  0.2498  0.4893 -0.6977
 4678TIP3    H235526   1.531   5.687  12.969  0.6349 -0.1708  0.9506
 4679TIP3   OH235527   4.590   3.858  10.737 -0.0666  0.0645  0.2130
 4679TIP3    H135528   4.588   3.765  10.711  1.0994 -0.0291  0.3974
 4679TIP3    H235529   4.670   3.865  10.789 -0.7406  0.9425  1.1245
 4680TIP3   OH235530   5.837   6.127   3.349  0.3401 -0.3051  0.1797
 4680TIP3    H135531   5.801   6.044   3.380  2.7408 -1.3050  0.3571
 4680TIP3    H235532   5.833   6.184   3.426  0.7860 -0.9601  0.6974
 4681TIP3   OH235533   3.925   5.885  11.005 -0.6781 -0.1068 -0.2866
 4681TIP3    H135534   3.932   5.876  10.910  0.2463 -0.7080 -0.1767
 4681TIP3    H235535   4.006   5.930  11.030 -1.0955  0.3856  0.1764
 4682TIP3   OH235536   5.001   5.073  14.561  0.4597 -0.1953  0.3759
 4682TIP3    H135537   4.956   5.051  14.479 -0.6706  2.5695  0.1915
 4682TIP3    H235538   4.931   5.104  14.619  1.4772 -0.5758  1.8270
 4683TIP3   OH235539   2.980   5.242   4.727 -0.0424  0.2587  0.3440
 4683TIP3    H135540   2.916   5.215   4.661  0.5593 -1.9609  0.6423
 4683TIP3    H235541   3.065   5.234   4.683  0.2695 -0.0428  0.9859
 4684TIP3   OH235542   5.945   6.597   4.741  0.5072 -0.2224  0.8529
 4684TIP3    H135543   5.860   6.637   4.723  0.8578  0.8478  1.5466
 4684TIP3    H235544   6.008   6.668   4.729  1.2222 -0.7878  1.2120
 4685TIP3   OH235545   4.599   1.987   6.055  0.6196  0.6569  0.1571
 4685TIP3    H135546   4.521   2.020   6.101  0.3975  0.9826 -0.4420
 4685TIP3    H235547   4.596   1.892   6.068 -0.3492  0.5831 -0.5932
 4686TIP3   OH235548   2.778   2.928  16.745 -0.3502  0.9310 -0.1729
 4686TIP3    H135549   2.774   2.928  16.649  1.0950  0.9820 -0.2338
 4686TIP3    H235550   2.803   2.839  16.768  1.3537  1.4510  0.0579
 4687TIP3   OH235551   2.231   6.607  15.076  0.0128  0.0614 -0.3794
 4687TIP3    H135552   2.288   6.682  15.061  1.7774 -1.4872 -1.7081
 4687TIP3    H235553   2.254   6.577  15.164 -0.4377  0.8280  0.0090
 4688TIP3   OH235554   1.361   1.954   6.058  0.0332  0.0207 -0.1176
 4688TIP3    H135555   1.434   1.913   6.105 -0.1008 -0.9300 -0.7198
 4688TIP3    H235556   1.400   2.031   6.017  0.3032  0.4830  0.9762
 4689TIP3   OH235557   0.021   2.425   2.348 -0.4164  0.1146 -0.5642
 4689TIP3    H135558   0.004   2.392   2.260 -2.0398 -1.6183  0.3841
 4689TIP3    H235559  -0.065   2.430   2.389  0.3504  0.6771  1.0154
 4690TIP3   OH235560   1.395   2.737   0.491  0.0191 -0.3629 -0.0162
 4690TIP3    H135561   1.433   2.824   0.505  1.6211 -1.0861  0.2861
 4690TIP3    H235562   1.469   2.677   0.503 -0.4016 -1.5822 -3.1869
 4691TIP3   OH235563   4.801   6.211  15.952 -0.0092 -0.6079 -0.3318
 4691TIP3    H135564   4.718   6.216  16.000  0.1909 -2.0486  0.2014
 4691TIP3    H235565   4.777   6.176  15.866 -0.0753 -0.0841 -0.5318
 4692TIP3   OH235566   3.213   4.788  12.510  0.1496  1.2316  0.1089
 4692TIP3    H135567   3.198   4.874  12.549 -1.6763 -0.3332  3.0290
 4692TIP3    H235568   3.232   4.731  12.585  0.6048 -1.0797 -1.7053
 4693TIP3   OH235569   2.857   4.514   4.489  0.1879 -0.3978 -0.7671
 4693TIP3    H135570   2.906   4.438   4.521 -1.2734 -1.4806 -1.0862
 4693TIP3    H235571   2.922   4.566   4.441  1.8542  0.0152  1.8239
 4694TIP3   OH235572   0.359   3.831   1.225 -0.4769 -0.4379  1.2500
 4694TIP3    H135573   0.358   3.878   1.309  1.9397  2.6285 -0.3069
 4694TIP3    H235574   0.304   3.884   1.168 -0.2756 -1.2562  0.2859
 4695TIP3   OH235575   2.659   4.876   4.652 -0.0674  0.5666  0.2869
 4695TIP3    H135576   2.638   4.969   4.658 -0.2291  0.4350  1.9022
 4695TIP3    H235577   2.579   4.831   4.681  0.2008 -0.0643  0.0589
 4696TIP3   OH235578   4.979   2.985  12.783 -0.3268  0.4047 -0.2183
 4696TIP3    H135579   4.977   3.079  12.769 -1.6759  0.1133 -2.1539
 4696TIP3    H235580   5.007   2.948  12.699 -0.2139 -0.9528  0.3870
 4697TIP3   OH235581   4.781   1.983  14.276 -0.0276 -0.5109 -0.0532
 4697TIP3    H135582   4.791   1.948  14.188  1.0563  1.0072 -0.5474
 4697TIP3    H235583   4.700   2.034  14.273 -0.4488 -1.1614  0.0787
 4698TIP3   OH235584   1.065   1.826   0.653  0.0924 -0.0865  0.0900
 4698TIP3    H135585   1.065   1.896   0.718  1.5570  1.0921 -1.1395
 4698TIP3    H235586   1.148   1.780   0.665  0.1572 -0.1688 -0.6084
 4699TIP3   OH235587   3.681   2.402   6.803 -0.3764 -0.3778 -0.9569
 4699TIP3    H135588   3.760   2.393   6.856 -0.7483  1.2745 -0.0764
 4699TIP3    H235589   3.626   2.328   6.830 -0.3646  0.1804  0.6299
 4700TIP3   OH235590   2.414   0.951  13.945  0.7098  0.4822 -0.3847
 4700TIP3    H135591   2.387   1.015  14.010 -0.5715 -0.5350  0.1067
 4700TIP3    H235592   2.431   0.871  13.995  0.0755 -0.2056 -1.2549
 4701TIP3   OH235593   2.822   5.895   5.302 -0.0766 -0.5100 -0.0335
 4701TIP3    H135594   2.887   5.914   5.234 -1.1144 -0.4967 -1.0468
 4701TIP3    H235595   2.773   5.977   5.311  0.6845 -0.2065  1.4404
 4702TIP3   OH235596   6.115   4.855   1.614  0.1342 -0.0286 -0.6395
 4702TIP3    H135597   6.050   4.925   1.625  1.5962  1.3067 -0.2962
 4702TIP3    H235598   6.090   4.788   1.677  0.2327  1.3476  0.8738
 4703TIP3   OH235599   1.925   5.220  16.124 -0.0850  0.0993  0.1675
 4703TIP3    H135600   1.917   5.296  16.066  2.1820  0.5714  0.4536
 4703TIP3    H235601   1.890   5.147  16.072  1.2569  0.6521 -1.5347
 4704TIP3   OH235602   3.793   2.212  12.207  0.5584  0.0927  0.4194
 4704TIP3    H135603   3.856   2.204  12.279  1.0666  0.2841  0.0024
 4704TIP3    H235604   3.727   2.145  12.225  1.4970 -0.8931  0.2519
 4705TIP3   OH235605   5.844   3.095  10.640 -0.0561 -0.5325 -0.1331
 4705TIP3    H135606   5.895   3.168  10.605 -1.5148 -0.1026 -1.4490
 4705TIP3    H235607   5.825   3.119  10.730 -0.0358  0.4657 -0.3854
 4706TIP3   OH235608   5.001   6.541  12.910 -0.3096  0.2947  0.3396
 4706TIP3    H135609   4.996   6.637  12.906 -1.1493  0.2580  0.3548
 4706TIP3    H235610   4.950   6.512  12.834  1.6923 -0.1137 -0.8671
 4707TIP3   OH235611   3.496   3.192  15.536 -0.0613 -0.1831  0.0814
 4707TIP3    H135612   3.573   3.145  15.502  0.0492 -0.2684  0.4442
 4707TIP3    H235613   3.526   3.231  15.618 -0.5579 -0.6820  0.5090
 4708TIP3   OH235614   2.183   2.827  14.729 -0.0060 -0.0888 -0.0702
 4708TIP3    H135615   2.117   2.784  14.674 -1.0622  1.1404  0.2096
 4708TIP3    H235616   2.223   2.893  14.672 -1.0586  1.1456  0.5897
 4709TIP3   OH235617   1.922   2.130   4.603  0.4248 -0.5895  0.3285
 4709TIP3    H135618   1.901   2.219   4.629 -1.0662  0.1479 -3.0342
 4709TIP3    H235619   1.837   2.088   4.590  1.0891 -1.7992 -0.2393
 4710TIP3   OH235620   4.429   1.633  13.812 -0.2551  0.0560 -0.2089
 4710TIP3    H135621   4.482   1.581  13.872 -0.6585 -1.2876 -1.0021
 4710TIP3    H235622   4.344   1.641  13.855  0.4646  1.9405  0.9175
 4711TIP3   OH235623   1.878   0.701   3.801  0.4943 -0.0387 -0.1194
 4711TIP3    H135624   1.948   0.737   3.746  0.9481  1.2563  1.2578
 4711TIP3    H235625   1.922   0.679   3.883 -0.3352 -1.1343  0.0316
 4712TIP3   OH235626   0.409   1.122  12.467  0.4006 -0.3526 -0.7328
 4712TIP3    H135627   0.405   1.052  12.402 -0.6947  0.3425 -1.4240
 4712TIP3    H235628   0.349   1.189  12.435 -1.1827 -0.5595  1.6671
 4713TIP3   OH235629   0.264   2.030  10.353  0.0493 -0.2612  0.5773
 4713TIP3    H135630   0.346   2.061  10.392 -1.0335 -0.8850  3.4287
 4713TIP3    H235631   0.271   1.935  10.354  0.0987 -0.2857 -1.0153
 4714TIP3   OH235632   2.069   1.456  17.038  0.0313 -0.1089  0.0294
 4714TIP3    H135633   2.127   1.405  17.095  1.1168 -0.1603 -1.1022
 4714TIP3    H235634   2.010   1.391  17.001  1.1002 -0.4945 -1.0328
 4715TIP3   OH235635   5.944   4.948   1.012 -0.3063  0.0292  0.1967
 4715TIP3    H135636   5.866   4.966   0.959 -0.2208  0.5122  0.2297
 4715TIP3    H235637   5.967   5.033   1.050 -0.7606 -0.4525  1.5561
 4716TIP3   OH235638   5.581   4.251   6.165 -0.0940  0.2442  0.0342
 4716TIP3    H135639   5.567   4.198   6.243 -2.2781 -2.2817 -1.9620
 4716TIP3    H235640   5.670   4.228   6.137  0.5614  0.8960  1.5592
 4717TIP3   OH235641   6.789   6.114   3.555 -0.2223 -0.2258 -0.3608
 4717TIP3    H135642   6.857   6.156   3.501 -1.3779 -1.1934 -2.6453
 4717TIP3    H235643   6.710   6.164   3.536 -0.7434 -0.8898  0.0624
 4718TIP3   OH235644   3.944   2.285  14.355 -0.3632 -0.5235 -0.6850
 4718TIP3    H135645   4.026   2.243  14.381 -0.8297 -1.6603 -1.0325
 4718TIP3    H235646   3.904   2.314  14.437  0.0931 -0.5216 -0.4650
 4719TIP3   OH235647   1.441   6.487  11.054  0.0493  0.0875  0.2777
 4719TIP3    H135648   1.412   6.550  10.988 -1.3407 -0.7939  0.0339
 4719TIP3    H235649   1.396   6.406  11.031  1.0369 -0.7357  1.1923
 4720TIP3   OH235650   4.415   6.384  14.930 -0.6145  0.0932  0.1023
 4720TIP3    H135651   4.408   6.358  15.022  0.0946  1.0001  0.4170
 4720TIP3    H235652   4.366   6.317  14.882 -1.0491 -0.3405  1.1462
 4721TIP3   OH235653   3.218   6.419   4.526 -0.5822 -0.5501 -0.0187
 4721TIP3    H135654   3.281   6.427   4.598  0.0364  2.0014 -0.8026
 4721TIP3    H235655   3.149   6.363   4.561  0.1942 -0.1564  2.2215
 4722TIP3   OH235656   1.003   5.931  11.099 -0.2001 -0.0376  0.6204
 4722TIP3    H135657   1.086   5.967  11.068  0.2501 -0.2790  1.5223
 4722TIP3    H235658   1.028   5.868  11.167 -1.1798  0.7008  1.6876
 4723TIP3   OH235659   6.063   4.347  12.285 -0.0927 -0.2747 -0.4970
 4723TIP3    H135660   5.990   4.378  12.231  1.1790  1.8025 -1.0917
 4723TIP3    H235661   6.033   4.360  12.375 -0.1088  1.4985 -0.7392
 4724TIP3   OH235662   6.670   5.626   2.602 -0.4221  0.3416  0.2356
 4724TIP3    H135663   6.601   5.564   2.579  1.0713 -0.8013 -1.3170
 4724TIP3    H235664   6.737   5.572   2.645  0.0655  1.1988  0.5672
 4725TIP3   OH235665   5.863   0.154  13.496  0.0887 -0.0881  0.4755
 4725TIP3    H135666   5.789   0.206  13.463 -0.5315 -0.3629  1.4158
 4725TIP3    H235667   5.885   0.095  13.423  0.3591  1.0187 -0.3511
 4726TIP3   OH235668   1.624   2.248  11.558 -0.4018  0.6493  0.0818
 4726TIP3    H135669   1.642   2.290  11.474 -0.9698  0.6385 -0.0526
 4726TIP3    H235670   1.650   2.157  11.545 -1.1221  0.4937 -0.3084
 4727TIP3   OH235671   4.914   4.716  17.056  0.2542 -0.2259  0.0084
 4727TIP3    H135672   4.913   4.796  17.109  0.9533 -0.9853  1.1985
 4727TIP3    H235673   4.981   4.661  17.097 -0.4693 -1.5770 -0.5733
 4728TIP3   OH235674   1.600   6.438   1.104 -0.1583 -0.1307 -0.1199
 4728TIP3    H135675   1.645   6.353   1.099 -0.7025 -0.4490  0.2538
 4728TIP3    H235676   1.664   6.497   1.145  0.4231 -0.2203 -0.8951
 4729TIP3   OH235677   6.284   6.480   4.656  0.3499 -0.5184 -0.4359
 4729TIP3    H135678   6.246   6.416   4.596 -0.3610  1.3269 -1.9508
 4729TIP3    H235679   6.236   6.561   4.641  1.3936  0.4688  1.3154
 4730TIP3   OH235680   2.954   3.357   1.390  0.2689  0.3890 -0.3263
 4730TIP3    H135681   3.049   3.350   1.377  0.2081  1.5060 -1.5337
 4730TIP3    H235682   2.922   3.267   1.386  1.4879 -0.1881  2.0010
 4731TIP3   OH235683   6.145   5.562   0.158 -0.3457  0.7916 -0.2572
 4731TIP3    H135684   6.175   5.653   0.156 -1.1020  1.0644  0.5205
 4731TIP3    H235685   6.225   5.510   0.154  0.0569  1.4759 -1.4780
 4732TIP3   OH235686   1.153   0.504   4.899 -0.1682  0.0117  0.5152
 4732TIP3    H135687   1.198   0.422   4.919 -0.2364  0.3475  2.1466
 4732TIP3    H235688   1.070   0.498   4.946  0.4604  1.6323  1.8886
 4733TIP3   OH235689   5.091   2.236   1.829  0.3788  0.4743  0.2012
 4733TIP3    H135690   5.079   2.189   1.911 -0.0416 -0.6124 -0.4557
 4733TIP3    H235691   5.005   2.232   1.787  0.7924  0.3296 -0.6412
 4734TIP3   OH235692   4.047   2.836   1.466  0.1413  0.4420 -1.0644
 4734TIP3    H135693   4.105   2.911   1.450  2.8549 -0.8531  2.2156
 4734TIP3    H235694   3.979   2.870   1.524  1.3268  0.4156  0.3577
 4735TIP3   OH235695   0.063   5.291   4.054  0.1102  0.6863  0.3899
 4735TIP3    H135696  -0.017   5.274   4.105 -0.5148  0.2215 -0.7448
 4735TIP3    H235697   0.082   5.208   4.010  1.5530  0.6235  1.0979
 4736TIP3   OH235698   3.886   5.674   1.769 -0.3986 -0.3823 -0.8627
 4736TIP3    H135699   3.824   5.744   1.788  0.6131  0.6077 -1.1676
 4736TIP3    H235700   3.854   5.634   1.688  1.4555  2.6486 -3.2090
 4737TIP3   OH235701   3.140   4.359  16.928 -0.2939 -0.2833 -0.4535
 4737TIP3    H135702   3.214   4.419  16.934 -0.4640 -0.1300  0.1392
 4737TIP3    H235703   3.173   4.277  16.963 -0.7419  0.1043  0.9167
 4738TIP3   OH235704   4.926   0.856   2.178 -0.5904  0.2155 -0.1535
 4738TIP3    H135705   5.009   0.873   2.223 -0.5975 -0.5381  0.1507
 4738TIP3    H235706   4.943   0.779   2.124 -1.0162  0.2245 -0.3056
 4739TIP3   OH235707   1.742   1.728  17.275 -0.2513 -0.7272  0.3119
 4739TIP3    H135708   1.816   1.788  17.264 -0.2450 -1.0852 -1.8562
 4739TIP3    H235709   1.665   1.783  17.269 -0.2247 -0.8003 -0.9348
 4740TIP3   OH235710   4.050   3.689  16.285  0.3268 -0.2362 -0.5844
 4740TIP3    H135711   4.091   3.621  16.339  0.4767  0.2563 -0.0830
 4740TIP3    H235712   4.110   3.763  16.290 -1.7222  1.3341  2.0567
 4741TIP3   OH235713   2.718   1.776   1.893  0.9222 -0.1266 -0.1216
 4741TIP3    H135714   2.625   1.792   1.906  0.2978 -1.8010 -2.1966
 4741TIP3    H235715   2.730   1.683   1.913  1.7434 -0.4089 -1.7807
 4742TIP3   OH235716   4.404   1.416   0.402 -0.2422 -0.2456 -0.2248
 4742TIP3    H135717   4.387   1.327   0.432  0.3395 -0.5949 -0.9104
 4742TIP3    H235718   4.471   1.449   0.461 -0.8721 -0.0591  0.3880
 4743TIP3   OH235719   4.833   3.958  14.796 -0.4494 -0.0525 -0.3085
 4743TIP3    H135720   4.829   4.035  14.853 -3.1019  1.1342 -1.9993
 4743TIP3    H235721   4.774   3.894  14.837 -2.1091  0.6836 -1.5074
 4744TIP3   OH235722   4.738   1.681  14.782 -0.1426 -0.3232  0.0279
 4744TIP3    H135723   4.792   1.608  14.814  0.0346  0.1641  0.8537
 4744TIP3    H235724   4.667   1.688  14.845 -0.5535 -0.2441 -0.4452
 4745TIP3   OH235725   2.508   3.283  12.596 -0.3911 -0.0804  0.2839
 4745TIP3    H135726   2.413   3.290  12.587 -0.4465  3.6636  2.7207
 4745TIP3    H235727   2.540   3.371  12.575  2.4674 -1.0280  0.5319
 4746TIP3   OH235728   0.840   1.406  11.733 -0.0480 -0.1209  0.0737
 4746TIP3    H135729   0.830   1.314  11.709 -2.0003 -0.1816  1.0455
 4746TIP3    H235730   0.859   1.403  11.827 -4.0222  0.5889  0.9864
 4747TIP3   OH235731   4.048   5.940   2.410  0.1290  0.0149 -0.8701
 4747TIP3    H135732   3.955   5.920   2.410 -0.0827  1.0126  0.0460
 4747TIP3    H235733   4.085   5.880   2.475  0.2864 -1.0777 -1.9473
 4748TIP3   OH235734   6.318   3.928   0.940  0.0225 -0.2681  0.4114
 4748TIP3    H135735   6.410   3.930   0.964 -0.0965 -0.0799  0.8493
 4748TIP3    H235736   6.289   3.839   0.961 -0.1721  0.0055  1.2914
 4749TIP3   OH235737   4.857   2.125   3.160  0.7897  0.5751  0.5329
 4749TIP3    H135738   4.937   2.164   3.126  2.6943 -3.0606  0.5568
 4749TIP3    H235739   4.835   2.056   3.098 -1.2700  0.2863  1.5296
 4750TIP3   OH235740   6.796   6.292  13.630 -0.2220 -0.1835 -0.0317
 4750TIP3    H135741   6.821   6.343  13.553 -0.1215  0.5390  0.4751
 4750TIP3    H235742   6.700   6.293  13.630 -0.2211  0.0191 -0.0183
 4751TIP3   OH235743   2.431   0.988  14.237  0.7403  0.6621 -0.1805
 4751TIP3    H135744   2.466   1.077  14.226  0.7461  0.9780  2.1275
 4751TIP3    H235745   2.503   0.938  14.274  1.1006 -0.6389 -2.5444
 4752TIP3   OH235746   5.033   2.097  12.139 -0.2448 -0.1494 -0.0453
 4752TIP3    H135747   5.038   2.010  12.100  0.5126  0.0007 -0.2889
 4752TIP3    H235748   5.122   2.132  12.132  0.4310 -0.9158  3.5891
 4753TIP3   OH235749   3.338   1.277  17.009 -0.5177  0.3248 -0.0942
 4753TIP3    H135750   3.343   1.189  17.046 -0.9070 -0.0647 -0.9556
 4753TIP3    H235751   3.335   1.335  17.085 -2.1184 -0.5073  0.5049
 4754TIP3   OH235752   6.021   3.549   2.455 -0.3190  0.1725 -0.0654
 4754TIP3    H135753   6.051   3.534   2.545 -1.8871 -1.6915  0.1826
 4754TIP3    H235754   6.101   3.551   2.403  0.4598 -1.4315  1.0177
 4755TIP3   OH235755   4.604   2.494  14.152  0.0728  0.2874  0.2567
 4755TIP3    H135756   4.612   2.487  14.247  1.5872  1.3294  0.2061
 4755TIP3    H235757   4.593   2.588  14.135  0.6952  0.1954 -0.6741
 4756TIP3   OH235758   5.336   3.627  16.423 -0.0680 -0.1548 -0.0269
 4756TIP3    H135759   5.389   3.706  16.426 -0.0423 -0.1818  0.1944
 4756TIP3    H235760   5.275   3.636  16.496  1.0793 -1.1549  1.0557
 4757TIP3   OH235761   0.336   1.788   5.541  0.6462  0.1398  0.3129
 4757TIP3    H135762   0.360   1.797   5.633  2.5607  0.1978 -0.1708
 4757TIP3    H235763   0.305   1.874   5.515  3.0605  0.9659  0.0943
 4758TIP3   OH235764   3.991   2.131  17.048 -0.0098 -0.1324  0.4817
 4758TIP3    H135765   4.063   2.143  16.986 -0.0553 -0.2237  0.4124
 4758TIP3    H235766   4.033   2.130  17.134 -0.0385  0.9173  0.5228
 4759TIP3   OH235767   1.108   5.138   1.543  0.2873 -0.3236 -0.0584
 4759TIP3    H135768   1.044   5.208   1.531 -0.1784 -0.5069  1.2783
 4759TIP3    H235769   1.193   5.181   1.533  0.0247  0.6422  1.7659
 4760TIP3   OH235770   4.584   2.097  16.357 -0.1378 -0.0235  0.2601
 4760TIP3    H135771   4.665   2.141  16.379  0.0487  0.6102 -1.6319
 4760TIP3    H235772   4.611   2.010  16.326 -0.2653 -0.2401  0.7528
 4761TIP3   OH235773   5.155   3.779  16.276  0.5120 -0.1326 -0.1584
 4761TIP3    H135774   5.229   3.723  16.300  1.4474  0.8645 -0.7083
 4761TIP3    H235775   5.131   3.749  16.188  1.0962  0.4207 -0.5038
 4762TIP3   OH235776   5.444   5.009   4.620 -0.1124 -0.8596  0.3469
 4762TIP3    H135777   5.500   5.082   4.648  1.0992 -1.0484 -1.5045
 4762TIP3    H235778   5.368   5.051   4.581  0.3319 -0.5777 -0.2219
 4763TIP3   OH235779   0.565   0.041   3.462  0.2063 -0.1930  0.3271
 4763TIP3    H135780   0.653   0.065   3.491  1.0530 -0.6863 -1.7549
 4763TIP3    H235781   0.525  -0.001   3.538  2.1430 -0.8925  0.9796
 4764TIP3   OH235782   0.989   6.007  16.581 -0.4543  0.1133  0.4446
 4764TIP3    H135783   0.894   6.012  16.586 -0.4342  1.3258 -0.0883
 4764TIP3    H235784   1.007   5.925  16.534 -1.2856  0.6713 -0.8712
 4765TIP3   OH235785   0.868   1.897  12.300 -0.1445  0.4221 -0.5142
 4765TIP3    H135786   0.801   1.828  12.297  0.4734 -0.2579  1.0857
 4765TIP3    H235787   0.902   1.900  12.210 -2.1650  0.6382 -1.2965
 4766TIP3   OH235788   3.879   5.197  15.096 -0.2898  0.2152  0.1618
 4766TIP3    H135789   3.968   5.218  15.067  0.5379 -2.3343  0.6854
 4766TIP3    H235790   3.866   5.251  15.173  0.5446  1.1312 -0.3282
 4767TIP3   OH235791   3.673   1.631  11.115  0.2847 -0.0026 -0.4279
 4767TIP3    H135792   3.600   1.571  11.129  1.1845 -1.4219 -1.6270
 4767TIP3    H235793   3.744   1.597  11.169  1.1967 -0.7674 -2.0866
 4768TIP3   OH235794   4.236   5.035  16.946 -0.1265 -0.4900 -0.2376
 4768TIP3    H135795   4.300   4.999  16.886  1.1747 -0.5445  1.1544
 4768TIP3    H235796   4.234   4.974  17.020  0.9137  1.3935  1.3967
 4769TIP3   OH235797   0.967   5.729  14.567  0.2987 -0.0434 -0.1843
 4769TIP3    H135798   1.030   5.750  14.498  1.0066  1.1886  0.8135
 4769TIP3    H235799   1.019   5.688  14.636 -0.3231 -0.8131 -0.1627
 4770TIP3   OH235800   5.343   2.443   0.684  0.2598  0.7019  0.3077
 4770TIP3    H135801   5.303   2.495   0.753  1.7478  1.8683  0.3081
 4770TIP3    H235802   5.309   2.481   0.603 -1.3956 -0.5946  0.3621
 4771TIP3   OH235803   3.596   3.963  15.419 -0.3299 -0.3700 -0.0137
 4771TIP3    H135804   3.551   4.005  15.346  2.2786 -0.2301 -1.5759
 4771TIP3    H235805   3.683   4.003  15.421  1.0695 -3.3082  0.5704
 4772TIP3   OH235806   5.254   6.055  16.606  0.1075  0.3995 -0.0939
 4772TIP3    H135807   5.167   6.016  16.620  0.5239 -1.1022 -1.5580
 4772TIP3    H235808   5.291   6.060  16.694 -0.4290 -1.4652  0.2660
 4773TIP3   OH235809   6.536   4.675  15.773  0.4499 -0.0752 -0.0885
 4773TIP3    H135810   6.528   4.771  15.778 -0.9041 -0.1277 -0.9665
 4773TIP3    H235811   6.495   4.644  15.854  1.3661  0.1106  0.4472
 4774TIP3   OH235812   1.368   2.436   1.567 -0.5023  0.5705  0.7356
 4774TIP3    H135813   1.404   2.512   1.521 -0.9086  0.4957  0.2917
 4774TIP3    H235814   1.313   2.474   1.635 -1.9693  0.6719 -0.4939
 4775TIP3   OH235815   6.771   0.739  14.022 -0.0082  0.1802 -0.1129
 4775TIP3    H135816   6.792   0.702  14.108  0.1006 -0.0593 -0.2408
 4775TIP3    H235817   6.743   0.664  13.970 -1.7555  0.5729  0.2266
 4776TIP3   OH235818   4.117   6.414  16.196 -0.1383  0.2602 -0.5441
 4776TIP3    H135819   4.059   6.414  16.272 -1.3944 -1.8505 -1.4689
 4776TIP3    H235820   4.138   6.506  16.182 -2.0865  0.9215  0.7053
 4777TIP3   OH235821   3.851   1.436  14.934 -0.7023 -0.2332 -0.6453
 4777TIP3    H135822   3.841   1.491  14.856  1.0195  1.3817  0.2233
 4777TIP3    H235823   3.871   1.349  14.900 -1.6177  0.0801 -2.0232
 4778TIP3   OH235824   3.893   4.509  10.954 -0.3009 -0.0571  0.2575
 4778TIP3    H135825   3.846   4.434  10.916 -0.4464  1.0102 -1.7258
 4778TIP3    H235826   3.823   4.565  10.988 -0.2492 -0.2373  0.6682
 4779TIP3   OH235827   6.512   4.269   4.632  0.1891  0.4313 -0.3785
 4779TIP3    H135828   6.457   4.217   4.691  2.8372  2.2623  3.9589
 4779TIP3    H235829   6.470   4.355   4.629  1.0573  0.8870  0.3637
 4780TIP3   OH235830   0.874   0.494   1.540 -0.4360  0.4211  0.6243
 4780TIP3    H135831   0.814   0.421   1.546 -1.9839  1.6329  0.1598
 4780TIP3    H235832   0.955   0.456   1.505 -1.6137 -0.8204 -0.7970
 4781TIP3   OH235833   3.896   4.953  15.443  0.5289  0.0546  0.1417
 4781TIP3    H135834   3.890   4.898  15.365  0.2479 -0.6207  0.6378
 4781TIP3    H235835   3.886   4.892  15.516  1.9509  0.5177  0.7364
 4782TIP3   OH235836   5.359   5.541  16.372  0.1418 -0.0392  0.2545
 4782TIP3    H135837   5.339   5.611  16.310 -3.0879 -0.8529  0.2800
 4782TIP3    H235838   5.310   5.564  16.451  0.8261 -1.2016  1.0400
 4783TIP3   OH235839   4.151   4.204  14.710  0.0706 -0.0336  0.0950
 4783TIP3    H135840   4.159   4.263  14.635  1.7407 -0.6788 -0.2568
 4783TIP3    H235841   4.238   4.163  14.718 -0.5575 -1.1538  1.3969
 4784TIP3   OH235842   1.745   4.663  12.921 -0.1269  0.4913 -0.0307
 4784TIP3    H135843   1.782   4.711  12.996  1.9398 -0.8425 -0.1552
 4784TIP3    H235844   1.731   4.575  12.954 -3.0280  0.9009 -0.0889
 4785TIP3   OH235845   2.353   5.376  12.324  0.0589  0.3161  0.0762
 4785TIP3    H135846   2.382   5.398  12.236  0.0087  1.0671  0.2355
 4785TIP3    H235847   2.338   5.461  12.366 -0.5749 -0.0390  0.5879
 4786TIP3   OH235848   0.818   4.161   3.868  0.4362  0.2106  0.3164
 4786TIP3    H135849   0.814   4.255   3.849 -3.0683 -0.1575 -1.1769
 4786TIP3    H235850   0.749   4.147   3.933 -1.1819 -1.7574 -1.7405
 4787TIP3   OH235851   4.683   0.430   2.969 -0.0624  0.2223  0.2027
 4787TIP3    H135852   4.640   0.444   2.884  3.2598  0.2570 -1.5718
 4787TIP3    H235853   4.686   0.517   3.009  3.0194  1.2240 -2.0378
 4788TIP3   OH235854   6.425   6.416  16.204 -0.1935 -0.0101  0.2084
 4788TIP3    H135855   6.422   6.502  16.245 -0.9609  0.2811 -0.4532
 4788TIP3    H235856   6.334   6.386  16.204 -0.4758  0.6725 -2.6777
 4789TIP3   OH235857   3.165   6.661   5.696  0.3291 -0.1486  0.0000
 4789TIP3    H135858   3.231   6.701   5.753 -1.1875  1.9195  0.3927
 4789TIP3    H235859   3.085   6.661   5.750 -0.8726  0.8613 -1.7468
 4790TIP3   OH235860   5.701   1.270  14.895 -0.2789  0.2028 -0.4018
 4790TIP3    H135861   5.674   1.246  14.807 -0.9724  2.0462 -0.7084
 4790TIP3    H235862   5.619   1.290  14.941  0.1703  0.5098  0.2754
 4791TIP3   OH235863   1.482   0.159   3.326  0.6788 -0.3337  0.3269
 4791TIP3    H135864   1.445   0.148   3.414  1.9118 -0.2084  0.8676
 4791TIP3    H235865   1.570   0.193   3.341 -0.4961  3.6154 -1.0833
 4792TIP3   OH235866   5.573   2.052  13.715 -0.1292  0.3613 -0.1784
 4792TIP3    H135867   5.579   2.115  13.786 -1.9112  0.9748 -0.5510
 4792TIP3    H235868   5.625   2.090  13.644 -0.2045  0.8185  0.0140
 4793TIP3   OH235869   4.945   5.569   3.325  0.0878  0.3252 -0.2808
 4793TIP3    H135870   4.866   5.598   3.278 -1.5647 -3.0776  0.2870
 4793TIP3    H235871   5.005   5.542   3.256  1.2628  3.8584 -0.7717
 4794TIP3   OH235872   5.140   1.719   2.165  0.0886  0.0142 -0.0922
 4794TIP3    H135873   5.227   1.690   2.190  0.0515 -0.7186 -0.8028
 4794TIP3    H235874   5.120   1.790   2.226  1.1309  0.1082  0.1496
 4795TIP3   OH235875   6.067   1.767  14.759  0.1465 -0.6583 -0.2538
 4795TIP3    H135876   6.079   1.684  14.712 -1.7293 -0.3995 -1.2570
 4795TIP3    H235877   6.003   1.814  14.706 -0.1443  0.6822  1.2819
 4796TIP3   OH235878   4.443   1.481   3.724  0.3027 -0.0276  0.2827
 4796TIP3    H135879   4.371   1.540   3.745  0.8674  0.7956 -0.0688
 4796TIP3    H235880   4.444   1.418   3.796  0.7528  1.3982  1.5602
 4797TIP3   OH235881   1.439   0.379  16.274 -0.3004  0.4382 -0.0548
 4797TIP3    H135882   1.424   0.431  16.195 -1.1662 -0.0223 -0.2029
 4797TIP3    H235883   1.462   0.292  16.241 -0.6063  0.2605  0.2031
 4798TIP3   OH235884   2.891   6.579   3.511  0.3668 -0.2478 -0.1981
 4798TIP3    H135885   2.870   6.506   3.452 -0.1660 -0.7486  0.5988
 4798TIP3    H235886   2.955   6.542   3.572  1.3077  0.4168 -0.7816
 4799TIP3   OH235887   1.329   5.245  12.113  0.0795  0.1684  0.3371
 4799TIP3    H135888   1.341   5.234  12.019  1.4157 -0.4815  0.5788
 4799TIP3    H235889   1.261   5.312  12.120 -0.5733 -0.3277 -1.0857
 4800TIP3   OH235890   1.032   4.105   3.650  0.1809 -0.4109  0.2793
 4800TIP3    H135891   0.973   4.111   3.725  0.7052 -0.3929  0.6917
 4800TIP3    H235892   1.011   4.021   3.609  2.0879 -1.9427  2.3038
 4801TIP3   OH235893   1.071   1.534  17.108  0.0342  0.0460 -0.1827
 4801TIP3    H135894   1.117   1.472  17.165  0.0100  0.2422  0.0531
 4801TIP3    H235895   1.005   1.573  17.164  0.7200  1.0394 -0.0501
 4802TIP3   OH235896   6.206   5.671  12.920 -0.1790  0.0607  0.2733
 4802TIP3    H135897   6.207   5.693  12.826 -0.2549 -2.0889 -0.2589
 4802TIP3    H235898   6.296   5.643  12.938 -0.1638  0.4855  0.8570
 4803TIP3   OH235899   0.504   0.798   0.675 -0.5809 -0.0759 -0.3815
 4803TIP3    H135900   0.585   0.771   0.632 -0.3905  0.6834 -0.5090
 4803TIP3    H235901   0.434   0.773   0.614 -0.4424 -0.6692 -0.3007
 4804TIP3   OH235902   3.721   3.268   4.877 -0.3829 -0.3096 -0.3293
 4804TIP3    H135903   3.706   3.330   4.807 -0.3757  0.4063  0.2955
 4804TIP3    H235904   3.771   3.317   4.943  0.6877 -1.3237 -0.3612
 4805TIP3   OH235905   0.394   4.261  13.192 -0.1272 -0.1567  0.3207
 4805TIP3    H135906   0.377   4.343  13.240  1.3783  0.7100 -0.5834
 4805TIP3    H235907   0.317   4.250  13.136 -0.1653  0.8800  0.1493
 4806TIP3   OH235908   2.643   0.502  12.749  0.4589 -0.0938  0.2986
 4806TIP3    H135909   2.618   0.454  12.670 -0.3702  3.0131 -1.4039
 4806TIP3    H235910   2.738   0.498  12.750  0.4255 -1.3496 -0.0511
 4807TIP3   OH235911   2.562   5.332   1.127 -0.5484  0.2615 -0.1467
 4807TIP3    H135912   2.468   5.341   1.110 -0.4123  0.3947 -0.8642
 4807TIP3    H235913   2.579   5.238   1.123 -0.2461  0.3784 -2.3407
 4808TIP3   OH235914   1.556   5.005  13.517  0.1045 -0.0074 -0.5069
 4808TIP3    H135915   1.645   5.011  13.552  0.6227 -1.3499 -1.5603
 4808TIP3    H235916   1.504   5.061  13.575  1.4540  0.0209  0.7061
 4809TIP3   OH235917   5.883   5.756  16.739 -0.4249  0.1619  0.3401
 4809TIP3    H135918   5.893   5.847  16.711 -2.0896  0.2986  0.1842
 4809TIP3    H235919   5.874   5.761  16.835  0.6977  0.0452  0.4658
 4810TIP3   OH235920   5.734   6.039  11.683  0.3786 -0.3936 -0.0337
 4810TIP3    H135921   5.718   5.971  11.618 -1.0313 -0.9430  0.8718
 4810TIP3    H235922   5.760   6.115  11.632  2.2704 -1.6836 -1.0370
 4811TIP3   OH235923   0.475   3.835  11.947 -0.5551 -0.8725  0.1626
 4811TIP3    H135924   0.470   3.882  12.030 -2.6735  0.5649 -0.7624
 4811TIP3    H235925   0.569   3.833  11.927 -0.1551  0.0795  1.8212
 4812TIP3   OH235926   1.969   3.726   5.093  0.1257  0.4073  0.0088
 4812TIP3    H135927   1.934   3.790   5.031 -1.2808  0.1996  0.5548
 4812TIP3    H235928   2.064   3.737   5.088 -0.0690  2.1523 -0.3051
 4813TIP3   OH235929   5.445   0.508  10.974  0.2668 -0.5569  0.5796
 4813TIP3    H135930   5.430   0.414  10.981 -0.0767 -0.4901  0.7420
 4813TIP3    H235931   5.473   0.522  10.884 -1.4158 -0.5760  0.0392
 4814TIP3   OH235932   1.125   5.724   5.081  0.5917 -0.4845 -0.3041
 4814TIP3    H135933   1.212   5.764   5.081 -0.0440  0.9520 -1.9383
 4814TIP3    H235934   1.130   5.657   5.149  2.0040  1.6890  1.8240
 4815TIP3   OH235935   6.324   5.251  13.128  0.2036 -0.2511 -0.2883
 4815TIP3    H135936   6.271   5.230  13.205  0.8807  0.7417  0.4657
 4815TIP3    H235937   6.404   5.199  13.139  0.7975  0.7828  0.2746
 4816TIP3   OH235938   2.902   5.959  16.694  0.1121 -0.2689  0.6875
 4816TIP3    H135939   2.884   5.913  16.612 -1.9351  1.6818 -0.0233
 4816TIP3    H235940   2.831   5.932  16.752  0.4927 -0.1864  1.1880
 4817TIP3   OH235941   1.380   4.679  16.648 -0.0923 -0.5939  0.3937
 4817TIP3    H135942   1.310   4.673  16.583 -0.1242 -1.7642  0.5397
 4817TIP3    H235943   1.457   4.645  16.603 -0.3223 -2.3398  1.2644
 4818TIP3   OH235944   4.094   4.419   0.762 -0.0621 -0.2094  0.1091
 4818TIP3    H135945   4.062   4.345   0.814 -0.7989  1.9137  2.7827
 4818TIP3    H235946   4.097   4.385   0.673 -0.3598 -3.4703  1.2467
 4819TIP3   OH235947   6.734   2.460   3.614 -0.1310  0.2167  0.1997
 4819TIP3    H135948   6.784   2.465   3.696  0.2383 -2.1245  0.1620
 4819TIP3    H235949   6.648   2.425   3.641 -0.1574 -0.1391 -0.3354
 4820TIP3   OH235950   3.228   2.001   3.359  0.2467 -0.1871 -0.0019
 4820TIP3    H135951   3.139   2.002   3.324  0.3662 -0.3248 -0.3104
 4820TIP3    H235952   3.228   1.929   3.422  0.6884 -1.4707 -1.4492
 4821TIP3   OH235953   6.689   1.558  10.977 -0.1518 -0.7122 -0.2400
 4821TIP3    H135954   6.628   1.541  11.049 -0.2967 -0.9676 -0.4196
 4821TIP3    H235955   6.740   1.477  10.969 -0.8145 -1.0610 -1.0751
 4822TIP3   OH235956   5.154   1.655  12.336 -0.4687 -0.7123  0.1994
 4822TIP3    H135957   5.226   1.705  12.298 -0.1611 -1.0199  0.3857
 4822TIP3    H235958   5.132   1.590  12.270 -1.0357 -0.1804 -0.1504
 4823TIP3   OH235959   2.839   5.686  14.618  0.7030  0.2846 -0.2379
 4823TIP3    H135960   2.786   5.754  14.575  0.1004 -0.6083 -0.9123
 4823TIP3    H235961   2.795   5.604  14.597  1.8789 -0.3942 -0.0914
 4824TIP3   OH235962   2.501   1.518  15.672 -0.1775  0.4123  0.4586
 4824TIP3    H135963   2.489   1.506  15.766  0.3318  1.3255  0.6457
 4824TIP3    H235964   2.449   1.595  15.650 -1.5963 -0.7333 -0.3165
 4825TIP3   OH235965   5.081   2.351  11.357  0.0862  0.2568 -0.2024
 4825TIP3    H135966   5.154   2.390  11.404 -0.1962 -0.2615  0.6647
 4825TIP3    H235967   5.024   2.425  11.335  0.0237  0.4434  0.6044
 4826TIP3   OH235968   1.918   3.514   2.285 -0.3366 -0.0315 -0.3815
 4826TIP3    H135969   1.835   3.548   2.319  0.0965 -0.1096  0.8009
 4826TIP3    H235970   1.893   3.450   2.219 -1.1878  1.3815 -1.4438
 4827TIP3   OH235971   6.708   2.215  13.007  0.5274  0.1242 -0.1079
 4827TIP3    H135972   6.764   2.263  12.947  0.0541 -1.8728 -2.2196
 4827TIP3    H235973   6.692   2.131  12.963 -2.0144 -0.3448  1.6126
 4828TIP3   OH235974   2.789   0.439   4.540  0.0164 -0.5115  0.1591
 4828TIP3    H135975   2.780   0.348   4.513  2.7597 -0.4187 -1.3156
 4828TIP3    H235976   2.854   0.437   4.610 -1.9184  0.0390  2.0080
 4829TIP3   OH235977   3.531   1.152  12.033  0.1664 -0.2478 -0.3732
 4829TIP3    H135978   3.556   1.227  11.979 -0.9822  0.7106  0.3911
 4829TIP3    H235979   3.475   1.190  12.101 -0.6763 -1.8432 -0.1600
 4830TIP3   OH235980   1.143   0.362  16.978  0.0083  0.7467  0.2140
 4830TIP3    H135981   1.065   0.354  17.032  0.2946 -0.3543  0.4673
 4830TIP3    H235982   1.198   0.288  17.003  1.0214  1.3623 -0.1494
 4831TIP3   OH235983   5.101   4.420   6.080 -0.5164  0.1380 -0.2851
 4831TIP3    H135984   5.108   4.337   6.126  0.0615  0.5295  0.3358
 4831TIP3    H235985   5.030   4.466   6.123 -1.1363 -0.2185 -0.9230
 4832TIP3   OH235986   3.438   3.592  17.019 -0.2039 -0.2369 -0.5327
 4832TIP3    H135987   3.497   3.572  17.092 -0.6239 -1.0733 -0.4126
 4832TIP3    H235988   3.494   3.588  16.941  0.0375 -0.3473 -0.3544
 4833TIP3   OH235989   2.706   0.137  14.977  0.0068 -0.5379 -0.2277
 4833TIP3    H135990   2.731   0.049  14.951  0.6107 -0.7311  0.9823
 4833TIP3    H235991   2.643   0.124  15.048 -1.0724 -0.0139 -1.0780
 4834TIP3   OH235992   2.091   2.893   5.353 -0.4251 -0.7691 -0.4402
 4834TIP3    H135993   2.160   2.899   5.419 -0.6613 -2.1441 -0.0460
 4834TIP3    H235994   2.129   2.932   5.274 -0.0456  0.6356  0.4117
 4835TIP3   OH235995   3.344   3.733   3.892  0.2538  0.4833 -0.7988
 4835TIP3    H135996   3.358   3.825   3.915  1.2991  0.2714 -0.5613
 4835TIP3    H235997   3.429   3.691   3.906 -0.5850 -0.8319  0.6025
 4836TIP3   OH235998   0.526   4.586   1.390 -0.3071 -0.7534 -0.0068
 4836TIP3    H135999   0.482   4.538   1.320 -0.5468  2.1445 -1.9442
 4836TIP3    H236000   0.458   4.601   1.456 -0.7952 -1.0952 -0.4311
 4837TIP3   OH236001   5.614   4.963   1.128  0.3634 -0.4693  0.3608
 4837TIP3    H136002   5.659   4.953   1.044  0.8709  0.7100  0.4870
 4837TIP3    H236003   5.522   4.977   1.103  0.5277 -0.0135 -0.0106
 4838TIP3   OH236004   5.209   3.796  16.893  0.6247 -0.1656  0.7404
 4838TIP3    H136005   5.257   3.849  16.829 -0.0169 -0.5449 -0.0726
 4838TIP3    H236006   5.172   3.860  16.954 -1.5104  0.4922 -1.1687
 4839TIP3   OH236007   2.916   2.737   4.552 -0.4165 -0.4197  0.4616
 4839TIP3    H136008   2.851   2.796   4.514  0.2893  0.5870  0.8181
 4839TIP3    H236009   2.869   2.654   4.564 -1.8875  0.5590  1.5716
 4840TIP3   OH236010   1.483   1.151   1.891 -0.0902 -0.8826 -0.1413
 4840TIP3    H136011   1.562   1.111   1.855 -0.2270 -1.1187 -0.1860
 4840TIP3    H236012   1.412   1.097   1.856 -0.3009 -0.3834 -0.4927
 4841TIP3   OH236013   0.724   6.066  11.901 -0.4824  0.3080 -0.4863
 4841TIP3    H136014   0.802   6.070  11.846  1.1755 -1.7501  1.5868
 4841TIP3    H236015   0.731   6.143  11.958  1.4157 -1.1883  1.3757
 4842TIP3   OH236016   1.384   1.797  15.379  0.1775 -0.2030 -0.1017
 4842TIP3    H136017   1.317   1.729  15.386  0.7739 -0.7520  0.3450
 4842TIP3    H236018   1.465   1.755  15.409  0.8533  0.2605 -1.2566
 4843TIP3   OH236019   5.264   5.843   2.223 -0.3811  0.3627  0.0899
 4843TIP3    H136020   5.176   5.877   2.213 -0.0780  1.3491  0.6617
 4843TIP3    H236021   5.303   5.849   2.136 -1.0875 -0.6949 -0.3036
 4844TIP3   OH236022   0.198   6.357  12.006  0.2829 -0.1463 -0.4431
 4844TIP3    H136023   0.189   6.369  11.912 -2.1669  0.3325 -0.1883
 4844TIP3    H236024   0.197   6.263  12.020  0.7183 -0.2169 -0.8915
 4845TIP3   OH236025   5.133   0.294   0.532 -0.6169  0.3190 -0.3112
 4845TIP3    H136026   5.215   0.248   0.514 -1.3425 -0.4470 -1.7967
 4845TIP3    H236027   5.135   0.313   0.626  2.1509  2.0755 -0.6888
 4846TIP3   OH236028   5.740   1.117   5.301 -0.2105  0.2791 -0.4725
 4846TIP3    H136029   5.759   1.026   5.323  0.7600  0.4680 -0.4936
 4846TIP3    H236030   5.713   1.115   5.209  1.6904  0.2481 -1.0408
 4847TIP3   OH236031   5.208   3.155  15.152  0.2902  0.2139  0.4888
 4847TIP3    H136032   5.280   3.156  15.088  0.6364 -0.6019  0.8576
 4847TIP3    H236033   5.238   3.212  15.223  0.3855  0.2178  0.4459
 4848TIP3   OH236034   0.680   2.865  11.616 -0.0990 -0.1317 -0.2735
 4848TIP3    H136035   0.608   2.861  11.680 -0.7062 -1.9713 -1.0548
 4848TIP3    H236036   0.637   2.879  11.532  0.5100 -0.4076 -0.6358
 4849TIP3   OH236037   6.160   5.228   0.121 -0.5080 -0.2228 -0.0094
 4849TIP3    H136038   6.223   5.296   0.144  0.9650 -1.5754  0.0029
 4849TIP3    H236039   6.112   5.212   0.202 -0.4190  0.3295  0.1574
 4850TIP3   OH236040   4.505   0.510  15.592  0.2285 -0.6288 -0.4285
 4850TIP3    H136041   4.529   0.602  15.579 -2.4229 -0.0810 -1.7743
 4850TIP3    H236042   4.454   0.487  15.515  0.2060 -3.0240  0.2628
 4851TIP3   OH236043   5.606   3.804   3.705 -0.4866  0.2492 -0.8041
 4851TIP3    H136044   5.623   3.710   3.701  1.1632  0.5807 -1.9658
 4851TIP3    H236045   5.661   3.835   3.777 -1.0584  0.3276 -0.3975
 4852TIP3   OH236046   3.705   3.202   1.372 -0.3543  0.5926 -0.3273
 4852TIP3    H136047   3.766   3.250   1.428 -0.7411  0.7303 -0.0225
 4852TIP3    H236048   3.650   3.152   1.432  0.1871 -0.4130 -0.6489
 4853TIP3   OH236049   4.218   5.730  11.639 -0.2699  0.0974 -0.1752
 4853TIP3    H136050   4.166   5.681  11.575 -0.1706  0.9967 -0.9471
 4853TIP3    H236051   4.273   5.788  11.587  1.6707 -0.9738  0.6313
 4854TIP3   OH236052   3.114   4.531  10.217 -0.4076  0.3724 -0.5470
 4854TIP3    H136053   3.038   4.490  10.258 -0.6115  1.1715 -0.1088
 4854TIP3    H236054   3.158   4.460  10.170 -0.4093 -0.4585  0.7016
 4855TIP3   OH236055   3.285   2.691  11.457 -0.4281  0.1608  0.3813
 4855TIP3    H136056   3.264   2.734  11.374  2.0414  0.1983 -0.2643
 4855TIP3    H236057   3.296   2.764  11.518  0.2572  0.2634  0.1359
 4856TIP3   OH236058   6.184   6.693   5.549  0.2570  0.1142 -0.2412
 4856TIP3    H136059   6.275   6.689   5.576  0.0149 -1.2072  0.4510
 4856TIP3    H236060   6.150   6.606   5.568 -1.1458  0.5942 -0.4848
 4857TIP3   OH236061   4.475   3.667   4.876  0.3490  0.5126  0.9467
 4857TIP3    H136062   4.494   3.753   4.839  0.1895  0.6633  1.2210
 4857TIP3    H236063   4.486   3.607   4.802  0.2016  0.7971  0.6942
 4858TIP3   OH236064   2.745   1.371   4.439 -0.5589 -0.2610  0.0480
 4858TIP3    H136065   2.694   1.298   4.406 -2.0012  0.6392  0.2406
 4858TIP3    H236066   2.704   1.394   4.523  2.1789 -1.6225  1.8558
 4859TIP3   OH236067   3.889   4.872   3.599 -0.7591 -0.2480 -0.3270
 4859TIP3    H136068   3.923   4.934   3.535  0.7608  1.2460  1.8509
 4859TIP3    H236069   3.811   4.834   3.558 -2.3628  3.8696 -1.3266
 4860TIP3   OH236070   0.709   0.902   4.153  0.7379  0.1032  0.1301
 4860TIP3    H136071   0.759   0.824   4.127 -1.3003 -1.5573  1.0764
 4860TIP3    H236072   0.696   0.893   4.247 -3.0190 -0.5453 -0.3811
 4861TIP3   OH236073   6.305   2.476  11.387 -0.2192 -0.2659  0.2367
 4861TIP3    H136074   6.298   2.417  11.462 -0.6344 -2.5866 -1.5868
 4861TIP3    H236075   6.250   2.436  11.320 -0.5758  2.2530 -1.0240
 4862TIP3   OH236076   4.307   3.582   4.240  0.2803 -0.6672  0.2428
 4862TIP3    H136077   4.371   3.515   4.217  1.9220  0.5264  1.2205
 4862TIP3    H236078   4.335   3.660   4.193 -1.0843 -0.3927 -0.1533
 4863TIP3   OH236079   2.724   5.191  10.770 -0.3676 -0.0499 -0.1717
 4863TIP3    H136080   2.792   5.167  10.833 -0.9692 -1.7922 -0.1684
 4863TIP3    H236081   2.771   5.240  10.702  0.6560 -0.0958  0.4839
 4864TIP3   OH236082   2.837   6.189  12.151  0.7751 -0.4572  0.3455
 4864TIP3    H136083   2.872   6.199  12.239 -1.1385  1.2218  0.9690
 4864TIP3    H236084   2.880   6.258  12.100 -0.7404  0.8838  0.8447
 4865TIP3   OH236085   1.103   3.870   0.161  0.2965 -0.2424  0.0478
 4865TIP3    H136086   1.056   3.921   0.095 -1.0755 -0.7946  0.5756
 4865TIP3    H236087   1.049   3.877   0.239  0.8573 -1.2851  0.5345
 4866TIP3   OH236088   2.219   6.509   2.205  0.8043 -0.3590 -0.3196
 4866TIP3    H136089   2.260   6.423   2.212  2.0732  0.1777 -0.8861
 4866TIP3    H236090   2.278   6.559   2.147  0.2773  0.9814  0.2705
 4867TIP3   OH236091   1.630   4.832   5.472 -0.3211 -0.2052 -0.8692
 4867TIP3    H136092   1.591   4.746   5.457 -2.0705  0.5643 -0.8510
 4867TIP3    H236093   1.571   4.893   5.427  0.5946  1.0371 -0.4084
 4868TIP3   OH236094   0.955   6.518   2.409 -0.2574  0.1293  0.4786
 4868TIP3    H136095   1.033   6.572   2.419 -1.2706  1.4862  1.2114
 4868TIP3    H236096   0.899   6.567   2.350 -0.3392 -1.0981 -0.4781
 4869TIP3   OH236097   6.356   3.748  16.743  0.1675 -0.7575 -0.4490
 4869TIP3    H136098   6.270   3.744  16.785  0.1176 -1.6231 -0.6253
 4869TIP3    H236099   6.383   3.840  16.752 -0.9240 -0.4084 -0.6899
 4870TIP3   OH236100   0.001   1.096  16.203  0.3437 -0.2618 -0.5175
 4870TIP3    H136101   0.006   1.184  16.240 -0.0678 -0.4019 -0.1077
 4870TIP3    H236102  -0.074   1.099  16.144 -1.1315 -0.9431  1.2451
 4871TIP3   OH236103   3.516   6.338  11.310 -0.5741  0.1175  0.3868
 4871TIP3    H136104   3.441   6.290  11.276 -0.2816 -1.2948  1.7276
 4871TIP3    H236105   3.576   6.345  11.235 -0.8882 -1.0504  0.0264
 4872TIP3   OH236106   5.997   2.655   6.190 -0.1381  0.3499 -0.3176
 4872TIP3    H136107   5.922   2.709   6.165  0.0078  0.8065  0.2278
 4872TIP3    H236108   6.063   2.718   6.220  0.2634 -0.0874 -0.2709
 4873TIP3   OH236109   4.438   4.969  16.307  0.3169  0.0036 -0.6019
 4873TIP3    H136110   4.420   4.911  16.233  1.1667  0.4704 -1.1678
 4873TIP3    H236111   4.366   5.032  16.306 -0.6670 -1.0654  0.0709
 4874TIP3   OH236112   4.620   5.059   6.435  0.3881 -0.3928 -0.2884
 4874TIP3    H136113   4.671   5.140   6.435  1.7741 -1.2135  1.1751
 4874TIP3    H236114   4.684   4.992   6.410 -1.0784 -0.8600 -2.8645
 4875TIP3   OH236115   4.495   3.805   3.828  0.5332 -0.3590 -0.1065
 4875TIP3    H136116   4.582   3.818   3.790  0.4645  3.4498  0.8037
 4875TIP3    H236117   4.441   3.873   3.787 -0.8730  0.2657  2.6872
 4876TIP3   OH236118   4.004   6.423  16.447 -0.5641 -0.6752 -0.3274
 4876TIP3    H136119   4.026   6.502  16.496 -1.3280 -1.4883  1.3713
 4876TIP3    H236120   4.063   6.356  16.481 -0.2894 -0.9755 -1.3796
 4877TIP3   OH236121   0.780   0.525   1.996  0.0513  0.2830  0.3197
 4877TIP3    H136122   0.873   0.541   2.009  0.1825  0.1889 -0.4551
 4877TIP3    H236123   0.745   0.510   2.083  0.4974  1.7410  0.7607
 4878TIP3   OH236124   0.874   2.194   4.770  0.1328 -0.1048 -0.5666
 4878TIP3    H136125   0.930   2.120   4.790 -1.1031 -1.0702 -0.5895
 4878TIP3    H236126   0.825   2.167   4.693 -1.8274 -0.1247  0.6400
 4879TIP3   OH236127   3.939   4.758   3.293 -0.3577  0.1415 -0.1436
 4879TIP3    H136128   3.879   4.831   3.278  0.5991  1.0735  0.5497
 4879TIP3    H236129   4.014   4.797   3.338  1.3305 -0.7921 -2.0860
 4880TIP3   OH236130   4.437   2.161   0.400 -0.2359  0.0623  0.2340
 4880TIP3    H136131   4.463   2.148   0.491 -0.3904  0.8954  0.3938
 4880TIP3    H236132   4.361   2.104   0.389  0.3805 -0.7930  0.3455
 4881TIP3   OH236133   3.007   0.372  13.829 -0.1931  0.0065 -0.7494
 4881TIP3    H136134   3.022   0.438  13.897  1.8376 -0.1370 -1.0261
 4881TIP3    H236135   3.000   0.290  13.877  0.3006  0.0273 -0.6401
 4882TIP3   OH236136   6.547   3.401  15.124 -0.2329 -0.4994 -0.0392
 4882TIP3    H136137   6.517   3.477  15.174 -1.4512 -0.0233 -1.4588
 4882TIP3    H236138   6.640   3.418  15.107 -0.9506  1.7089 -2.0970
 4883TIP3   OH236139   0.319   0.674   0.451 -0.0808  0.2270 -0.0165
 4883TIP3    H136140   0.378   0.615   0.498 -2.5880 -0.9100  1.7751
 4883TIP3    H236141   0.329   0.650   0.359 -1.9811 -3.9245  0.7763
 4884TIP3   OH236142   1.052   1.541  14.820  0.0168  0.4402 -0.4685
 4884TIP3    H136143   1.015   1.494  14.895 -0.3189  0.6737 -0.4881
 4884TIP3    H236144   1.147   1.537  14.835 -0.1127  2.0962  0.9575
 4885TIP3   OH236145   2.166   4.314  11.461 -0.4054 -0.1072 -0.2206
 4885TIP3    H136146   2.074   4.298  11.479 -0.0177 -0.8918  1.1351
 4885TIP3    H236147   2.209   4.230  11.477  0.1495 -0.5921 -3.8164
 4886TIP3   OH236148   5.743   4.041  15.384 -0.5425  0.0490  0.1325
 4886TIP3    H136149   5.776   3.952  15.397  1.8359  1.0478  1.2603
 4886TIP3    H236150   5.711   4.068  15.470 -0.6163  0.5300 -0.0434
 4887TIP3   OH236151   4.089   2.808   3.548 -0.6153  1.1857  0.4208
 4887TIP3    H136152   4.017   2.839   3.494  0.4952 -1.4103 -2.7351
 4887TIP3    H236153   4.074   2.713   3.555  0.9460  1.0386  2.1065
 4888TIP3   OH236154   5.809   1.644  11.561  0.0866  0.4198 -0.1115
 4888TIP3    H136155   5.899   1.625  11.588  0.4336  1.6487 -0.3612
 4888TIP3    H236156   5.788   1.576  11.497  0.8291  0.1168 -0.0370
 4889TIP3   OH236157   2.079   0.808  10.822 -0.1352 -0.1497  0.2171
 4889TIP3    H136158   2.035   0.861  10.889  0.4782 -0.5584  0.9537
 4889TIP3    H236159   2.087   0.867  10.747  0.5792  0.8322  1.0371
 4890TIP3   OH236160   3.182   6.796   4.116  0.2004 -0.8403 -0.3598
 4890TIP3    H136161   3.277   6.796   4.122  0.1832 -2.2433  0.1771
 4890TIP3    H236162   3.156   6.709   4.146 -1.3765  0.2523  1.5865
 4891TIP3   OH236163   6.258   2.253   6.555 -0.0082 -0.6394 -0.4400
 4891TIP3    H136164   6.263   2.177   6.497 -0.6543 -0.5642 -0.5969
 4891TIP3    H236165   6.278   2.328   6.499  1.6662 -0.7807 -0.0648
 4892TIP3   OH236166   2.806   1.754  16.071  0.5659  0.5635  0.1976
 4892TIP3    H136167   2.870   1.785  16.136  2.1257 -0.0187 -1.0061
 4892TIP3    H236168   2.731   1.726  16.123  1.8898 -0.1526  1.7939
 4893TIP3   OH236169   1.883   2.446  13.837 -0.4370 -0.0341  0.0784
 4893TIP3    H136170   1.938   2.372  13.812 -0.0204  0.6545 -1.0862
 4893TIP3    H236171   1.931   2.490  13.906  0.3496  0.4100 -0.7469
 4894TIP3   OH236172   4.416   0.414   1.361 -0.0766  0.5819  0.3159
 4894TIP3    H136173   4.435   0.341   1.420  1.9972  0.9185  0.1355
 4894TIP3    H236174   4.380   0.482   1.417 -0.9589 -0.1812  0.6768
 4895TIP3   OH236175   6.427   3.484   2.947 -0.0041  0.5048 -0.3944
 4895TIP3    H136176   6.463   3.483   2.858  2.0591 -0.0121  0.4056
 4895TIP3    H236177   6.381   3.401   2.955 -1.6154  1.2725 -1.5202
 4896TIP3   OH236178   6.292   1.475   2.101 -0.1474  1.1146  0.1340
 4896TIP3    H136179   6.219   1.452   2.159 -0.1817  0.9973  0.0446
 4896TIP3    H236180   6.284   1.415   2.027  1.9810 -1.1572  1.6689
 4897TIP3   OH236181   0.481   0.087  11.290  0.0574 -0.2693 -0.3512
 4897TIP3    H136182   0.566   0.071  11.250  0.0389 -0.8260 -0.1812
 4897TIP3    H236183   0.490   0.172  11.334  1.3955 -1.5275  1.9127
 4898TIP3   OH236184   5.859   3.169   1.475  0.5555  0.3066 -0.3590
 4898TIP3    H136185   5.894   3.236   1.534  0.9377 -0.5307  0.3822
 4898TIP3    H236186   5.770   3.154   1.505  0.1242  1.2055 -1.1666
 4899TIP3   OH236187   0.719   0.212  11.922  0.4690  0.2411  0.0689
 4899TIP3    H136188   0.655   0.155  11.963  0.7824 -0.2066 -0.0588
 4899TIP3    H236189   0.767   0.155  11.862 -0.5294  1.0450 -1.5351
 4900TIP3   OH236190   2.160   3.581  14.982 -0.2374 -1.0863  0.6219
 4900TIP3    H136191   2.250   3.592  14.952 -0.0396 -0.6126  1.3713
 4900TIP3    H236192   2.166   3.521  15.057 -0.6425 -1.7131  0.1532
 4901TIP3   OH236193   3.917   5.792  11.429  0.3706 -0.7399  0.2713
 4901TIP3    H136194   3.946   5.877  11.396  1.0854 -0.7515  0.8718
 4901TIP3    H236195   3.997   5.742  11.442  0.1914 -0.3389  3.1665
 4902TIP3   OH236196   4.825   5.540  10.920  0.6789  0.3137  0.2496
 4902TIP3    H136197   4.879   5.612  10.889 -1.0848  0.7299 -1.9806
 4902TIP3    H236198   4.882   5.463  10.914  0.3286  0.2644 -4.7032
 4903TIP3   OH236199   2.809   3.824  15.618 -0.0087  0.0276  0.1551
 4903TIP3    H136200   2.851   3.740  15.603  0.5814  0.1607  1.0153
 4903TIP3    H236201   2.780   3.821  15.709  1.1828  1.2478  0.5923
 4904TIP3   OH236202   1.999   4.233   4.036  0.3461 -0.3111 -0.7175
 4904TIP3    H136203   2.009   4.138   4.041  0.4915 -0.2423  0.3403
 4904TIP3    H236204   2.036   4.266   4.117  2.3304  0.8280 -2.0549
 4905TIP3   OH236205   0.157   3.809  13.101  0.1185  0.0229 -0.4697
 4905TIP3    H136206   0.160   3.817  13.197 -0.0411  0.6504 -0.5145
 4905TIP3    H236207   0.204   3.728  13.082 -1.2161 -0.9338  0.2553
 4906TIP3   OH236208   2.591   4.936  11.416  0.2633  0.3197  0.1557
 4906TIP3    H136209   2.604   5.006  11.480 -0.7850 -0.0991  0.8465
 4906TIP3    H236210   2.499   4.942  11.392  0.4817  0.0206 -0.7939
 4907TIP3   OH236211   0.708   3.575  13.350  0.4563 -0.8169  0.5165
 4907TIP3    H136212   0.739   3.578  13.260  0.0264 -0.9392  0.3642
 4907TIP3    H236213   0.621   3.615  13.347  0.4194 -0.8655  0.8678
 4908TIP3   OH236214   6.282   2.533   0.284  0.1632  0.3939  0.4913
 4908TIP3    H136215   6.237   2.449   0.279 -1.7757  1.5075 -1.9343
 4908TIP3    H236216   6.351   2.527   0.218  0.1434  0.6379  0.4476
 4909TIP3   OH236217   2.649   2.765  13.863 -0.2439 -0.2354  0.0367
 4909TIP3    H136218   2.699   2.830  13.913  0.3037 -0.5643 -0.0859
 4909TIP3    H236219   2.570   2.812  13.836  0.3398  0.5093 -0.4120
 4910TIP3   OH236220   1.443   1.427  13.285  0.5659 -0.2739 -0.1073
 4910TIP3    H136221   1.512   1.388  13.231  1.6071  0.4322  0.7078
 4910TIP3    H236222   1.370   1.364  13.279  0.8747 -0.5031 -1.8241
 4911TIP3   OH236223   3.305   1.600  11.192  0.1540  0.6114 -0.4917
 4911TIP3    H136224   3.214   1.628  11.197  0.3468  0.8733  2.1215
 4911TIP3    H236225   3.304   1.526  11.131 -1.6718  1.0347 -1.0120
 4912TIP3   OH236226   6.641   6.630  12.960 -0.1407  0.0427 -0.2315
 4912TIP3    H136227   6.592   6.693  12.908 -0.7087 -0.0289  0.2204
 4912TIP3    H236228   6.697   6.684  13.016 -0.4789  0.1469  0.0101
 4913TIP3   OH236229   0.568   5.687   0.957 -0.1174 -0.3369 -0.4667
 4913TIP3    H136230   0.482   5.713   0.924 -0.0862  0.4281  0.0409
 4913TIP3    H236231   0.624   5.762   0.938  0.2631 -0.5307 -0.1025
 4914TIP3   OH236232   0.664   2.304   3.342  0.1432 -0.8695 -0.4306
 4914TIP3    H136233   0.588   2.282   3.288 -0.3814 -0.1654  0.0105
 4914TIP3    H236234   0.698   2.385   3.303 -1.6855  1.0140  1.7121
 4915TIP3   OH236235   4.497   4.773  16.113  0.0365 -0.3606  0.1120
 4915TIP3    H136236   4.588   4.795  16.135 -0.0564  0.1844 -0.0375
 4915TIP3    H236237   4.504   4.707  16.044  0.3264  1.5256 -1.7161
 4916TIP3   OH236238   2.788   5.221  11.427 -0.4604 -0.0482  0.0827
 4916TIP3    H136239   2.741   5.173  11.495 -2.5749 -0.3017 -1.5217
 4916TIP3    H236240   2.736   5.300  11.414  0.0330  0.0839 -1.1157
 4917TIP3   OH236241   5.662   1.747  13.195 -0.1729  0.4764  0.1023
 4917TIP3    H136242   5.698   1.664  13.165 -0.0736  0.5257  0.0827
 4917TIP3    H236243   5.567   1.733  13.197 -0.4424  1.4150 -3.1433
 4918TIP3   OH236244   1.320   0.267  12.016 -0.1580 -0.1946  0.0542
 4918TIP3    H136245   1.234   0.256  11.975  1.1242 -1.0670 -2.5321
 4918TIP3    H236246   1.304   0.322  12.092 -2.8245  0.6688 -1.0912
 4919TIP3   OH236247   3.231   3.315   0.406 -0.4119  0.1517 -0.4570
 4919TIP3    H136248   3.204   3.240   0.353 -0.8188 -0.1683  0.1920
 4919TIP3    H236249   3.294   3.362   0.351  0.1504 -0.8865 -0.6977
 4920TIP3   OH236250   6.585   5.359   4.672  0.1143 -0.1521  0.0234
 4920TIP3    H136251   6.580   5.455   4.670  0.3439  0.0119  3.4900
 4920TIP3    H236252   6.672   5.340   4.709  0.1612 -1.7117 -0.8358
 4921TIP3   OH236253   1.769   2.180   4.329 -0.0533 -0.6792  0.2473
 4921TIP3    H136254   1.864   2.187   4.320 -0.3019  1.9837 -0.8677
 4921TIP3    H236255   1.742   2.116   4.263  0.7645  0.0151 -0.7596
 4922TIP3   OH236256   2.890   3.274   6.200  0.6143  0.1189  0.0583
 4922TIP3    H136257   2.935   3.226   6.270  0.5795 -0.8014 -0.5429
 4922TIP3    H236258   2.959   3.328   6.161  1.4181 -1.8620 -1.3633
 4923TIP3   OH236259   5.669   1.158   3.870 -0.1374  0.0671  0.1425
 4923TIP3    H136260   5.742   1.102   3.846 -1.3270 -1.7364  0.5876
 4923TIP3    H236261   5.638   1.122   3.954 -2.2789  0.0179 -0.6282
 4924TIP3   OH236262   3.738   5.457   3.148  0.5373 -0.1988 -0.1019
 4924TIP3    H136263   3.809   5.396   3.167  1.5923  1.1600  0.3367
 4924TIP3    H236264   3.781   5.538   3.122 -0.8017  1.2254  1.9675
 4925TIP3   OH236265   6.126   3.612   5.336  0.3131  0.4936  0.6596
 4925TIP3    H136266   6.200   3.553   5.351 -1.0356 -1.2938  0.3736
 4925TIP3    H236267   6.150   3.660   5.257  1.7877  0.9567  1.3615
 4926TIP3   OH236268   2.630   3.468   0.930 -0.0405 -0.1102  0.1363
 4926TIP3    H136269   2.704   3.520   0.963  1.5425 -2.3701  0.2725
 4926TIP3    H236270   2.608   3.508   0.846  0.5220  1.3728  0.6867
 4927TIP3   OH236271   2.685   4.545   3.815 -0.1060  0.1333 -0.2507
 4927TIP3    H136272   2.603   4.543   3.865  0.4270  0.2082  0.6390
 4927TIP3    H236273   2.686   4.462   3.767 -0.9576  0.3691 -0.6803
 4928TIP3   OH236274   0.370   3.562   2.772  0.4292 -0.3999 -0.3519
 4928TIP3    H136275   0.451   3.603   2.743 -0.3072  1.2287 -0.1559
 4928TIP3    H236276   0.398   3.495   2.834  1.7522 -1.2301 -1.8078
 4929TIP3   OH236277   2.051   0.344   2.738  0.4326 -0.4369  0.3278
 4929TIP3    H136278   2.018   0.293   2.664  1.2647 -1.2863  0.5321
 4929TIP3    H236279   2.141   0.366   2.714  0.3772  0.1408  0.6476
 4930TIP3   OH236280   0.767   2.461   0.976  0.5491 -0.0166  0.1913
 4930TIP3    H136281   0.855   2.424   0.983  0.3729 -0.8425 -1.5288
 4930TIP3    H236282   0.713   2.408   1.034  0.8561 -0.6124 -0.0715
 4931TIP3   OH236283   6.232   0.369   0.183 -0.2822  0.4853 -0.0728
 4931TIP3    H136284   6.265   0.333   0.101 -0.6524  0.0049 -0.0099
 4931TIP3    H236285   6.245   0.299   0.247 -0.0971  0.8182  0.2560
 4932TIP3   OH236286   4.207   0.231   2.556  0.0601  0.7852 -0.1991
 4932TIP3    H136287   4.285   0.238   2.612  1.0008  1.8553 -1.6024
 4932TIP3    H236288   4.207   0.313   2.506 -0.6897 -0.2235 -1.8651
 4933TIP3   OH236289   5.937   3.830   1.478  0.4734 -0.0677  0.7494
 4933TIP3    H136290   6.010   3.875   1.434  0.5085 -1.4568 -0.6345
 4933TIP3    H236291   5.859   3.859   1.431  0.2115  0.7154  1.6564
 4934TIP3   OH236292   0.976   4.818  11.490  0.1625 -0.1231  0.0643
 4934TIP3    H136293   1.057   4.860  11.461  0.1919 -0.0199  0.2929
 4934TIP3    H236294   0.966   4.742  11.434  0.3376 -0.0491 -0.0655
 4935TIP3   OH236295   5.151   5.917   0.314 -0.2474  0.6347 -0.3069
 4935TIP3    H136296   5.241   5.910   0.346  0.0242 -0.7571 -1.3287
 4935TIP3    H236297   5.096   5.907   0.392  0.3863 -3.1387 -0.2488
 4936TIP3   OH236298   5.151   2.469   0.481  0.2931  0.3255  0.0927
 4936TIP3    H136299   5.078   2.511   0.527  1.8370  3.0628  0.1160
 4936TIP3    H236300   5.138   2.494   0.389  0.8016  0.2006 -0.0125
 4937TIP3   OH236301   4.580   3.804   2.391  0.2156 -0.5999 -0.0572
 4937TIP3    H136302   4.493   3.802   2.351 -0.1485 -0.4237  0.7204
 4937TIP3    H236303   4.583   3.728   2.448 -0.0051  0.2515  1.1048
 4938TIP3   OH236304   1.049   5.924  12.034  0.6302 -0.6665  0.4100
 4938TIP3    H136305   1.018   6.014  12.044 -0.1069 -0.5939 -2.1129
 4938TIP3    H236306   0.981   5.871  12.075 -0.7274 -0.2407 -1.2079
 4939TIP3   OH236307   1.199   2.542   5.639  0.0988 -0.4938  0.0291
 4939TIP3    H136308   1.272   2.603   5.632 -0.2955 -0.1324 -0.8473
 4939TIP3    H236309   1.170   2.528   5.550  1.2997 -3.3272  0.0054
 4940TIP3   OH236310   2.351   0.663   3.533 -0.1243 -0.2174 -0.3769
 4940TIP3    H136311   2.313   0.711   3.606 -0.0288 -0.1984 -0.3395
 4940TIP3    H236312   2.318   0.573   3.542 -0.6084 -0.0723 -0.6622
 4941TIP3   OH236313   4.257   1.798  13.592  0.2617  0.1002  0.0327
 4941TIP3    H136314   4.204   1.787  13.671 -0.0946 -1.3847 -0.4004
 4941TIP3    H236315   4.234   1.886  13.561 -3.0857 -1.0266 -0.9464
 4942TIP3   OH236316   3.076   2.094   2.007  0.5625 -0.1033  0.1875
 4942TIP3    H136317   3.158   2.111   2.053  1.2714  1.0187 -1.4206
 4942TIP3    H236318   3.025   2.174   2.018  0.5326 -0.0207 -0.5419
 4943TIP3   OH236319   6.018   6.329   2.060 -0.3731 -0.0254 -0.1966
 4943TIP3    H136320   6.087   6.322   2.125 -0.1428  0.2240 -0.4131
 4943TIP3    H236321   5.974   6.412   2.080  0.4071  0.6045 -1.0409
 4944TIP3   OH236322   5.122   4.570  17.221  0.4026 -0.0558 -0.5119
 4944TIP3    H136323   5.204   4.603  17.183  0.2243  0.5006 -0.4287
 4944TIP3    H236324   5.144   4.548  17.311  0.7974 -1.2586 -0.8967
 4945TIP3   OH236325   4.095   3.352  17.194 -0.4069 -0.1388  0.3931
 4945TIP3    H136326   4.035   3.322  17.125  1.5100 -0.9830 -0.9836
 4945TIP3    H236327   4.052   3.428  17.232 -1.7150  0.1005 -1.4628
 4946TIP3   OH236328   1.496   2.979   2.335 -0.3251  0.2624  0.0840
 4946TIP3    H136329   1.497   3.003   2.427 -0.2800  1.7036 -0.2846
 4946TIP3    H236330   1.547   2.898   2.331  1.5609  1.3824  1.0030
 4947TIP3   OH236331   3.811   5.084  16.184  0.0958  0.1922  0.5947
 4947TIP3    H136332   3.776   5.173  16.197  0.0939  0.3226 -0.2849
 4947TIP3    H236333   3.740   5.036  16.142  0.3644 -0.0254  0.3938
 4948TIP3   OH236334   1.332   0.473   2.962 -0.3084 -0.7310  0.4391
 4948TIP3    H136335   1.409   0.527   2.979 -1.6462  1.4392 -0.2952
 4948TIP3    H236336   1.366   0.399   2.912  1.3095  0.2092  0.0945
 4949TIP3   OH236337   1.695   3.303  15.763 -0.7077 -0.5021  0.1256
 4949TIP3    H136338   1.739   3.256  15.835  0.6205  0.8218  0.1891
 4949TIP3    H236339   1.759   3.303  15.692 -0.8103  0.9736  0.0312
 4950TIP3   OH236340   4.946   6.493  10.807  0.2604  0.1698  0.0011
 4950TIP3    H136341   4.969   6.465  10.895 -1.3856 -0.2132  0.3240
 4950TIP3    H236342   4.949   6.413  10.754  1.0047  0.3557 -0.2386
 4951TIP3   OH236343   5.173   2.462   5.612 -0.4903  0.5446 -0.0132
 4951TIP3    H136344   5.103   2.488   5.552  0.4838  0.2453 -1.2847
 4951TIP3    H236345   5.234   2.535   5.612  0.2766 -0.0926 -0.5624
 4952TIP3   OH236346   4.852   3.240   5.560  0.2095  0.3566  0.6751
 4952TIP3    H136347   4.934   3.287   5.547 -0.3162  0.8037 -1.1754
 4952TIP3    H236348   4.814   3.280   5.638  0.7781  1.5626  0.3569
 4953TIP3   OH236349   3.499   0.389   0.181  0.0865 -0.3794 -0.2419
 4953TIP3    H136350   3.422   0.334   0.167  0.2667 -0.9565  0.9331
 4953TIP3    H236351   3.559   0.334   0.231 -0.2549  1.2741  2.0925
 4954TIP3   OH236352   2.998   6.491   4.931  1.0762  0.0252 -0.0039
 4954TIP3    H136353   2.922   6.543   4.905  0.6547 -0.6426 -0.1119
 4954TIP3    H236354   3.067   6.518   4.871  0.1575 -1.4108 -1.7563
 4955TIP3   OH236355   0.936   5.473  12.462 -0.1074  0.1405  0.0995
 4955TIP3    H136356   0.963   5.381  12.461 -1.7804 -0.3466 -0.8765
 4955TIP3    H236357   1.018   5.521  12.451  0.6047 -1.2782 -0.9960
 4956TIP3   OH236358   4.688   1.379  15.995 -0.0860 -0.5601 -0.1824
 4956TIP3    H136359   4.662   1.353  16.084 -0.2106 -2.8561 -0.8693
 4956TIP3    H236360   4.697   1.297  15.947 -1.0529  0.6965 -2.6056
 4957TIP3   OH236361   5.580   6.236   5.550 -0.3017  0.1973 -0.5042
 4957TIP3    H136362   5.543   6.320   5.523  0.8516  0.5630 -0.9933
 4957TIP3    H236363   5.531   6.171   5.500 -2.0217  0.4900  0.7758
 4958TIP3   OH236364   4.901   5.388   2.639 -0.0347  0.3007 -0.0804
 4958TIP3    H136365   4.832   5.322   2.634 -1.1193  1.4424 -0.3572
 4958TIP3    H236366   4.963   5.363   2.570 -0.7869 -0.0344 -0.6360
 4959TIP3   OH236367   2.648   6.343   2.278 -0.4757  0.0133  0.0995
 4959TIP3    H136368   2.616   6.408   2.216 -0.5365 -0.8210 -0.7448
 4959TIP3    H236369   2.706   6.392   2.337 -0.8236  0.9000 -0.2981
 4960TIP3   OH236370   2.715   1.434  13.703  0.1132  0.4141 -0.2295
 4960TIP3    H136371   2.699   1.513  13.651 -1.3215  1.4381  1.7316
 4960TIP3    H236372   2.643   1.375  13.679 -0.7834  1.0454  0.8908
 4961TIP3   OH236373   1.439   3.415   3.489  0.3172 -0.9798  0.1923
 4961TIP3    H136374   1.353   3.429   3.528  1.4443  0.8365  2.0995
 4961TIP3    H236375   1.480   3.350   3.545  0.6300 -0.9873 -0.0464
 4962TIP3   OH236376   0.023   0.200   1.277  0.6066 -0.4516  0.4860
 4962TIP3    H136377  -0.061   0.203   1.231  0.0444  1.3446  1.5351
 4962TIP3    H236378   0.069   0.124   1.241 -1.7650 -1.8845  0.4011
 4963TIP3   OH236379   0.027   6.463   1.831 -1.0872 -0.4088  0.1748
 4963TIP3    H136380  -0.045   6.525   1.816 -2.0176 -1.9506 -1.9810
 4963TIP3    H236381   0.009   6.390   1.771  2.8772 -0.3008 -1.3246
 4964TIP3   OH236382   1.846   5.442  15.898  0.7215 -0.8160 -0.0536
 4964TIP3    H136383   1.822   5.470  15.810  0.1229 -2.1384 -0.3201
 4964TIP3    H236384   1.768   5.459  15.951  1.0365 -0.1405  0.1925
 4965TIP3   OH236385   5.549   5.171  13.739 -0.2622  0.6437 -0.3282
 4965TIP3    H136386   5.490   5.163  13.814 -1.2476  1.0195 -1.0561
 4965TIP3    H236387   5.502   5.129  13.667 -0.6033  2.8132 -1.4358
 4966TIP3   OH236388   6.750   5.024   4.625  0.1414  0.0057  0.3933
 4966TIP3    H136389   6.714   5.040   4.712  0.9695 -0.5920  0.8526
 4966TIP3    H236390   6.799   5.103   4.604  0.9495 -0.3298  0.9889
 4967TIP3   OH236391   6.287   4.678   4.368 -0.1821  0.2547  0.1331
 4967TIP3    H136392   6.370   4.717   4.395  0.4910 -0.5431 -0.7770
 4967TIP3    H236393   6.261   4.623   4.441  1.0074 -0.9143 -0.3181
 4968TIP3   OH236394   5.768   2.059  15.270  0.1205  0.0401  0.4270
 4968TIP3    H136395   5.843   2.087  15.218 -1.5606  0.9957 -1.5966
 4968TIP3    H236396   5.798   1.981  15.316  2.2221  0.1876 -0.6314
 4969TIP3   OH236397   6.289   0.938  12.675  0.4759  0.0628  0.9716
 4969TIP3    H136398   6.339   0.859  12.653  0.4160  0.1749  0.4093
 4969TIP3    H236399   6.309   0.999  12.604 -2.1179 -0.6283 -0.4348
 4970TIP3   OH236400   4.160   5.023   0.914  0.7265  0.5328 -0.0966
 4970TIP3    H136401   4.206   5.074   0.847  0.3203  0.8865 -0.1123
 4970TIP3    H236402   4.075   5.066   0.922  0.1151 -0.5794 -0.6037
 4971TIP3   OH236403   3.088   3.601   2.147 -0.2677 -0.1126 -0.6761
 4971TIP3    H136404   3.140   3.658   2.203  1.1948 -2.6238  0.6434
 4971TIP3    H236405   3.016   3.572   2.202  0.6794 -1.8752 -0.2878
 4972TIP3   OH236406   5.907   2.766   2.560 -0.1325 -0.0157  0.3224
 4972TIP3    H136407   5.836   2.823   2.530  0.1784  1.0743  1.6081
 4972TIP3    H236408   5.916   2.701   2.491 -2.5987 -0.3748  0.2716
 4973TIP3   OH236409   4.791   0.059  12.090  0.7083  0.3211 -0.3905
 4973TIP3    H136410   4.710   0.016  12.115  0.8833  0.5375  0.5501
 4973TIP3    H236411   4.840  -0.007  12.041 -0.4146  0.4638 -1.7517
 4974TIP3   OH236412   0.023   4.209   3.910 -0.2045  0.6173  1.1758
 4974TIP3    H136413   0.044   4.208   3.817 -1.9583  0.9311  0.7605
 4974TIP3    H236414  -0.066   4.173   3.915  0.1798 -0.1721  2.8117
 4975TIP3   OH236415   1.994   3.526  13.177 -0.0054 -0.3879 -0.0226
 4975TIP3    H136416   2.034   3.574  13.249 -0.2752  0.5233 -0.4779
 4975TIP3    H236417   1.937   3.462  13.220  0.4880 -0.4256  0.5854
 4976TIP3   OH236418   3.676   1.190   2.305  0.0075 -0.0551  0.0641
 4976TIP3    H136419   3.771   1.179   2.298  0.0611  0.4679 -0.0322
 4976TIP3    H236420   3.640   1.119   2.251  0.3586  0.5651 -0.9944
 4977TIP3   OH236421   0.980   0.389   3.821  0.2580 -0.3837 -0.2417
 4977TIP3    H136422   1.075   0.382   3.834  0.3302 -0.6497 -0.9294
 4977TIP3    H236423   0.945   0.390   3.910  0.9882  0.9691  0.0512
 4978TIP3   OH236424   1.134   6.147  14.598  0.2599  0.3063  0.2162
 4978TIP3    H136425   1.075   6.072  14.603  0.0340  0.4024 -0.9975
 4978TIP3    H236426   1.210   6.122  14.651 -0.2923 -0.3380  0.7094
 4979TIP3   OH236427   5.987   3.176  14.463  0.0452  0.0007  0.5891
 4979TIP3    H136428   6.074   3.147  14.491 -0.1266 -1.4801 -0.3461
 4979TIP3    H236429   6.002   3.217  14.377 -0.4373 -2.0096 -0.4727
 4980TIP3   OH236430   2.526   4.783   2.267 -0.0648 -0.1780 -0.9569
 4980TIP3    H136431   2.559   4.864   2.229 -1.2331  0.5625 -0.4319
 4980TIP3    H236432   2.518   4.723   2.193  1.4417 -0.0369 -1.2413
 4981TIP3   OH236433   6.816   1.930  14.702 -0.2987  0.0202 -0.0713
 4981TIP3    H136434   6.765   1.952  14.779 -0.7540  1.1623 -0.6849
 4981TIP3    H236435   6.754   1.889  14.642 -0.0761 -0.3364 -0.0588
 4982TIP3   OH236436   2.984   3.227  12.864 -0.0547  0.0227  0.4470
 4982TIP3    H136437   3.032   3.183  12.934 -0.9401  0.2581  1.2012
 4982TIP3    H236438   3.048   3.288  12.827  0.8989 -1.2255 -0.0030
 4983TIP3   OH236439   4.951   4.784   0.168 -0.2107  0.1649 -0.3202
 4983TIP3    H136440   5.033   4.834   0.163  0.9503 -1.6093  0.4485
 4983TIP3    H236441   4.967   4.708   0.112 -1.1648 -0.4394  0.2313
 4984TIP3   OH236442   5.869   5.532  12.957 -0.3842 -0.1414  0.6122
 4984TIP3    H136443   5.919   5.454  12.932  2.1700  1.2854  1.0738
 4984TIP3    H236444   5.934   5.603  12.958 -2.3499  1.7131  1.6754
 4985TIP3   OH236445   6.575   0.794   1.937  0.5764  0.2207  0.1231
 4985TIP3    H136446   6.527   0.713   1.919  4.0693 -1.5897 -1.5237
 4985TIP3    H236447   6.557   0.849   1.861 -1.3300  0.8265  0.9715
 4986TIP3   OH236448   0.857   4.434   2.700 -0.3700 -0.0754  0.2006
 4986TIP3    H136449   0.801   4.510   2.718 -1.3170 -0.5767 -0.5915
 4986TIP3    H236450   0.888   4.406   2.786 -1.7329 -0.0919  0.6886
 4987TIP3   OH236451   6.393   2.059  16.761 -0.6245  0.2724 -0.6049
 4987TIP3    H136452   6.455   2.055  16.688  0.3246  0.2010  0.2059
 4987TIP3    H236453   6.407   2.146  16.799 -1.5181  0.5324 -0.8409
 4988TIP3   OH236454   1.657   2.191   5.665  0.4029 -0.6173 -0.1271
 4988TIP3    H136455   1.569   2.229   5.666  0.1860 -1.0260 -2.1477
 4988TIP3    H236456   1.705   2.242   5.730 -0.8065  0.8915 -0.3771
 4989TIP3   OH236457   5.509   0.100  16.466 -0.3378  0.3940  0.2695
 4989TIP3    H136458   5.499   0.006  16.453 -1.4576  0.4733  0.5745
 4989TIP3    H236459   5.564   0.128  16.393  1.5196 -0.7825  1.1386
 4990TIP3   OH236460   4.764   6.563   4.086  0.4023  0.4188  0.3166
 4990TIP3    H136461   4.834   6.625   4.070  1.6508 -0.9955  0.1640
 4990TIP3    H236462   4.693   6.592   4.030  1.4688  0.8779 -0.8166
 4991TIP3   OH236463   2.500   1.179  12.638  0.3534 -0.0759  0.0598
 4991TIP3    H136464   2.474   1.123  12.711 -1.5099 -0.2962 -0.7482
 4991TIP3    H236465   2.417   1.206  12.598  1.3676 -0.4471 -2.3486
 4992TIP3   OH236466   1.148   0.129  12.807  0.2458  0.1933  0.2830
 4992TIP3    H136467   1.116   0.128  12.717  0.2261  2.2959  0.2430
 4992TIP3    H236468   1.084   0.182  12.854  1.4394  0.9407  1.0681
 4993TIP3   OH236469   1.363   3.191  11.304  0.1275  0.5064 -0.3925
 4993TIP3    H136470   1.356   3.168  11.212 -1.4792  0.6585 -0.3339
 4993TIP3    H236471   1.401   3.114  11.346  0.1070  0.1337 -1.0625
 4994TIP3   OH236472   1.217   3.071  12.092 -0.6275  0.0223  1.0202
 4994TIP3    H136473   1.311   3.058  12.101 -0.6349  0.4715  1.8452
 4994TIP3    H236474   1.185   2.990  12.052  0.0945 -0.1687  0.8312
 4995TIP3   OH236475   0.176   4.107  16.408  0.5558  0.1076  0.1265
 4995TIP3    H136476   0.251   4.128  16.463  0.5220 -0.2222  0.2994
 4995TIP3    H236477   0.211   4.050  16.340  0.9464  1.9167 -1.2182
 4996TIP3   OH236478   3.709   5.368  16.269  0.4236 -0.2944  0.3499
 4996TIP3    H136479   3.621   5.397  16.247  0.8037  1.2741  0.8534
 4996TIP3    H236480   3.764   5.401  16.197  0.8639  0.2952  0.9498
 4997TIP3   OH236481   4.815   1.825   5.392  0.1378  0.5219 -0.6248
 4997TIP3    H136482   4.803   1.743   5.440  0.5876  0.5876 -0.3990
 4997TIP3    H236483   4.883   1.806   5.327  0.8376  0.9391 -0.0297
 4998TIP3   OH236484   1.472   2.889   0.769 -0.0081 -0.2095  0.2176
 4998TIP3    H136485   1.409   2.881   0.841 -0.4039  1.3451  0.0780
 4998TIP3    H236486   1.450   2.973   0.728  0.9162 -0.5685 -1.0445
 4999TIP3   OH236487   2.868   0.367   1.896  0.3424  0.1354  0.2455
 4999TIP3    H136488   2.833   0.344   1.810 -0.0303 -0.3711  0.5342
 4999TIP3    H236489   2.945   0.311   1.906  2.2580  2.4218 -1.1101
 5000TIP3   OH236490   2.384   3.925  11.107 -0.3689 -0.5152 -0.0717
 5000TIP3    H136491   2.416   3.979  11.180 -0.0427 -0.1283 -0.5002
 5000TIP3    H236492   2.399   3.835  11.136  1.9005 -0.3528 -0.5939
 5001TIP3   OH236493   0.403   5.299  10.843  0.6702  0.5201  0.0169
 5001TIP3    H136494   0.327   5.297  10.786 -0.8072  0.1192  1.9432
 5001TIP3    H236495   0.459   5.367  10.806 -0.8525  1.1701 -1.1520
 5002TIP3   OH236496   5.927   0.986  11.448 -0.1512 -0.2715  0.4080
 5002TIP3    H136497   5.941   0.893  11.427  0.5504  0.0484 -0.6088
 5002TIP3    H236498   5.844   1.008  11.406 -1.6669 -1.1015  2.8930
 5003TIP3   OH236499   4.773   4.254   4.062  0.1535 -0.2256 -0.4869
 5003TIP3    H136500   4.732   4.168   4.069  0.1298 -0.2236 -0.6098
 5003TIP3    H236501   4.754   4.283   3.973 -0.8264  0.4011 -0.0898
 5004TIP3   OH236502   0.189   2.276   2.885  0.7288 -0.3420  0.3075
 5004TIP3    H136503   0.095   2.274   2.866  0.4613  0.4202  1.5448
 5004TIP3    H236504   0.218   2.360   2.851  0.8456 -0.3168  0.4712
 5005TIP3   OH236505   5.352   1.216  15.837  0.2522  0.7031 -0.0154
 5005TIP3    H136506   5.324   1.138  15.789 -0.1006  0.7487  0.1168
 5005TIP3    H236507   5.420   1.184  15.896  1.0897  0.7477 -0.9353
 5006TIP3   OH236508   1.452   5.912  10.953 -0.6770 -0.2990  0.7930
 5006TIP3    H136509   1.417   5.904  10.864  1.5188 -0.2384 -0.1186
 5006TIP3    H236510   1.513   5.986  10.948  0.6374 -1.2857  1.9406
 5007TIP3   OH236511   0.768   5.603  13.637 -0.1116 -0.5063 -0.3574
 5007TIP3    H136512   0.837   5.582  13.573 -0.9273  0.4245 -1.5627
 5007TIP3    H236513   0.772   5.698  13.646 -1.6592 -0.3700 -0.9285
 5008TIP3   OH236514   0.731   6.007   0.198 -0.4740 -0.8948  0.1949
 5008TIP3    H136515   0.705   6.087   0.151 -1.5167 -0.1907  1.9371
 5008TIP3    H236516   0.820   6.025   0.228 -0.2748 -0.8553 -0.4092
 5009TIP3   OH236517   4.234   6.152  11.309 -0.0688  0.6291 -0.2056
 5009TIP3    H136518   4.318   6.197  11.322 -0.6042  1.7168 -0.4625
 5009TIP3    H236519   4.186   6.209  11.249 -0.5942 -0.5006 -0.8686
 5010TIP3   OH236520   1.811   0.235  16.480  0.4986  0.3146  0.2082
 5010TIP3    H136521   1.882   0.212  16.541  0.9324  1.8164  0.2763
 5010TIP3    H236522   1.731   0.221  16.530  0.7399 -1.1655  0.2136
 5011TIP3   OH236523   0.358   6.660  12.949 -0.0608  0.0774  0.0261
 5011TIP3    H136524   0.323   6.722  13.013  1.9085 -1.1468  2.3708
 5011TIP3    H236525   0.417   6.712  12.895  1.1789  0.3668  1.6394
 5012TIP3   OH236526   4.755   4.338   5.190  0.2406 -0.0369  0.2973
 5012TIP3    H136527   4.841   4.339   5.232  0.3255 -1.5157  0.2086
 5012TIP3    H236528   4.775   4.344   5.096  0.1827  0.7465  0.3328
 5013TIP3   OH236529   5.619   3.838  12.034 -0.3793  0.5977 -0.1695
 5013TIP3    H136530   5.631   3.774  11.964 -1.9486 -1.6239  1.5198
 5013TIP3    H236531   5.636   3.923  11.993  2.9548 -0.9531 -2.1787
 5014TIP3   OH236532   2.610   3.840   1.642  0.2581  0.2342 -0.2082
 5014TIP3    H136533   2.674   3.901   1.604 -0.2700 -0.2495 -1.9515
 5014TIP3    H236534   2.566   3.802   1.566 -2.3427  0.7922  0.9652
 5015TIP3   OH236535   1.450   4.776  15.178  0.4136 -0.1788  0.3619
 5015TIP3    H136536   1.534   4.733  15.161  0.2575 -0.0162 -0.8198
 5015TIP3    H236537   1.395   4.706  15.214  0.7733 -0.4897  0.3141
 5016TIP3   OH236538   5.112   4.357  15.130  0.8790 -0.8456 -0.3914
 5016TIP3    H136539   5.165   4.380  15.206  0.0200 -1.7174  0.4901
 5016TIP3    H236540   5.161   4.390  15.055  2.9600 -2.1831  0.3492
 5017TIP3   OH236541   0.327   4.729  15.232  0.3298 -0.5856  0.2308
 5017TIP3    H136542   0.251   4.784  15.212  1.3386 -0.1036 -2.3415
 5017TIP3    H236543   0.397   4.790  15.252  0.8467 -0.9648 -0.3999
 5018TIP3   OH236544   2.948   0.370   3.406 -0.5285  0.1228  0.1523
 5018TIP3    H136545   2.948   0.454   3.451 -2.6150  0.6916 -0.8607
 5018TIP3    H236546   2.876   0.321   3.445 -0.6917 -0.3636 -0.7426
 5019TIP3   OH236547   2.384   4.374  14.978  0.0630 -0.5326  0.2185
 5019TIP3    H136548   2.337   4.299  14.942 -0.1105 -0.1621 -0.3343
 5019TIP3    H236549   2.400   4.351  15.069  0.2984 -1.3824 -0.0318
 5020TIP3   OH236550   6.374   2.266   2.667 -0.0657 -0.1979 -0.0428
 5020TIP3    H136551   6.322   2.333   2.623 -1.5260 -1.1593  0.1753
 5020TIP3    H236552   6.358   2.281   2.760  0.3973 -0.2311  0.0437
 5021TIP3   OH236553   5.833   5.280   4.592  0.5798 -0.3030 -0.2496
 5021TIP3    H136554   5.892   5.341   4.634 -1.1553  0.1432  1.6025
 5021TIP3    H236555   5.761   5.334   4.558  0.2515 -1.0388 -0.7677
 5022TIP3   OH236556   1.848   0.114   2.332  0.2645  0.2670  0.2065
 5022TIP3    H136557   1.809   0.064   2.261  1.1804  0.6764 -0.5964
 5022TIP3    H236558   1.824   0.066   2.412 -1.0169 -0.0277 -0.3469
 5023TIP3   OH236559   0.941   5.633   2.842 -0.0281 -0.4992  0.2488
 5023TIP3    H136560   0.989   5.670   2.917  0.1629 -1.2448  0.4940
 5023TIP3    H236561   0.907   5.710   2.796 -0.5957 -0.0367  1.3969
 5024TIP3   OH236562   5.095   3.489   5.308 -0.0891 -0.4362  0.3851
 5024TIP3    H136563   5.129   3.498   5.397 -0.4521 -0.6066  0.5418
 5024TIP3    H236564   5.146   3.551   5.256 -1.1669  1.0691  1.0710
 5025TIP3   OH236565   5.040   1.707  15.065  0.1723 -0.1516 -0.2330
 5025TIP3    H136566   5.065   1.637  15.127 -1.7444  0.7647  1.6399
 5025TIP3    H236567   4.945   1.717  15.078  0.4771  3.0225 -0.2393
 5026TIP3   OH236568   0.584   5.467  14.956  0.2439  0.2398 -0.0346
 5026TIP3    H136569   0.496   5.433  14.938  1.4889 -1.3103 -3.6823
 5026TIP3    H236570   0.593   5.543  14.900  1.4427  0.0215 -0.1615
 5027TIP3   OH236571   5.575   4.515  16.377 -0.2639  0.1495 -0.1034
 5027TIP3    H136572   5.580   4.513  16.473  0.7711  1.0757 -0.1392
 5027TIP3    H236573   5.481   4.511  16.358 -0.4051 -2.0764  0.8922
 5028TIP3   OH236574   3.695   4.600  16.142  0.4434  0.0949 -0.1746
 5028TIP3    H136575   3.780   4.617  16.101 -0.3826  1.2237 -1.4561
 5028TIP3    H236576   3.680   4.507  16.127  1.5794 -0.1787  0.3155
 5029TIP3   OH236577   0.138   3.191   4.181  0.9679  0.0904 -0.1495
 5029TIP3    H136578   0.203   3.125   4.158 -0.9507 -2.1977  0.8018
 5029TIP3    H236579   0.099   3.160   4.263 -1.8739  0.9728 -1.0917
 5030TIP3   OH236580   0.849   1.010   2.844 -0.4636  0.1905  0.5234
 5030TIP3    H136581   0.927   0.966   2.879 -1.1341 -1.9631 -0.6244
 5030TIP3    H236582   0.865   1.018   2.750 -1.4323  0.1673  0.3500
 5031TIP3   OH236583   3.774   1.087  11.298 -0.6492 -0.1235  0.4031
 5031TIP3    H136584   3.820   1.163  11.334 -0.3240 -0.4791  0.7494
 5031TIP3    H236585   3.823   1.012  11.332 -0.4839 -0.4694 -0.5872
 5032TIP3   OH236586   1.333   1.943  13.467 -0.2832 -0.0096  0.0019
 5032TIP3    H136587   1.338   1.981  13.554 -0.5057 -0.1726  0.0860
 5032TIP3    H236588   1.240   1.944  13.445 -0.3229 -0.8068  0.1354
 5033TIP3   OH236589   5.324   0.129  15.215 -0.3027 -0.4633  0.3198
 5033TIP3    H136590   5.334   0.036  15.231 -0.2107 -0.2379  1.6615
 5033TIP3    H236591   5.413   0.162  15.201 -0.2848 -0.4820  0.3907
 5034TIP3   OH236592   0.351   1.164  11.300  0.9111 -0.0225  0.2968
 5034TIP3    H136593   0.295   1.232  11.262  0.4588 -1.5080 -1.7978
 5034TIP3    H236594   0.316   1.151  11.388 -2.1987 -1.0162 -1.0178
 5035TIP3   OH236595   1.460   4.631  13.107  0.2043 -0.2292 -0.1376
 5035TIP3    H136596   1.366   4.630  13.125  0.1865 -0.1402 -0.2271
 5035TIP3    H236597   1.499   4.587  13.183  0.0088 -1.2147 -0.6114
 5036TIP3   OH236598   6.613   0.417   4.843  0.1922 -0.2888 -0.3167
 5036TIP3    H136599   6.609   0.437   4.937 -1.1333 -0.9093 -0.2274
 5036TIP3    H236600   6.689   0.360   4.834  0.1868 -0.4219  0.4200
 5037TIP3   OH236601   4.089   5.697  14.862  0.4986 -0.4325  0.8083
 5037TIP3    H136602   4.028   5.715  14.791 -0.4226  2.5324  2.2410
 5037TIP3    H236603   4.052   5.621  14.907 -0.7362 -0.2552  0.1132
 5038TIP3   OH236604   5.318   5.882   1.633  0.6410 -0.0365 -0.4858
 5038TIP3    H136605   5.232   5.908   1.601  0.1134  1.4277  1.9791
 5038TIP3    H236606   5.303   5.798   1.677 -0.3026  1.8329  2.9647
 5039TIP3   OH236607   0.054   0.579   1.151  0.4737  0.0661  0.0927
 5039TIP3    H136608   0.121   0.543   1.093  0.4986 -0.0531  0.1960
 5039TIP3    H236609  -0.029   0.557   1.108  0.4301 -1.4517  0.9232
 5040TIP3   OH236610   3.824   5.266  13.647  0.1481 -0.2882  0.5342
 5040TIP3    H136611   3.769   5.244  13.572  2.3520 -0.6882 -1.0418
 5040TIP3    H236612   3.838   5.182  13.692  0.3703 -0.3742  0.3037
 5041TIP3   OH236613   2.775   0.895  15.296  0.2128  0.2853  0.2761
 5041TIP3    H136614   2.728   0.977  15.312  0.4829  0.4873  0.0432
 5041TIP3    H236615   2.829   0.882  15.374  0.1928  0.3423  0.2983
 5042TIP3   OH236616   3.747   2.519  13.476 -0.2613  0.3293 -0.3082
 5042TIP3    H136617   3.739   2.438  13.526  0.4910  0.6897  0.4233
 5042TIP3    H236618   3.717   2.497  13.388 -0.5413 -0.6086  0.0211
 5043TIP3   OH236619   2.127   1.403   3.153  0.2937 -0.5829 -0.3940
 5043TIP3    H136620   2.087   1.459   3.219  0.5566 -1.3504  0.4248
 5043TIP3    H236621   2.103   1.443   3.069  0.7839  0.9452  0.1963
 5044TIP3   OH236622   5.203   0.922  14.268  0.2747  0.2125  0.1414
 5044TIP3    H136623   5.245   0.915  14.354 -0.6252  1.4336  0.6872
 5044TIP3    H236624   5.241   0.850  14.217  0.2463 -0.9791  1.7873
 5045TIP3   OH236625   3.284   3.166  12.882  0.6930  0.4103 -0.2153
 5045TIP3    H136626   3.345   3.183  12.953  1.4844 -0.2275 -0.7369
 5045TIP3    H236627   3.339   3.148  12.806 -0.1171  2.4391 -1.3545
 5046TIP3   OH236628   0.037   6.557   2.094 -0.2705 -0.2449 -0.4598
 5046TIP3    H136629   0.093   6.544   2.018  1.0889  1.1706  0.2656
 5046TIP3    H236630   0.096   6.544   2.169 -1.2894 -0.3054  0.3346
 5047TIP3   OH236631   0.151   3.797  16.611  0.4226  0.1929  0.3962
 5047TIP3    H136632   0.203   3.743  16.670  0.9682 -0.4606 -0.6525
 5047TIP3    H236633   0.140   3.880  16.657  0.2826 -0.5226  1.6776
 5048TIP3   OH236634   0.413   1.836   5.106 -0.2629  0.2297 -0.2174
 5048TIP3    H136635   0.447   1.912   5.154 -0.3304  0.1908 -0.1078
 5048TIP3    H236636   0.330   1.867   5.068  0.3800  0.6353 -1.3235
 5049TIP3   OH236637   6.684   5.436   2.981 -0.3422 -0.3808  0.2978
 5049TIP3    H136638   6.769   5.412   2.943 -0.5473 -0.8838  0.1531
 5049TIP3    H236639   6.703   5.511   3.037  0.1743 -0.4001  0.1502
 5050TIP3   OH236640   0.512   2.693   3.244 -0.6124  0.1612  0.6555
 5050TIP3    H136641   0.560   2.618   3.208  0.0793  0.1350  1.6201
 5050TIP3    H236642   0.506   2.755   3.171 -0.1841 -0.3596  0.1798
 5051TIP3   OH236643   2.932   5.801   4.147 -0.7818  0.4545  0.5278
 5051TIP3    H136644   3.017   5.829   4.183 -0.8676  0.8943  0.3956
 5051TIP3    H236645   2.940   5.816   4.053 -0.5567 -0.7050  0.3594
 5052TIP3   OH236646   6.784   3.808   1.563 -0.8829  0.0289  0.2889
 5052TIP3    H136647   6.777   3.903   1.574  1.5136  0.5246 -1.7644
 5052TIP3    H236648   6.782   3.795   1.468  0.5338 -1.7969  0.4765
 5053TIP3   OH236649   2.192   6.026  11.848  0.3435  0.1001  0.4722
 5053TIP3    H136650   2.264   5.963  11.855  0.7451  0.2856 -1.7517
 5053TIP3    H236651   2.233   6.110  11.866  0.1032 -0.0726  1.9406
 5054TIP3   OH236652   1.951   1.971  16.379  0.6499  0.2820  0.3121
 5054TIP3    H136653   2.027   2.026  16.362 -0.5121  1.8584  0.0725
 5054TIP3    H236654   1.877   2.032  16.380 -0.5619 -1.1585  0.9481
 5055TIP3   OH236655   6.704   3.272   1.293 -0.1840 -0.0927  0.6313
 5055TIP3    H136656   6.633   3.210   1.313 -0.1201 -0.3037  0.2115
 5055TIP3    H236657   6.681   3.351   1.341  0.4679 -0.9113  2.3083
 5056TIP3   OH236658   2.211   1.673   5.326 -0.6409 -0.1477  0.2478
 5056TIP3    H136659   2.130   1.709   5.363 -0.3997  0.6015  0.0524
 5056TIP3    H236660   2.183   1.593   5.281 -0.7483 -1.7817  3.1111
 5057TIP3   OH236661   3.576   5.468   1.324  0.0621 -0.4837  0.0367
 5057TIP3    H136662   3.571   5.413   1.402  0.7327 -0.8707 -0.1852
 5057TIP3    H236663   3.551   5.555   1.354  1.2983 -0.4118  0.9172
 5058TIP3   OH236664   3.583   0.499  17.147  0.2073 -0.2069  0.0709
 5058TIP3    H136665   3.650   0.521  17.083  1.2856 -0.8955  0.9518
 5058TIP3    H236666   3.608   0.412  17.179 -1.8588 -1.0948 -0.5824
 5059TIP3   OH236667   0.512   4.062   4.794  0.7726 -0.0113  0.1379
 5059TIP3    H136668   0.496   4.146   4.751 -1.7055 -0.0082  0.9978
 5059TIP3    H236669   0.482   3.996   4.731  1.7273 -0.2238 -0.1060
 5060TIP3   OH236670   6.259   3.318  14.763  0.1594  0.1618 -0.0793
 5060TIP3    H136671   6.198   3.265  14.814  0.4179  1.9693  2.1757
 5060TIP3    H236672   6.343   3.307  14.807  0.6426  0.7992 -0.8254
 5061TIP3   OH236673   0.509   4.635  12.009 -0.2366 -0.4513 -0.4528
 5061TIP3    H136674   0.453   4.560  11.991 -2.3269  1.0966 -0.5582
 5061TIP3    H236675   0.484   4.664  12.096 -0.4045  0.9425 -0.9525
 5062TIP3   OH236676   2.146   3.159  14.311  0.0482  0.4365 -0.2776
 5062TIP3    H136677   2.105   3.227  14.363 -0.6815 -2.0414  2.4944
 5062TIP3    H236678   2.234   3.151  14.347  0.7891  1.1783 -1.8595
 5063TIP3   OH236679   4.760   6.068  16.396  0.0353  0.5817 -0.2126
 5063TIP3    H136680   4.740   6.158  16.371  2.9183  1.1042 -0.8270
 5063TIP3    H236681   4.828   6.077  16.463 -0.3603 -1.1293  0.4391
 5064TIP3   OH236682   0.706   5.633  15.653 -0.1887  0.4689  0.0869
 5064TIP3    H136683   0.696   5.645  15.747 -0.2114  0.7740  0.0454
 5064TIP3    H236684   0.671   5.713  15.614 -1.6948 -0.3292 -0.2530
 5065TIP3   OH236685   5.968   3.900  13.635 -0.4435 -0.6433  0.1491
 5065TIP3    H136686   5.916   3.888  13.714  0.5569 -3.5856  0.4300
 5065TIP3    H236687   6.039   3.959  13.661 -1.1627 -0.1100  0.9226
 5066TIP3   OH236688   5.398   5.258  12.039  0.3006  0.4876  0.3759
 5066TIP3    H136689   5.334   5.198  12.001 -0.5226  1.1241  0.7235
 5066TIP3    H236690   5.481   5.213  12.032  0.5305  1.4138 -4.0599
 5067TIP3   OH236691   1.101   0.497  11.497 -0.4399  0.1213  0.0950
 5067TIP3    H136692   1.186   0.467  11.528  0.3562  1.5446 -0.6611
 5067TIP3    H236693   1.113   0.590  11.479 -1.7800  0.0468 -1.3169
 5068TIP3   OH236694   3.647   2.558   4.295  0.8701 -0.0126  0.3064
 5068TIP3    H136695   3.613   2.485   4.347  0.6749  0.2097  0.4904
 5068TIP3    H236696   3.607   2.548   4.209  0.4710  0.1506  0.4720
 5069TIP3   OH236697   3.005   5.781  12.335  0.2147  0.0708 -0.1534
 5069TIP3    H136698   2.983   5.699  12.291  1.1796 -0.2379 -0.0582
 5069TIP3    H236699   2.958   5.777  12.418 -1.6041  0.6481 -1.1089
 5070TIP3   OH236700   3.294   0.493   1.381 -0.1722 -0.6941 -0.3933
 5070TIP3    H136701   3.334   0.516   1.297 -0.6550  2.6162  0.2358
 5070TIP3    H236702   3.363   0.504   1.446 -0.3155 -1.4296 -0.1020
 5071TIP3   OH236703   3.362   4.752  14.370 -0.4389  0.0843  0.7223
 5071TIP3    H136704   3.373   4.725  14.279  1.5238 -0.9806  1.2414
 5071TIP3    H236705   3.336   4.672  14.416 -2.0088  0.7406  1.0176
 5072TIP3   OH236706   5.133   1.966   3.912  0.7372  0.2572  0.2596
 5072TIP3    H136707   5.101   2.028   3.846  0.4777  1.0891  1.1426
 5072TIP3    H236708   5.090   1.995   3.994 -0.7301 -2.1185  0.3795
 5073TIP3   OH236709   2.923   5.590   6.310  0.4438 -0.0249  0.0499
 5073TIP3    H136710   2.868   5.545   6.374 -0.0593  0.3004 -0.1487
 5073TIP3    H236711   2.905   5.683   6.325  0.6471  0.0665 -0.2719
 5074TIP3   OH236712   4.632   3.391   3.409  0.1364  0.4622 -0.4084
 5074TIP3    H136713   4.691   3.376   3.483  0.8610  0.8388 -0.9064
 5074TIP3    H236714   4.654   3.322   3.346 -0.5311  0.0954 -0.2461
 5075TIP3   OH236715   3.809   2.596  15.754 -0.6071 -0.8434  0.1909
 5075TIP3    H136716   3.862   2.549  15.689  0.0654 -1.2725  1.0478
 5075TIP3    H236717   3.747   2.531  15.786  0.2221 -1.1022  1.2657
 5076TIP3   OH236718   2.729   5.735  14.866 -0.2178  0.5491 -0.1682
 5076TIP3    H136719   2.745   5.817  14.914  2.7663 -0.6105  0.9291
 5076TIP3    H236720   2.777   5.746  14.784 -0.8256  0.3582 -0.5523
 5077TIP3   OH236721   6.583   5.573  16.207  0.1218  0.5371 -0.7238
 5077TIP3    H136722   6.619   5.596  16.121  0.0936  0.8186 -0.6631
 5077TIP3    H236723   6.651   5.600  16.269 -1.1944  3.4048 -0.4280
 5078TIP3   OH236724   5.567   2.720   5.430  0.4914 -0.1099  0.4854
 5078TIP3    H136725   5.637   2.683   5.483  2.3562  0.1885 -1.6790
 5078TIP3    H236726   5.489   2.669   5.453  1.9441 -2.0807  1.1571
 5079TIP3   OH236727   3.253   3.629  17.251  0.4957  0.3991 -0.6305
 5079TIP3    H136728   3.283   3.538  17.258 -0.3721  0.1090 -0.5944
 5079TIP3    H236729   3.291   3.661  17.170  1.9766  0.4569  0.0584
 5080TIP3   OH236730   5.036   0.981  11.327 -0.2701 -0.3407  0.4793
 5080TIP3    H136731   5.107   0.983  11.392 -0.6165 -0.0585  0.8516
 5080TIP3    H236732   4.959   0.953  11.377 -0.6004  0.1650  0.2497
 5081TIP3   OH236733   3.693   4.660  14.959  0.3336  0.2108  0.0944
 5081TIP3    H136734   3.732   4.589  15.008 -0.5038  0.3974  1.0416
 5081TIP3    H236735   3.767   4.713  14.929  0.8036  0.9181  2.4123
 5082TIP3   OH236736   1.720   0.858  14.264 -0.0721  0.0137  0.0995
 5082TIP3    H136737   1.769   0.939  14.279  1.0961 -0.6186 -0.2766
 5082TIP3    H236738   1.787   0.793  14.242 -0.9169 -1.2867  1.3502
 5083TIP3   OH236739   4.290   1.913  14.303 -0.2761 -0.1634  0.1056
 5083TIP3    H136740   4.321   1.829  14.338 -0.5303 -0.7148 -0.9589
 5083TIP3    H236741   4.207   1.891  14.260 -1.0175  0.8855  0.9916
 5084TIP3   OH236742   6.085   1.071   3.291  0.3477  0.0785 -0.2469
 5084TIP3    H136743   6.138   1.127   3.234 -0.7120 -1.0656 -2.4098
 5084TIP3    H236744   6.111   1.096   3.380  2.9295  1.0630 -1.2259
 5085TIP3   OH236745   4.535   5.673  16.195  0.2650  0.2253 -0.0522
 5085TIP3    H136746   4.580   5.699  16.276 -0.6003 -1.0708  0.8766
 5085TIP3    H236747   4.454   5.632  16.226  0.2253 -0.8474 -1.5585
 5086TIP3   OH236748   2.310   2.522   0.993  0.7219 -0.1412 -0.4382
 5086TIP3    H136749   2.273   2.447   0.947  0.1799  0.0067 -0.2497
 5086TIP3    H236750   2.404   2.517   0.976  0.9175 -1.8800  1.0848
 5087TIP3   OH236751   5.353   3.899  13.971 -0.4051 -0.0582 -0.2239
 5087TIP3    H136752   5.352   3.818  14.023 -0.0428 -0.6760 -1.1793
 5087TIP3    H236753   5.445   3.924  13.967 -0.8092  2.5671  3.3644
 5088TIP3   OH236754   4.505   0.976  15.723  0.2349  0.5058 -0.6172
 5088TIP3    H136755   4.529   0.916  15.653  0.1919  0.8724 -0.9459
 5088TIP3    H236756   4.446   1.040  15.682 -0.9422 -0.1102  0.0653
 5089TIP3   OH236757   5.890   1.622  14.485  0.3544 -0.4974 -0.2161
 5089TIP3    H136758   5.819   1.649  14.543 -0.9460 -1.4158 -1.3526
 5089TIP3    H236759   5.968   1.623  14.540 -0.3376  1.6325  0.7690
 5090TIP3   OH236760   6.412   6.125   2.902 -0.2008  0.3186 -0.4360
 5090TIP3    H136761   6.339   6.093   2.956  0.4980  2.5208  1.9547
 5090TIP3    H236762   6.396   6.219   2.894  1.6250  0.6012 -1.0480
 5091TIP3   OH236763   5.059   4.762  14.396  0.4832  0.6089  0.1476
 5091TIP3    H136764   4.963   4.756  14.392  0.2618  2.6452  1.8910
 5091TIP3    H236765   5.088   4.671  14.405 -1.2096 -0.1076 -1.3173
 5092TIP3   OH236766   2.821   4.658   1.708  0.0819 -0.5257  0.0528
 5092TIP3    H136767   2.804   4.752   1.695  0.6787 -0.3040  0.8852
 5092TIP3    H236768   2.867   4.653   1.792 -0.5341 -1.6286  0.3314
 5093TIP3   OH236769   1.413   1.776  14.800  0.1310 -0.4239  0.6475
 5093TIP3    H136770   1.379   1.727  14.875 -2.1728 -0.3848 -0.3289
 5093TIP3    H236771   1.357   1.854  14.794 -0.3518 -0.9022 -1.6697
 5094TIP3   OH236772   0.186   6.335   4.200  0.1086 -0.4230 -0.3377
 5094TIP3    H136773   0.252   6.381   4.148 -0.9752  0.7143 -0.7404
 5094TIP3    H236774   0.231   6.315   4.282  0.7500  1.0063 -0.3139
 5095TIP3   OH236775   5.710   0.016   2.108 -0.2636  0.3379  0.4160
 5095TIP3    H136776   5.692   0.042   2.018  1.3567  1.2136  0.3435
 5095TIP3    H236777   5.664   0.080   2.162  1.1513  1.5440  0.2167
 5096TIP3   OH236778   0.688   6.295  15.177 -0.1321  0.3997 -0.1722
 5096TIP3    H136779   0.673   6.239  15.253  1.1564 -0.5906 -0.6337
 5096TIP3    H236780   0.623   6.366  15.186 -0.4973 -0.1209  1.4238
 5097TIP3   OH236781   1.790   4.502  14.009 -0.2691  0.0878 -0.1324
 5097TIP3    H136782   1.764   4.552  14.086 -1.4014 -0.3740 -0.2069
 5097TIP3    H236783   1.875   4.466  14.032 -0.4815  0.1589  0.8087
 5098TIP3   OH236784   4.307   6.399   4.063 -0.2557 -0.7987 -0.0356
 5098TIP3    H136785   4.298   6.341   4.138 -0.3415 -0.9896 -0.1950
 5098TIP3    H236786   4.356   6.348   3.999  0.5781 -0.3299  0.2223
 5099TIP3   OH236787   1.682   1.141   0.470 -0.2890  0.3461 -0.4095
 5099TIP3    H136788   1.760   1.184   0.505  0.2920  0.8151 -2.2237
 5099TIP3    H236789   1.682   1.165   0.377 -1.4165 -1.4137 -0.8682
 5100TIP3   OH236790   0.947   3.899   5.718 -0.3007  0.1290  0.3229
 5100TIP3    H136791   0.978   3.827   5.773  0.9794  1.0033  0.7672
 5100TIP3    H236792   0.892   3.952   5.776 -1.5549 -0.6743 -0.1044
 5101TIP3   OH236793   6.209   6.336   4.411 -0.2400 -0.3019  0.0862
 5101TIP3    H136794   6.286   6.314   4.359 -1.0345 -1.8943 -0.4704
 5101TIP3    H236795   6.140   6.351   4.347  0.3391  4.3453  0.4391
 5102TIP3   OH236796   2.115   5.087  16.600 -0.0754 -0.7126 -1.3718
 5102TIP3    H136797   2.146   4.996  16.601  0.3399 -0.5717 -0.9880
 5102TIP3    H236798   2.192   5.138  16.575  0.7202 -0.1181  2.0246
 5103TIP3   OH236799   2.493   1.350   5.892 -0.3977 -0.1379 -0.0564
 5103TIP3    H136800   2.558   1.324   5.958 -2.3173 -1.5818  1.3439
 5103TIP3    H236801   2.418   1.378   5.944 -0.6902  2.0991 -1.6533
 5104TIP3   OH236802   2.958   1.519   0.952 -0.0367 -0.1160  0.3788
 5104TIP3    H136803   2.966   1.489   1.042 -0.5909  0.0867  0.4967
 5104TIP3    H236804   3.048   1.534   0.924  0.0618  1.4240  1.4462
 5105TIP3   OH236805   4.989   0.732   4.341  0.4351  0.1393  0.2176
 5105TIP3    H136806   5.048   0.698   4.273  0.5351  1.4557 -0.3726
 5105TIP3    H236807   5.023   0.819   4.361 -1.8460  1.3352 -0.8378
 5106TIP3   OH236808   4.353   0.599   2.315  0.2786 -0.2499 -0.9091
 5106TIP3    H136809   4.405   0.598   2.395 -2.0406 -0.5202  0.6187
 5106TIP3    H236810   4.296   0.522   2.322 -0.6112  0.2493 -2.3748
 5107TIP3   OH236811   0.021   3.646   6.435  0.1310  0.6372  0.3694
 5107TIP3    H136812   0.092   3.670   6.495 -0.1807 -0.0714  1.0255
 5107TIP3    H236813  -0.051   3.704   6.458 -0.4495 -0.5475  1.6110
 5108TIP3   OH236814   5.776   2.003  14.015 -0.4809 -0.8396  0.2790
 5108TIP3    H136815   5.794   1.927  14.071 -1.7573 -1.4971 -0.2053
 5108TIP3    H236816   5.854   2.011  13.960 -1.0054 -2.7968 -0.7913
 5109TIP3   OH236817   5.747   4.644   0.386  0.7785  0.2388 -0.2177
 5109TIP3    H136818   5.840   4.634   0.368  1.0152 -1.1347  1.5932
 5109TIP3    H236819   5.704   4.607   0.308  1.7518 -1.2762 -0.0558
 5110TIP3   OH236820   5.865   0.780   4.406 -0.7963  0.0319  0.3973
 5110TIP3    H136821   5.890   0.803   4.495 -0.9628 -0.1967  0.5023
 5110TIP3    H236822   5.894   0.855   4.353 -0.9540  0.2941  0.6788
 5111TIP3   OH236823   6.634   3.832   6.495 -0.3187  0.0667  0.0059
 5111TIP3    H136824   6.657   3.915   6.537  1.7802 -1.4840  2.0378
 5111TIP3    H236825   6.542   3.819   6.520  0.0385  0.6069  1.7397
 5112TIP3   OH236826   3.783   5.415  14.332 -0.0327 -0.2718  0.9158
 5112TIP3    H136827   3.751   5.487  14.278  2.1770  0.1376  0.0819
 5112TIP3    H236828   3.707   5.360  14.348 -1.2632  1.0313 -0.3899
 5113TIP3   OH236829   2.936   6.321   4.517  0.3587 -0.5120 -0.1594
 5113TIP3    H136830   2.851   6.360   4.495  1.0041  1.5334  0.8253
 5113TIP3    H236831   2.985   6.322   4.435  0.3455  0.7057 -0.1550
 5114TIP3   OH236832   1.687   0.145   0.142  0.1153  0.1212  0.3798
 5114TIP3    H136833   1.654   0.140   0.232 -2.7053  2.3483 -0.4727
 5114TIP3    H236834   1.616   0.185   0.092  3.0059  2.2971 -2.1682
 5115TIP3   OH236835   2.518   1.188  13.517 -0.2740 -0.6238  0.3430
 5115TIP3    H136836   2.511   1.120  13.450  0.4933 -0.8436  0.4789
 5115TIP3    H236837   2.434   1.233  13.514  0.3681  0.4899 -1.9589
 5116TIP3   OH236838   6.449   3.831   2.327 -0.5508  0.0745 -0.0986
 5116TIP3    H136839   6.544   3.841   2.340 -0.4540 -3.1176  2.2734
 5116TIP3    H236840   6.440   3.808   2.234  0.7526  2.6100 -0.8986
 5117TIP3   OH236841   3.995   6.485   6.645  0.1862 -0.4573  0.3255
 5117TIP3    H136842   3.976   6.414   6.584  1.4573 -0.5492  0.0262
 5117TIP3    H236843   4.053   6.544   6.596 -0.2911  0.4283  0.8068
 5118TIP3   OH236844   3.715   6.298   0.027 -0.2499  0.2414 -0.0579
 5118TIP3    H136845   3.766   6.268   0.102 -0.5417 -1.2767 -0.4385
 5118TIP3    H236846   3.778   6.346  -0.027  0.8801 -1.8596 -0.6651
 5119TIP3   OH236847   0.576   4.544  16.441  0.1646  0.3486 -0.0781
 5119TIP3    H136848   0.516   4.617  16.456  1.2355  1.3531 -0.6280
 5119TIP3    H236849   0.541   4.473  16.495 -0.2938  1.5917  1.3023
 5120TIP3   OH236850   5.224   4.466  13.122 -0.2431 -0.0284  0.0885
 5120TIP3    H136851   5.133   4.460  13.094 -0.4009  0.9905  0.3777
 5120TIP3    H236852   5.260   4.538  13.071  0.2304 -0.0098  0.4452
 5121TIP3   OH236853   5.731   0.344  11.982 -0.2862  0.2122 -0.1259
 5121TIP3    H136854   5.778   0.384  11.909 -0.6305 -0.0970 -0.5199
 5121TIP3    H236855   5.737   0.250  11.966 -0.3542  0.1401  0.2518
 5122TIP3   OH236856   5.489   6.289  13.142  0.3932  0.2445  0.3354
 5122TIP3    H136857   5.535   6.306  13.224  0.2322  4.1635 -0.3251
 5122TIP3    H236858   5.555   6.305  13.074 -0.3978  0.2641 -0.4259
 5123TIP3   OH236859   1.790   1.169   1.662  0.2368  0.2533  0.5082
 5123TIP3    H136860   1.731   1.106   1.621 -1.7388  2.0009  0.6577
 5123TIP3    H236861   1.782   1.249   1.610  1.7786  0.8170  1.0885
 5124TIP3   OH236862   6.294   0.045   3.672  0.0124 -0.4991 -0.1315
 5124TIP3    H136863   6.264   0.135   3.659 -1.0656 -1.0088 -1.2694
 5124TIP3    H236864   6.316   0.014   3.584 -0.7575 -1.7290  0.0871
 5125TIP3   OH236865   1.000   1.526  13.338  0.2074  0.7598 -0.1574
 5125TIP3    H136866   1.065   1.466  13.373 -0.1411 -0.8688 -2.2272
 5125TIP3    H236867   0.983   1.588  13.409  0.7808 -1.4045  1.8937
 5126TIP3   OH236868   6.071   3.779   5.561 -0.4398  0.1012 -0.3447
 5126TIP3    H136869   6.064   3.702   5.616 -0.2632 -0.1796 -0.7164
 5126TIP3    H236870   6.091   3.745   5.474 -0.6523  0.5461 -0.5693
 5127TIP3   OH236871   4.006   2.453   2.582  0.0777  0.0999  0.3312
 5127TIP3    H136872   4.091   2.410   2.575  1.3539  2.5145  0.3616
 5127TIP3    H236873   3.942   2.386   2.556  1.8778 -2.0895  1.4198
 5128TIP3   OH236874   5.529   0.974  15.027 -0.0194  0.3688  0.3441
 5128TIP3    H136875   5.619   0.964  15.058  0.0609 -0.7241 -0.2338
 5128TIP3    H236876   5.525   0.924  14.946 -1.9289 -2.0732  1.8692
 5129TIP3   OH236877   2.192   4.459  15.349 -0.5661  0.3734 -0.1987
 5129TIP3    H136878   2.259   4.521  15.321  0.0150  0.3288  1.0728
 5129TIP3    H236879   2.138   4.507  15.412  0.7585 -0.8189  1.8935
 5130TIP3   OH236880   6.509   4.333  13.906 -0.0639 -0.2505 -0.2922
 5130TIP3    H136881   6.461   4.289  13.836  0.4958  1.2017 -1.6212
 5130TIP3    H236882   6.460   4.415  13.920  0.9496  0.3725 -0.3623
 5131TIP3   OH236883   1.488   2.521   2.087 -0.1778 -0.0746  0.4395
 5131TIP3    H136884   1.409   2.504   2.036 -0.0243  0.7553 -0.0733
 5131TIP3    H236885   1.499   2.442   2.140 -0.7294 -0.6518 -0.2959
 5132TIP3   OH236886   0.481   6.175   5.469 -0.3412 -0.7134 -0.1410
 5132TIP3    H136887   0.560   6.230   5.467 -0.0855 -1.0699  0.3149
 5132TIP3    H236888   0.441   6.194   5.553  0.9892 -2.9803  1.0372
 5133TIP3   OH236889   1.278   6.819  15.050 -0.3349 -0.1663  0.3537
 5133TIP3    H136890   1.221   6.744  15.067  1.8384 -1.4759  2.1846
 5133TIP3    H236891   1.223   6.896  15.068 -1.6559 -1.3660  1.6345
 5134TIP3   OH236892   0.957   1.129  11.171  0.7245 -0.1630 -0.6576
 5134TIP3    H136893   0.897   1.079  11.117  2.2506 -1.6551 -1.0264
 5134TIP3    H236894   0.988   1.200  11.114 -2.3805  2.0248  0.2502
 5135TIP3   OH236895   0.144   2.769  13.921  0.3232  0.7378 -0.6184
 5135TIP3    H136896   0.116   2.678  13.926  1.0902  0.4654 -1.3107
 5135TIP3    H236897   0.228   2.770  13.967  0.0264  1.2201 -0.0750
 5136TIP3   OH236898   1.376   5.016   0.217 -0.5292 -0.0937 -0.0053
 5136TIP3    H136899   1.408   4.928   0.197 -2.2250 -0.6554 -0.3670
 5136TIP3    H236900   1.446   5.056   0.267  0.6499 -1.3398 -0.6108
 5137TIP3   OH236901   5.835   4.165   4.172 -0.2853  0.1474  0.2334
 5137TIP3    H136902   5.865   4.238   4.118 -0.0640 -0.1351 -0.0288
 5137TIP3    H236903   5.874   4.088   4.131  0.5494  0.0034  1.2672
 5138TIP3   OH236904   0.171   2.950   2.522  0.2886  0.8420  0.2699
 5138TIP3    H136905   0.155   2.956   2.428 -0.8213 -3.1825  0.0896
 5138TIP3    H236906   0.266   2.941   2.529  0.2281 -0.9781 -0.7156
 5139TIP3   OH236907   2.003   6.818  12.723 -0.1169 -0.0077  0.0958
 5139TIP3    H136908   1.933   6.759  12.696  0.9175 -1.2913  0.1661
 5139TIP3    H236909   2.082   6.784  12.680  0.9218 -0.0609  1.9576
 5140TIP3   OH236910   2.009   4.623  11.054  0.1356 -1.0558  0.0724
 5140TIP3    H136911   2.086   4.585  11.013  1.2988 -0.5728  1.7224
 5140TIP3    H236912   1.985   4.696  10.998 -0.1067 -2.1902 -1.3202
 5141TIP3   OH236913   3.148   4.111  15.510  0.3479 -0.1156  0.2798
 5141TIP3    H136914   3.055   4.118  15.487  0.6655  1.7641 -0.4786
 5141TIP3    H236915   3.148   4.061  15.592 -1.3379 -0.1530  0.2770
 5142TIP3   OH236916   3.051   5.696  11.865  0.2138  0.0197  0.1422
 5142TIP3    H136917   3.022   5.608  11.843  0.1676  0.4537 -1.5780
 5142TIP3    H236918   3.136   5.706  11.821 -0.2650  1.1858 -0.5578
 5143TIP3   OH236919   5.042   2.530  14.556 -0.3304 -0.5330 -0.0176
 5143TIP3    H136920   5.067   2.453  14.606  1.1454  0.4149  0.7605
 5143TIP3    H236921   5.097   2.600  14.591 -0.1584  0.4318 -2.0964
 5144TIP3   OH236922   0.923   6.273   2.346 -0.0551 -0.4172  0.1466
 5144TIP3    H136923   0.877   6.266   2.263 -0.8566 -1.6260  0.6766
 5144TIP3    H236924   0.929   6.367   2.362  1.4904 -0.1145 -2.0224
 5145TIP3   OH236925   2.989   2.117   2.730 -0.3087 -0.4567 -0.3362
 5145TIP3    H136926   2.980   2.050   2.662 -0.1223 -1.3229  0.4894
 5145TIP3    H236927   3.071   2.162   2.709 -0.0277 -1.0125 -0.4195
 5146TIP3   OH236928   5.235   5.120  10.845  0.4311 -0.1031  0.4323
 5146TIP3    H136929   5.268   5.204  10.812 -1.1418  0.4690  0.2917
 5146TIP3    H236930   5.235   5.063  10.769 -2.0521  0.8704 -0.3472
 5147TIP3   OH236931   1.728   0.487  15.520  0.4926 -0.0164  0.1618
 5147TIP3    H136932   1.731   0.392  15.504 -0.3692 -0.2973  1.6014
 5147TIP3    H236933   1.699   0.495  15.611 -0.7490  1.6515 -0.3604
 5148TIP3   OH236934   4.418   3.533   0.853 -0.2685 -0.3008  0.7917
 5148TIP3    H136935   4.339   3.485   0.875 -0.1294 -0.4075  1.0634
 5148TIP3    H236936   4.445   3.574   0.935 -1.7878  2.3085  0.0500
 5149TIP3   OH236937   5.293   0.992  12.938 -0.0289 -0.0415 -0.8389
 5149TIP3    H136938   5.372   1.020  12.985 -0.5669 -0.1462  0.1565
 5149TIP3    H236939   5.245   1.073  12.924 -1.4391 -0.3628  1.7673
 5150TIP3   OH236940   1.536   3.690   0.084  0.8146 -0.2375  0.0812
 5150TIP3    H136941   1.590   3.768   0.068  1.4873 -0.9613 -1.2740
 5150TIP3    H236942   1.465   3.722   0.140  2.5716  0.7492  1.7906
 5151TIP3   OH236943   0.442   3.133   2.015 -0.0137  0.4669  0.4600
 5151TIP3    H136944   0.417   3.224   1.996  0.5884  1.0434  2.3270
 5151TIP3    H236945   0.359   3.088   2.028 -0.3561  0.5196 -1.3737
 5152TIP3   OH236946   5.216   6.290   4.645 -0.1695 -0.3188  0.1458
 5152TIP3    H136947   5.241   6.202   4.616 -2.9450 -0.7591 -1.0203
 5152TIP3    H236948   5.123   6.297   4.623 -0.0672  2.7902  0.5442
 5153TIP3   OH236949   5.573   4.792   4.729 -0.2594  0.0574  0.6457
 5153TIP3    H136950   5.534   4.878   4.714 -1.4559 -0.6951 -0.6520
 5153TIP3    H236951   5.614   4.799   4.815 -0.0171  2.0376  0.4005
 5154TIP3   OH236952   1.445   2.704   4.467 -0.1442  0.4528  0.0962
 5154TIP3    H136953   1.514   2.711   4.402 -0.0811  0.5696  0.1771
 5154TIP3    H236954   1.401   2.788   4.465  0.0733  0.5756  0.4496
 5155TIP3   OH236955   3.855   0.754  17.222 -0.1538 -0.2034  0.2808
 5155TIP3    H136956   3.764   0.723  17.218 -0.6277  0.5704  3.7068
 5155TIP3    H236957   3.847   0.849  17.229  0.8649 -0.2044  1.6883
 5156TIP3   OH236958   0.559   1.583   1.810  0.1437 -0.0893 -0.3530
 5156TIP3    H136959   0.650   1.597   1.836 -0.2444 -0.6095  1.3186
 5156TIP3    H236960   0.559   1.497   1.769  0.0372 -1.0428  1.5742
 5157TIP3   OH236961   6.098   2.636   1.532  0.4881  0.4721 -0.1686
 5157TIP3    H136962   6.127   2.606   1.446  1.0806 -1.1572  0.5795
 5157TIP3    H236963   6.179   2.658   1.578  0.4047 -1.5679  1.0096
 5158TIP3   OH236964   1.533   0.036   3.798  0.3991 -0.0268 -0.2481
 5158TIP3    H136965   1.554  -0.055   3.779  0.9543  0.1913 -0.7151
 5158TIP3    H236966   1.600   0.064   3.859 -0.7098 -0.3862  1.1762
 5159TIP3   OH236967   1.076   5.381  11.419 -0.0693  0.7264 -0.0853
 5159TIP3    H136968   1.072   5.472  11.447  0.3996 -0.1132  2.8941
 5159TIP3    H236969   0.984   5.354  11.412 -0.2231  0.3615  2.8492
 5160TIP3   OH236970   2.103   3.536  13.569 -0.3096 -0.0156 -0.0018
 5160TIP3    H136971   2.104   3.450  13.527  1.2620 -0.0885  0.1831
 5160TIP3    H236972   2.105   3.598  13.496  0.9829 -0.1417 -0.0749
 5161TIP3   OH236973   4.950   6.395   4.313 -0.3373 -0.4354 -0.3826
 5161TIP3    H136974   4.904   6.396   4.396 -0.0338  0.0189 -0.2194
 5161TIP3    H236975   4.902   6.455   4.257 -0.3893 -0.5424 -0.4531
 5162TIP3   OH236976   6.789   2.508   0.717  0.2348 -0.2046 -0.4183
 5162TIP3    H136977   6.864   2.450   0.725  0.9948  0.9717  1.5656
 5162TIP3    H236978   6.766   2.506   0.624  2.1258 -1.3129 -0.8828
 5163TIP3   OH236979   4.078   1.396  12.645 -0.1905 -0.1369  0.2593
 5163TIP3    H136980   3.989   1.367  12.669 -1.1496  1.0557 -1.7529
 5163TIP3    H236981   4.120   1.317  12.611 -1.0467 -0.3262 -0.3732
 5164TIP3   OH236982   3.906   3.209   2.743  0.1013 -0.2956  0.2156
 5164TIP3    H136983   3.935   3.266   2.814  0.3629  2.7709 -2.2677
 5164TIP3    H236984   3.813   3.193   2.760 -0.1800  1.5834  0.4583
 5165TIP3   OH236985   0.594   3.012  15.112  0.2866  0.0070  0.5376
 5165TIP3    H136986   0.652   2.996  15.037 -1.5443 -0.5211 -0.8129
 5165TIP3    H236987   0.510   3.036  15.072 -0.8457 -0.7274  2.4214
 5166TIP3   OH236988   6.644   1.011  12.983 -0.3823 -0.2618 -0.5212
 5166TIP3    H136989   6.658   1.086  12.925  1.8786  0.0839  0.4089
 5166TIP3    H236990   6.685   0.937  12.938  0.9979 -0.0808  0.4071
 5167TIP3   OH236991   4.719   0.384   4.957 -0.0986  0.1693  0.9535
 5167TIP3    H136992   4.805   0.368   4.918 -0.4380 -0.4291  0.4420
 5167TIP3    H236993   4.738   0.421   5.043  0.6597  1.1682  0.3654
 5168TIP3   OH236994   6.190   0.107  16.761 -0.2182  0.7990 -0.0485
 5168TIP3    H136995   6.153   0.188  16.724 -0.0114  1.3624  0.9611
 5168TIP3    H236996   6.282   0.129  16.778 -0.3062  0.5397  0.7719
 5169TIP3   OH236997   3.559   0.588   6.514  0.0995 -0.3722  0.2482
 5169TIP3    H136998   3.567   0.645   6.591 -1.7364 -0.7891  0.7608
 5169TIP3    H236999   3.590   0.503   6.545  2.1683  0.1393 -0.3221
 5170TIP3   OH237000   1.035   6.117  13.598  0.5276  0.4229 -0.1467
 5170TIP3    H137001   1.071   6.056  13.662  1.6710  1.4196  0.1889
 5170TIP3    H237002   1.012   6.195  13.649 -0.4488  0.4615 -0.6425
 5171TIP3   OH237003   3.199   1.622   0.015 -0.0194 -0.4333  0.0948
 5171TIP3    H137004   3.144   1.573   0.076  0.2404 -0.6881  0.1265
 5171TIP3    H237005   3.258   1.557  -0.022  0.7932 -0.0352  0.6520
 5172TIP3   OH237006   4.485   1.773   2.152  0.3322 -0.1530  0.3227
 5172TIP3    H137007   4.549   1.834   2.114 -1.2901  0.9422 -0.7048
 5172TIP3    H237008   4.462   1.714   2.080  0.8315 -1.1147  0.9349
 5173TIP3   OH237009   5.824   4.605   1.399  0.9898  0.2874 -0.2007
 5173TIP3    H137010   5.791   4.620   1.311  0.3427 -0.1637 -0.0382
 5173TIP3    H237011   5.832   4.510   1.406 -0.6039  0.2051  0.8031
 5174TIP3   OH237012   0.446   0.511   0.624  0.2670 -0.7381 -0.0152
 5174TIP3    H137013   0.416   0.421   0.630 -1.2109 -0.1791  1.0046
 5174TIP3    H237014   0.480   0.532   0.711  0.9993 -0.4341 -0.3630
 5175TIP3   OH237015   4.070   0.315   2.115 -0.1869  0.9358  0.1881
 5175TIP3    H137016   4.131   0.245   2.140 -0.7043  0.1607 -0.6530
 5175TIP3    H237017   4.096   0.337   2.025  1.5046  3.5060  1.2703
 5176TIP3   OH237018   6.542   0.329   3.546  0.2281 -0.1361  0.0655
 5176TIP3    H137019   6.578   0.391   3.483 -0.8342  1.2414  0.7652
 5176TIP3    H237020   6.447   0.333   3.532  0.1312 -1.3714  0.3426
 5177TIP3   OH237021   5.792   6.788   4.006 -0.0589  0.1942 -0.7218
 5177TIP3    H137022   5.864   6.726   4.015 -0.3464 -0.1483 -0.7384
 5177TIP3    H237023   5.713   6.733   4.007 -0.3504  0.6194 -0.0784
 5178TIP3   OH237024   1.849   2.632  15.509  0.2611 -0.2645  0.1901
 5178TIP3    H137025   1.771   2.595  15.549 -0.0309 -1.1362 -1.1514
 5178TIP3    H237026   1.922   2.591  15.556 -0.0756 -0.2587  0.7208
 5179TIP3   OH237027   5.490   3.629   5.923 -1.1379  0.2880  0.3868
 5179TIP3    H137028   5.528   3.541   5.915  0.5085  0.9794  0.3888
 5179TIP3    H237029   5.398   3.614   5.941 -0.6480 -1.4704  1.5643
 5180TIP3   OH237030   5.376   3.227  16.021  0.7962 -0.2958  0.3265
 5180TIP3    H137031   5.463   3.188  16.027  1.5936  1.3165 -0.5395
 5180TIP3    H237032   5.391   3.321  16.017 -1.0938  0.1269  2.1723
 5181TIP3   OH237033   2.281   0.955   3.514  0.2329  0.1333 -0.4455
 5181TIP3    H137034   2.330   1.001   3.445  2.7302  1.1443  1.9099
 5181TIP3    H237035   2.349   0.918   3.570 -1.7622 -2.4821  0.3281
 5182TIP3   OH237036   5.903   5.393   2.414  0.4411 -0.8230  0.0401
 5182TIP3    H137037   5.971   5.450   2.449  0.0254  0.0509 -0.5499
 5182TIP3    H237038   5.880   5.432   2.329  0.7636 -2.3540 -0.7789
 5183TIP3   OH237039   3.440   6.580  14.415 -0.3110  0.4689  0.5657
 5183TIP3    H137040   3.515   6.637  14.401  1.3811 -2.0313 -1.0106
 5183TIP3    H237041   3.459   6.535  14.497  0.8527 -1.4532 -0.7032
 5184TIP3   OH237042   4.838   4.173   5.503 -0.2660 -0.4196  0.3197
 5184TIP3    H137043   4.874   4.262   5.500 -0.5152 -0.2166  2.3356
 5184TIP3    H237044   4.744   4.185   5.493 -0.1311 -0.6336 -1.2959
 5185TIP3   OH237045   6.333   4.188  13.749 -0.9398  0.3151 -0.0540
 5185TIP3    H137046   6.356   4.214  13.660 -1.1776  0.7711  0.0166
 5185TIP3    H237047   6.237   4.186  13.749 -0.9276 -1.8269 -0.4168
 5186TIP3   OH237048   4.907   3.258  14.227  0.4338  0.3540  0.6802
 5186TIP3    H137049   4.945   3.191  14.171  0.3309  0.8453  0.0160
 5186TIP3    H237050   4.898   3.216  14.313 -1.7458 -1.2124 -0.2832
 5187TIP3   OH237051   4.000   2.178   1.505  0.4948  0.2347  0.3191
 5187TIP3    H137052   4.064   2.225   1.557  1.0745 -0.2576  0.0611
 5187TIP3    H237053   3.952   2.246   1.458  2.1560  0.5361 -1.0152
 5188TIP3   OH237054   0.718   3.616  17.087  0.0383  0.7413 -0.0451
 5188TIP3    H137055   0.637   3.635  17.040 -0.0195  0.8858  0.1138
 5188TIP3    H237056   0.694   3.545  17.147  0.5063 -0.5649 -1.3682
 5189TIP3   OH237057   1.699   4.902  11.112 -0.0329 -0.2248 -0.1981
 5189TIP3    H137058   1.660   4.908  11.025  0.6092  1.3361 -0.4040
 5189TIP3    H237059   1.773   4.963  11.109  0.5817 -0.8799  1.1304
 5190TIP3   OH237060   2.302   1.840   4.342 -0.0838  0.7303 -0.1297
 5190TIP3    H137061   2.235   1.863   4.406 -1.1507  0.2996 -1.0620
 5190TIP3    H237062   2.268   1.761   4.299  0.0220  1.6729 -2.0335
 5191TIP3   OH237063   5.135   4.890  16.001  0.1629 -0.2363 -0.0356
 5191TIP3    H137064   5.194   4.817  16.021  1.0348  0.2215 -0.8891
 5191TIP3    H237065   5.161   4.959  16.062 -0.1291 -0.3537  0.2275
 5192TIP3   OH237066   6.187   0.055  12.069  0.0856  0.0592  0.3717
 5192TIP3    H137067   6.129   0.034  11.996  0.7142 -0.7989  0.1136
 5192TIP3    H237068   6.249  -0.017  12.072  1.9000  1.5521 -0.1122
 5193TIP3   OH237069   2.385   1.420   3.989  0.9755 -0.4029 -0.5083
 5193TIP3    H137070   2.480   1.412   3.987  1.3175  2.6004  1.3711
 5193TIP3    H237071   2.368   1.514   3.996 -2.1262 -0.8923 -0.5944
 5194TIP3   OH237072   1.018   6.569  16.945  0.6185  0.0969  0.5992
 5194TIP3    H137073   1.105   6.578  16.906  0.3349  1.7182  0.2947
 5194TIP3    H237074   0.967   6.521  16.880  0.6100  1.3272 -0.3189
 5195TIP3   OH237075   3.678   1.415  14.291 -0.3304  0.1966  0.0789
 5195TIP3    H137076   3.746   1.423  14.358 -1.1015 -1.5917  1.1213
 5195TIP3    H237077   3.636   1.501  14.289  1.2945  1.0029  0.1365
 5196TIP3   OH237078   1.326   3.283  12.902 -0.3159  0.1907 -0.2013
 5196TIP3    H137079   1.256   3.293  12.838  0.0951  2.2676 -0.3681
 5196TIP3    H237080   1.405   3.317  12.858  0.6401 -1.3893  0.2539
 5197TIP3   OH237081   0.451   4.024  16.126  0.9158  0.1339 -0.1009
 5197TIP3    H137082   0.407   4.052  16.046  0.8482 -0.6354 -0.3420
 5197TIP3    H237083   0.401   3.948  16.155  1.7708 -0.4316 -0.0885
 5198TIP3   OH237084   0.374   5.368  12.897  0.2812 -0.3696  0.2185
 5198TIP3    H137085   0.444   5.419  12.855 -0.2963 -0.1523 -0.4933
 5198TIP3    H237086   0.420   5.299  12.945  0.9863 -0.2626 -0.2927
 5199TIP3   OH237087   2.049   1.078   0.398  0.2182  0.2978  0.2141
 5199TIP3    H137088   2.081   1.020   0.330 -0.5468  0.9252 -0.6899
 5199TIP3    H237089   2.036   1.021   0.474  0.6279 -0.4828 -0.2953
 5200TIP3   OH237090   4.430   6.232   3.857  0.0696 -0.6888 -0.0761
 5200TIP3    H137091   4.382   6.189   3.786 -0.3952 -1.2920  0.5912
 5200TIP3    H237092   4.460   6.160   3.913 -1.3675 -0.1340  1.4575
 5201TIP3   OH237093   5.330   6.778   2.881  0.1485  0.5651 -0.1248
 5201TIP3    H137094   5.276   6.781   2.802  0.4683  2.3081 -0.2905
 5201TIP3    H237095   5.317   6.863   2.922 -0.1593 -0.3951  1.8169
 5202TIP3   OH237096   4.932   2.852   5.805  0.1406  0.4667 -0.5535
 5202TIP3    H137097   4.843   2.836   5.772  1.0617 -1.9659 -1.9753
 5202TIP3    H237098   4.983   2.875   5.728  1.3668 -0.9410 -0.1819
 5203TIP3   OH237099   3.689   6.007  13.930  0.2560 -0.2334  0.3348
 5203TIP3    H137100   3.644   6.089  13.908 -0.6688 -1.0731 -0.9414
 5203TIP3    H237101   3.620   5.950  13.964  0.6691 -0.9120  0.0462
 5204TIP3   OH237102   2.076   3.816   4.609 -0.3008  0.0875  0.5800
 5204TIP3    H137103   2.023   3.804   4.530 -0.4235  2.4073  0.2726
 5204TIP3    H237104   2.021   3.869   4.666  0.9149  0.8488  1.0597
 5205TIP3   OH237105   0.735   5.093   4.366  0.9358  0.1103  0.3228
 5205TIP3    H137106   0.680   5.143   4.305 -0.1442 -1.0051  0.3616
 5205TIP3    H237107   0.821   5.135   4.360  0.5647  0.7037 -1.1521
 5206TIP3   OH237108   0.292   0.774  16.619  0.2134 -0.8463 -0.2663
 5206TIP3    H137109   0.364   0.836  16.606 -0.7958 -0.0245 -2.0808
 5206TIP3    H237110   0.328   0.690  16.593  0.3325 -0.3262 -1.8281
 5207TIP3   OH237111   5.810   1.116  14.330 -0.1040  0.2569  0.6534
 5207TIP3    H137112   5.780   1.205  14.349 -0.4454  0.1686  0.5310
 5207TIP3    H237113   5.853   1.087  14.410 -0.4893  0.3263  0.8848
 5208TIP3   OH237114   5.418   0.757  11.410 -0.6080 -1.0394 -0.6303
 5208TIP3    H137115   5.335   0.709  11.410 -0.8975 -0.6333  1.7231
 5208TIP3    H237116   5.475   0.706  11.468  0.1361 -0.2744 -0.6757
 5209TIP3   OH237117   4.627   1.508  15.202  0.3636 -0.3416 -0.1348
 5209TIP3    H137118   4.709   1.557  15.209  1.5086 -2.4141  1.8579
 5209TIP3    H237119   4.564   1.561  15.250  0.9938  0.4166 -0.1339
 5210TIP3   OH237120   0.413   1.393  13.939 -0.1564  0.2177 -0.3650
 5210TIP3    H137121   0.433   1.313  13.987 -1.6173  1.1583  1.9072
 5210TIP3    H237122   0.406   1.365  13.848  0.2938 -2.0668  0.2623
 5211TIP3   OH237123   6.438   0.661  14.208  0.1223 -0.0398  0.7904
 5211TIP3    H137124   6.456   0.609  14.286  2.2236  0.2848  0.5503
 5211TIP3    H237125   6.405   0.597  14.145  1.7260 -0.9605  0.8282
 5212TIP3   OH237126   4.967   1.683   0.887 -0.3104 -0.6732 -0.0409
 5212TIP3    H137127   4.957   1.627   0.810  0.4999 -0.7807 -0.0761
 5212TIP3    H237128   4.882   1.725   0.898 -0.4725 -0.7751 -0.8980
 5213TIP3   OH237129   4.587   2.780   0.165  0.3923 -0.5872 -0.8149
 5213TIP3    H137130   4.564   2.871   0.185  1.7284 -0.1430 -1.2687
 5213TIP3    H237131   4.507   2.731   0.183 -0.0035  0.5183  0.5719
 5214TIP3   OH237132   3.192   6.554   5.263 -0.2116  0.3272 -0.1476
 5214TIP3    H137133   3.118   6.494   5.249 -0.6575  0.8188  0.1375
 5214TIP3    H237134   3.240   6.516   5.337 -0.6409  0.4761  0.2003
 5215TIP3   OH237135   0.504   6.797   6.106  0.2062 -0.3605 -0.2115
 5215TIP3    H137136   0.460   6.742   6.041  0.1665 -0.7101  0.1109
 5215TIP3    H237137   0.498   6.747   6.187  2.7567 -1.2526 -0.4969
 5216TIP3   OH237138   3.000   4.532   1.008 -0.3197  0.0546 -0.5238
 5216TIP3    H137139   2.994   4.505   1.099 -0.1415  0.2634 -0.4493
 5216TIP3    H237140   2.966   4.457   0.958  1.8088 -1.0144 -0.4150
 5217TIP3   OH237141   0.280   2.578   0.698 -0.5654 -0.1402  0.0836
 5217TIP3    H137142   0.290   2.486   0.671 -4.2755 -0.4839 -0.5253
 5217TIP3    H237143   0.262   2.574   0.791 -2.5001 -0.2291 -0.2706
 5218TIP3   OH237144   5.057   6.350  11.729  0.3080 -0.2452 -0.3775
 5218TIP3    H137145   5.041   6.303  11.647 -0.0148  1.4751 -1.3164
 5218TIP3    H237146   5.076   6.439  11.702 -0.2370  0.4430  1.4624
 5219TIP3   OH237147   1.039   5.092  17.196 -0.5892  0.5008  0.6431
 5219TIP3    H137148   1.052   4.997  17.195  0.2866  0.6038 -1.5847
 5219TIP3    H237149   1.119   5.127  17.234  1.5541  0.5792 -3.6124
 5220TIP3   OH237150   1.860   0.056   5.912 -0.2007  0.2666  0.4647
 5220TIP3    H137151   1.865  -0.036   5.937  0.1276  0.3687  0.7688
 5220TIP3    H237152   1.885   0.104   5.991 -0.7032  0.6245  0.4079
 5221TIP3   OH237153   5.186   5.625   1.750  0.1608  0.1020 -0.4511
 5221TIP3    H137154   5.212   5.614   1.842 -1.4134  1.6681  0.2150
 5221TIP3    H237155   5.227   5.551   1.705  0.7427 -0.8495  1.5492
 5222TIP3   OH237156   4.017   6.051  11.672  0.4179 -0.3212  0.0157
 5222TIP3    H137157   4.001   6.014  11.585 -0.3490  0.8041 -0.3317
 5222TIP3    H237158   4.088   6.114  11.658 -0.4415  0.6445 -0.0006
 5223TIP3   OH237159   3.754   6.792   0.338  0.0548 -1.0325 -0.1779
 5223TIP3    H137160   3.837   6.832   0.315 -0.0233  0.3756  1.9015
 5223TIP3    H237161   3.769   6.753   0.424 -0.9687 -2.1889 -0.5093
 5224TIP3   OH237162   0.467   6.703   4.381  0.2073 -0.2205 -0.1834
 5224TIP3    H137163   0.387   6.744   4.348 -0.1598 -1.2367 -0.5801
 5224TIP3    H237164   0.517   6.681   4.302  0.3439 -0.6465  0.0213
 5225TIP3   OH237165   5.399   6.032  16.858 -0.2325 -0.0562 -0.0616
 5225TIP3    H137166   5.380   5.946  16.895  0.7496  0.0382  0.6760
 5225TIP3    H237167   5.490   6.049  16.880 -0.2470  0.9356 -0.6897
 5226TIP3   OH237168   3.017   0.629   2.892 -0.5200 -0.0154 -0.1072
 5226TIP3    H137169   3.088   0.617   2.956 -0.8521 -0.9311  0.1043
 5226TIP3    H237170   2.939   0.598   2.937 -0.8065 -0.3880 -0.8546
 5227TIP3   OH237171   0.012   6.623   4.249  0.4015 -0.3120  0.5272
 5227TIP3    H137172  -0.019   6.640   4.339 -1.6821 -1.0195 -0.0190
 5227TIP3    H237173   0.026   6.710   4.212  1.0963 -0.0087  1.4699
 5228TIP3   OH237174   5.280   6.433   3.843  0.0309 -0.0655 -0.1294
 5228TIP3    H137175   5.214   6.411   3.908 -0.1623 -3.3549 -1.3506
 5228TIP3    H237176   5.243   6.508   3.795 -1.3307  0.1894  1.3069
 5229TIP3   OH237177   3.637   2.688   6.510 -0.1962 -0.2860 -0.0486
 5229TIP3    H137178   3.673   2.774   6.490  1.3842 -0.8067  0.4611
 5229TIP3    H237179   3.552   2.707   6.549 -0.0044  1.0314 -0.2254
 5230TIP3   OH237180   4.671   4.121  15.190  0.6644 -0.3134  0.4608
 5230TIP3    H137181   4.660   4.028  15.211 -2.0907 -0.2790 -0.5869
 5230TIP3    H237182   4.659   4.126  15.095 -1.1709  1.3170  0.7371
 5231TIP3   OH237183   1.421   1.087  17.202  0.2843  0.0495 -0.8353
 5231TIP3    H137184   1.421   1.176  17.169  2.8272 -0.1601 -1.5368
 5231TIP3    H237185   1.501   1.081  17.256 -0.8929 -1.2277  0.8267
 5232TIP3   OH237186   2.096   4.284  13.857  0.3827 -0.1533 -0.6963
 5232TIP3    H137187   2.166   4.236  13.902  0.4249  1.9387  1.6051
 5232TIP3    H237188   2.016   4.239  13.884  0.5158  0.2468  0.4162
 5233TIP3   OH237189   1.075   1.031  12.964 -0.2356  0.0052  0.5715
 5233TIP3    H137190   1.073   1.069  13.052 -1.1508  1.4113 -0.0368
 5233TIP3    H237191   1.148   1.075  12.920  0.1531 -0.6187  0.5732
 5234TIP3   OH237192   3.338   5.871  16.391 -0.1121 -0.4828 -0.1632
 5234TIP3    H137193   3.356   5.909  16.305 -0.6500 -2.2197 -1.0630
 5234TIP3    H237194   3.423   5.845  16.426  0.0639 -0.1225 -0.3281
 5235TIP3   OH237195   2.820   1.768  10.635  0.3906 -0.1385  0.0944
 5235TIP3    H137196   2.783   1.690  10.595 -0.0823  0.5257 -0.7693
 5235TIP3    H237197   2.746   1.810  10.680  0.9831 -1.0771  2.0192
 5236TIP3   OH237198   2.161   2.001  12.943 -0.2510 -0.5428  0.2849
 5236TIP3    H137199   2.079   2.002  12.992 -0.2139 -0.9890  0.3612
 5236TIP3    H237200   2.225   1.964  13.004 -0.2523 -1.3075 -0.1711
 5237TIP3   OH237201   6.212   2.862   1.238  0.2895  0.3737 -0.3731
 5237TIP3    H137202   6.160   2.786   1.211 -0.2805  0.7705 -0.3869
 5237TIP3    H237203   6.185   2.877   1.329 -0.9994  1.7242 -0.9493
 5238TIP3   OH237204   1.273   1.726  17.126  0.0514 -0.1527 -0.1691
 5238TIP3    H137205   1.354   1.724  17.075  0.6304 -2.7508  0.7894
 5238TIP3    H237206   1.217   1.660  17.087 -1.6366  1.5856 -0.7896
 5239TIP3   OH237207   3.695   2.542  12.631  0.2085 -0.0892 -0.0522
 5239TIP3    H137208   3.622   2.504  12.581  0.5943 -0.4569 -0.3338
 5239TIP3    H237209   3.675   2.519  12.722 -0.1696  0.0435 -0.0990
 5240TIP3   OH237210   3.377   4.631  16.676 -0.1594 -0.1925 -0.0610
 5240TIP3    H137211   3.432   4.595  16.606  1.2148  0.2819  0.7671
 5240TIP3    H237212   3.294   4.653  16.632 -0.9585 -4.0675 -0.6642
 5241TIP3   OH237213   6.380   2.592  13.898 -1.0434 -0.4148  0.4788
 5241TIP3    H137214   6.361   2.615  13.807  1.5849 -2.3908 -0.6483
 5241TIP3    H237215   6.400   2.676  13.940 -0.9747  0.3781 -1.0954
 5242TIP3   OH237216   2.587   5.843  13.641  0.0345 -0.6898  0.0258
 5242TIP3    H137217   2.549   5.762  13.673 -0.4239 -0.3081  0.4616
 5242TIP3    H237218   2.670   5.851  13.687  0.0450 -0.8695  0.0378
 5243TIP3   OH237219   4.501   6.102   5.639 -0.2977  0.1185  0.2535
 5243TIP3    H137220   4.451   6.023   5.619  0.4226 -0.2881  0.0709
 5243TIP3    H237221   4.442   6.174   5.615 -0.3120 -0.3599 -1.1918
 5244TIP3   OH237222   1.411   3.728  11.877 -0.0809  0.7742 -0.3396
 5244TIP3    H137223   1.434   3.756  11.788  1.2486 -0.8208 -0.5243
 5244TIP3    H237224   1.394   3.634  11.869 -2.0659  1.0098  0.7146
 5245TIP3   OH237225   6.480   0.739  14.588  0.3778  0.4114 -0.2366
 5245TIP3    H137226   6.461   0.667  14.528  3.4585 -1.1901  0.6115
 5245TIP3    H237227   6.403   0.744  14.645 -0.9452 -0.5295 -1.8824
 5246TIP3   OH237228   0.258   6.237  13.935  0.2884 -0.2207 -0.5721
 5246TIP3    H137229   0.214   6.316  13.904  1.4951  1.0172  0.8101
 5246TIP3    H237230   0.187   6.182  13.970 -0.5125  0.3635 -1.2485
 5247TIP3   OH237231   6.117   1.020  14.403 -0.1108  0.7506 -0.1584
 5247TIP3    H137232   6.052   1.040  14.470 -0.0669  2.2754 -0.5458
 5247TIP3    H237233   6.141   0.929  14.419 -0.2585  1.0271  1.7403
 5248TIP3   OH237234   3.121   3.121   2.268 -0.0022 -0.5588  0.3805
 5248TIP3    H137235   3.133   3.175   2.190  0.5520 -0.3741  0.5889
 5248TIP3    H237236   3.097   3.183   2.337 -1.2880 -0.8224  0.1721
 5249TIP3   OH237237   3.128   0.038   4.985 -0.4887 -0.1861 -0.2479
 5249TIP3    H137238   3.091  -0.021   4.920 -0.9288  1.0539 -1.1294
 5249TIP3    H237239   3.153   0.117   4.936 -0.2565  0.5161  0.9664
 5250TIP3   OH237240   6.428   0.560   0.251 -0.9579 -0.7598 -0.6887
 5250TIP3    H137241   6.475   0.485   0.284  0.0859 -0.4075 -1.3499
 5250TIP3    H237242   6.357   0.523   0.198 -0.8805 -1.2770 -0.4269
 5251TIP3   OH237243   3.692   1.489  13.693  0.5323 -0.1255  0.0414
 5251TIP3    H137244   3.622   1.427  13.715  0.0422  0.0801 -0.9260
 5251TIP3    H237245   3.679   1.508  13.600  0.7467  1.3607  0.3109
 5252TIP3   OH237246   3.448   5.334   1.958  0.8464 -0.0089  0.0847
 5252TIP3    H137247   3.405   5.319   2.042 -0.2286 -0.7014 -0.5634
 5252TIP3    H237248   3.538   5.305   1.971  0.2509 -1.7523  0.5171
 5253TIP3   OH237249   5.545   5.103   6.636  0.3279  0.1954  0.0141
 5253TIP3    H137250   5.602   5.082   6.710  1.6537  2.9701 -0.1522
 5253TIP3    H237251   5.606   5.126   6.566 -0.8959 -2.6395 -2.0751
 5254TIP3   OH237252   5.918   2.828  12.777 -0.0740 -0.3333  0.2437
 5254TIP3    H137253   5.966   2.850  12.856  0.8322  0.8578 -0.6159
 5254TIP3    H237254   5.961   2.878  12.708  1.9428 -4.5820 -1.7836
 5255TIP3   OH237255   6.730   4.786  15.283  0.3279  0.0851  0.3081
 5255TIP3    H137256   6.759   4.768  15.373 -0.8976  1.5430  1.0270
 5255TIP3    H237257   6.807   4.822  15.240  0.8051 -0.2040  0.9040
 5256TIP3   OH237258   0.634   3.253   0.578  0.5386  0.1909  0.5633
 5256TIP3    H137259   0.597   3.332   0.617  0.1330  0.0266  0.5207
 5256TIP3    H237260   0.574   3.231   0.506  1.9834  1.2155 -0.9787
 5257TIP3   OH237261   1.347   1.277   1.685  0.3753 -0.4605  0.3265
 5257TIP3    H137262   1.437   1.276   1.716  0.4005  0.0069  0.2636
 5257TIP3    H237263   1.353   1.267   1.590  0.3615 -0.4227  0.3215
 5258TIP3   OH237264   6.289   1.081   4.501 -0.0650 -0.0315 -0.2772
 5258TIP3    H137265   6.270   0.987   4.501  0.5706 -0.1605  0.5650
 5258TIP3    H237266   6.299   1.104   4.593  3.2433  0.1387 -0.6312
 5259TIP3   OH237267   3.982   1.229   4.000  0.3867  0.0041  0.5396
 5259TIP3    H137268   3.913   1.217   4.064  0.4331 -0.8024  0.4442
 5259TIP3    H237269   4.041   1.293   4.040 -0.3403  0.5998  0.6740
 5260TIP3   OH237270   0.031   4.614   1.304 -0.2323 -0.7633  0.0434
 5260TIP3    H137271   0.056   4.533   1.350 -1.2361 -1.0058  0.1741
 5260TIP3    H237272   0.077   4.608   1.220  0.1589 -1.1945  0.2817
 5261TIP3   OH237273   2.510   5.430   4.821  0.2820 -0.4882  0.0137
 5261TIP3    H137274   2.592   5.470   4.794 -0.4198  2.4868  2.0704
 5261TIP3    H237275   2.507   5.441   4.916 -2.1689 -1.1744  0.0623
 5262TIP3   OH237276   2.730   2.919   3.294  0.1759 -0.7382  0.1116
 5262TIP3    H137277   2.744   2.825   3.286 -0.0207 -0.6616 -1.1223
 5262TIP3    H237278   2.685   2.944   3.214 -0.3519  0.3037  0.7233
 5263TIP3   OH237279   1.893   0.650   1.020 -0.1969  0.0224 -0.1791
 5263TIP3    H137280   1.941   0.725   0.985  0.8750 -1.2986 -1.6146
 5263TIP3    H237281   1.832   0.626   0.950 -0.2271 -0.7198  0.1001
 5264TIP3   OH237282   6.365   5.672  15.034 -0.3583  0.5923 -0.1612
 5264TIP3    H137283   6.406   5.709  15.112  0.3394  0.3010 -0.3828
 5264TIP3    H237284   6.393   5.581  15.033 -0.9098  0.4210 -0.3914
 5265TIP3   OH237285   5.438   5.543  15.453 -0.2219  0.5576 -0.1999
 5265TIP3    H137286   5.429   5.596  15.532  2.1331  1.0228 -0.2329
 5265TIP3    H237287   5.433   5.606  15.381  0.1672  0.4292 -0.3374
 5266TIP3   OH237288   2.185   0.278   0.773 -0.1002  0.3315 -0.0414
 5266TIP3    H137289   2.161   0.348   0.834 -1.2285  0.4901 -0.6455
 5266TIP3    H237290   2.274   0.298   0.747  0.1635  0.6278  1.0510
 5267TIP3   OH237291   1.007   3.462  12.296  0.0426  0.2375 -0.4945
 5267TIP3    H137292   1.063   3.444  12.220  1.5523 -0.9463  0.8651
 5267TIP3    H237293   1.021   3.555  12.314  2.2328 -0.2168  0.3145
 5268TIP3   OH237294   5.746   2.003   0.119  0.4333 -0.1292 -0.8459
 5268TIP3    H137295   5.770   1.985   0.210 -0.2451  2.2354 -0.1616
 5268TIP3    H237296   5.654   2.030   0.123  0.3389 -0.2049 -2.2554
 5269TIP3   OH237297   5.177   5.208   2.099  0.1742  0.2154  0.1811
 5269TIP3    H137298   5.098   5.173   2.057  0.0243  1.2022 -0.3866
 5269TIP3    H237299   5.148   5.290   2.140  1.0459  0.9425 -0.6300
 5270TIP3   OH237300   1.362   4.771   3.345 -0.5575 -0.0008  0.3106
 5270TIP3    H137301   1.296   4.815   3.398  0.2635  1.4764  0.1557
 5270TIP3    H237302   1.416   4.723   3.407 -1.7867 -1.2465  0.4337
 5271TIP3   OH237303   0.989   0.106   1.435 -0.1573  0.0593  0.4842
 5271TIP3    H137304   0.981   0.130   1.528 -0.4440 -1.3783  0.8489
 5271TIP3    H237305   0.899   0.088   1.407 -0.1584  1.2265 -0.2882
 5272TIP3   OH237306   0.169   0.473   4.642 -0.0377 -0.3994  0.6184
 5272TIP3    H137307   0.179   0.398   4.583  0.8150 -0.1467  0.4370
 5272TIP3    H237308   0.258   0.499   4.664 -0.3039  1.1647 -0.0828
 5273TIP3   OH237309   4.236   0.189   0.163 -0.1660  0.3209  0.5525
 5273TIP3    H137310   4.269   0.249   0.096  0.2564 -0.1440  0.3471
 5273TIP3    H237311   4.233   0.242   0.242  1.3580  0.2879  0.6455
 5274TIP3   OH237312   3.970   3.070  16.275  0.0193 -0.4765  0.1537
 5274TIP3    H137313   4.017   3.011  16.215 -0.4964 -1.5388  0.7636
 5274TIP3    H237314   3.879   3.065  16.245  0.1504  0.8591 -0.4628
 5275TIP3   OH237315   4.650   4.412   0.360  0.1583  0.3225 -0.3324
 5275TIP3    H137316   4.581   4.402   0.295 -0.5904  0.3352  0.4453
 5275TIP3    H237317   4.731   4.391   0.313 -0.4425 -0.3739 -1.0796
 5276TIP3   OH237318   3.241   5.624   3.012  0.2704 -0.4157  0.0167
 5276TIP3    H137319   3.318   5.595   3.061  0.3012  1.8615  1.3907
 5276TIP3    H237320   3.278   5.668   2.935  0.4279  1.8466  1.3420
 5277TIP3   OH237321   6.435   4.315  16.681  0.2485  0.6840  0.1035
 5277TIP3    H137322   6.412   4.227  16.712  1.6111  1.7081  4.2573
 5277TIP3    H237323   6.512   4.301  16.625 -0.2662 -0.8673 -0.2418
 5278TIP3   OH237324   5.692   6.611  15.225 -0.0641  0.0823  0.2196
 5278TIP3    H137325   5.731   6.560  15.296  1.1185 -0.6076 -0.9062
 5278TIP3    H237326   5.746   6.689  15.219  0.4666 -0.3402 -0.5871
 5279TIP3   OH237327   3.961   1.676  13.735  0.1167  0.2931  0.3561
 5279TIP3    H137328   4.013   1.659  13.814 -0.1130 -0.1606  0.4098
 5279TIP3    H237329   3.902   1.601  13.729 -0.5280  0.7977  0.2940
 5280TIP3   OH237330   6.153   5.859  14.680 -0.0566 -0.0777  0.1470
 5280TIP3    H137331   6.180   5.872  14.771  2.1569  2.9048 -0.8786
 5280TIP3    H237332   6.121   5.945  14.652 -0.1430 -0.8157 -2.0771
 5281TIP3   OH237333   0.311   0.036   5.578 -0.1757 -0.1010  0.3257
 5281TIP3    H137334   0.303  -0.049   5.534 -0.1080  0.0335  0.0530
 5281TIP3    H237335   0.244   0.034   5.646  0.1711 -0.5811  0.6541
 5282TIP3   OH237336   4.428   3.327  13.810  0.0108 -0.2147  0.3610
 5282TIP3    H137337   4.477   3.371  13.741 -0.1412  0.8399  0.9256
 5282TIP3    H237338   4.486   3.330  13.886  0.3728 -1.7938  0.1668
 5283TIP3   OH237339   0.360   3.128   0.059  0.2902  0.0467  0.3294
 5283TIP3    H137340   0.455   3.122   0.066  0.1157 -1.2061  1.9830
 5283TIP3    H237341   0.328   3.100   0.145 -1.5790  0.1123 -0.3273
 5284TIP3   OH237342   5.407   4.414   1.368  0.3745  0.2519 -0.2052
 5284TIP3    H137343   5.342   4.477   1.400  1.3316  1.6208 -0.9027
 5284TIP3    H237344   5.398   4.417   1.273 -0.1775 -1.3489 -0.2224
 5285TIP3   OH237345   0.234   4.530  14.635  0.4978  0.3773  0.2122
 5285TIP3    H137346   0.190   4.614  14.645  1.3015  0.8665 -0.3114
 5285TIP3    H237347   0.204   4.497  14.551  1.3165  0.8266 -0.2596
 5286TIP3   OH237348   6.013   0.031   1.093  0.3200 -0.5558  0.0987
 5286TIP3    H137349   5.938  -0.025   1.112  1.6379 -2.1867  0.6574
 5286TIP3    H237350   6.005   0.103   1.156 -0.9730 -0.5230 -0.0958
 5287TIP3   OH237351   2.693   0.432  16.027 -0.1548 -0.0324  0.4102
 5287TIP3    H137352   2.635   0.408  15.955 -1.7474 -0.7255  1.8801
 5287TIP3    H237353   2.756   0.493  15.988 -2.9105  2.1376 -0.8691
 5288TIP3   OH237354   1.923   3.939  11.184 -0.1576  0.2202  1.0600
 5288TIP3    H137355   1.839   3.892  11.183 -1.0473  1.7814 -0.4334
 5288TIP3    H237356   1.964   3.916  11.101 -0.6956  2.2247  0.2159
 5289TIP3   OH237357   3.556   3.766   6.294  0.3850  0.6746  0.0480
 5289TIP3    H137358   3.489   3.834   6.290  0.1055  0.4119  0.1780
 5289TIP3    H237359   3.578   3.760   6.387 -0.6676 -0.4333  0.2462
 5290TIP3   OH237360   2.492   6.759  11.993  0.0027 -0.2749  0.0973
 5290TIP3    H137361   2.403   6.726  11.984  0.2424 -0.8922 -0.0522
 5290TIP3    H237362   2.506   6.813  11.915 -0.9648  1.5544  1.1569
 5291TIP3   OH237363   3.964   4.793   3.940 -0.9169 -0.5622  0.2460
 5291TIP3    H137364   3.902   4.792   4.012 -1.0421 -0.4515  0.1407
 5291TIP3    H237365   3.964   4.884   3.909  0.3478 -0.2508  1.1439
 5292TIP3   OH237366   3.644   3.290  17.081  0.3309  0.7720  0.9460
 5292TIP3    H137367   3.731   3.268  17.049  0.1974  0.7420  0.6002
 5292TIP3    H237368   3.590   3.295  17.002 -0.2882 -0.6282  1.2634
 5293TIP3   OH237369   0.526   6.016   4.297 -0.2223 -0.7805  0.2404
 5293TIP3    H137370   0.472   6.088   4.265 -0.1289 -0.3673  1.0114
 5293TIP3    H237371   0.493   5.998   4.385 -1.7271 -3.1513 -0.7483
 5294TIP3   OH237372   5.047   4.945  12.655 -0.4509  0.1729  0.1666
 5294TIP3    H137373   5.002   5.016  12.702 -1.8398  1.2649 -2.6785
 5294TIP3    H237374   4.976   4.889  12.624  0.4309 -0.4760 -0.6943
 5295TIP3   OH237375   1.828   5.475  12.721  0.7211 -0.1219  0.4487
 5295TIP3    H137376   1.796   5.385  12.726 -0.0510 -0.0855 -2.6049
 5295TIP3    H237377   1.876   5.479  12.639 -0.4512  2.5927 -0.1755
 5296TIP3   OH237378   0.323   2.574  11.254  0.0039 -0.0372 -0.5519
 5296TIP3    H137379   0.299   2.597  11.165 -2.1902 -0.6469 -0.1375
 5296TIP3    H237380   0.295   2.483  11.264  1.8511 -0.5528  0.2064
 5297TIP3   OH237381   0.371   6.431  14.088  0.1995 -0.2693 -0.1241
 5297TIP3    H137382   0.305   6.447  14.156 -0.4610 -0.6727 -0.6591
 5297TIP3    H237383   0.329   6.368  14.029  0.8647 -0.1119 -0.7680
 5298TIP3   OH237384   1.189   3.032  16.578 -0.0306 -0.1888 -0.5599
 5298TIP3    H137385   1.132   3.067  16.647 -0.9220  0.3763 -1.5779
 5298TIP3    H237386   1.277   3.037  16.615 -0.5509 -0.3628  0.7363
 5299TIP3   OH237387   0.309   6.435  11.190 -0.2054 -0.3938  0.2076
 5299TIP3    H137388   0.284   6.429  11.098 -0.8938 -1.0353  0.4261
 5299TIP3    H237389   0.402   6.413  11.191 -0.4582 -1.5617 -0.2062
 5300TIP3   OH237390   6.770   4.787  13.461 -0.4543 -0.4034 -0.0304
 5300TIP3    H137391   6.720   4.787  13.542 -1.5654 -0.1351 -0.7117
 5300TIP3    H237392   6.822   4.707  13.465  0.7621  0.4236  1.7026
 5301TIP3   OH237393   1.363   5.153  11.788 -0.3150  0.9976 -0.2997
 5301TIP3    H137394   1.337   5.070  11.828 -0.4361  0.8630 -0.6635
 5301TIP3    H237395   1.285   5.185  11.744 -0.0830  0.9753 -0.7316
 5302TIP3   OH237396   5.460   4.218  12.689 -0.1725  0.4349 -0.2230
 5302TIP3    H137397   5.386   4.279  12.683 -1.0885 -0.8372 -2.3408
 5302TIP3    H237398   5.450   4.177  12.776 -1.1769  1.2349  0.0497
 5303TIP3   OH237399   0.243   3.896  17.063  0.3991 -0.9884 -0.0684
 5303TIP3    H137400   0.246   3.820  17.122 -0.9478 -1.0332 -0.0373
 5303TIP3    H237401   0.285   3.966  17.113 -0.4100 -1.1225  0.8083
 5304TIP3   OH237402   1.097   2.824  13.522  0.1807 -0.0220  0.3490
 5304TIP3    H137403   1.006   2.837  13.547  0.1634  2.9307 -1.1358
 5304TIP3    H237404   1.144   2.820  13.605 -1.0323  0.4645  1.0640
 5305TIP3   OH237405   1.187   5.793   0.717  0.1475  0.4509 -0.1581
 5305TIP3    H137406   1.192   5.728   0.787  3.4218 -2.7576 -3.1152
 5305TIP3    H237407   1.131   5.752   0.651 -0.4959  2.1366 -0.6860
 5306TIP3   OH237408   0.100   2.944  14.127 -0.4046 -0.2440 -0.5588
 5306TIP3    H137409   0.138   2.888  14.060  1.6693 -0.1653  0.4971
 5306TIP3    H237410   0.176   2.986  14.168 -1.7550  1.1659  0.5454
 5307TIP3   OH237411   0.494   3.025   1.132 -0.8678 -0.0427  0.2208
 5307TIP3    H137412   0.502   3.015   1.038 -0.4371 -0.6886  0.3245
 5307TIP3    H237413   0.437   2.953   1.160  1.8846 -2.0844  0.9048
 5308TIP3   OH237414   2.014   1.838   5.489 -0.1083 -0.1238  0.2115
 5308TIP3    H137415   1.946   1.888   5.534 -0.0897 -0.9805  1.2298
 5308TIP3    H237416   2.095   1.863   5.534  0.0407 -0.2673  0.0238
 5309TIP3   OH237417   4.181   4.962  16.540 -0.3186  0.1918  0.5077
 5309TIP3    H137418   4.137   4.908  16.474 -0.9456  1.5957 -0.2594
 5309TIP3    H237419   4.130   4.949  16.620 -0.8721  0.1653  0.1552
 5310TIP3   OH237420   3.322   1.406   6.215 -0.0629 -0.0176  0.0269
 5310TIP3    H137421   3.227   1.404   6.228 -0.0742 -0.4985 -0.1310
 5310TIP3    H237422   3.344   1.499   6.217 -0.3766  0.0322  1.2311
 5311TIP3   OH237423   5.521   2.516  11.332 -0.2927 -0.1927 -0.4347
 5311TIP3    H137424   5.591   2.551  11.276  0.5240  0.5292  0.9921
 5311TIP3    H237425   5.465   2.466  11.273  1.4375 -0.7861 -1.6082
 5312TIP3   OH237426   1.248   2.579   6.480 -0.8547 -0.3681  0.1297
 5312TIP3    H137427   1.197   2.550   6.404  0.9002  0.8537 -1.5651
 5312TIP3    H237428   1.328   2.526   6.477 -0.0768  0.7839  0.1902
 5313TIP3   OH237429   4.908   0.626  11.324 -0.4783 -0.6643 -0.1013
 5313TIP3    H137430   4.843   0.678  11.372 -2.3768 -1.8001 -1.3478
 5313TIP3    H237431   4.884   0.637  11.232  2.8730  1.1794 -0.8368
 5314TIP3   OH237432   5.178   5.879   4.262 -0.3719 -0.1798 -0.0964
 5314TIP3    H137433   5.264   5.840   4.280 -0.2392  0.4909  0.7755
 5314TIP3    H237434   5.183   5.907   4.171  0.2603 -0.3381 -0.1142
 5315TIP3   OH237435   6.811   2.897  14.365  0.2349 -0.1697  0.4067
 5315TIP3    H137436   6.844   2.928  14.280 -1.0503  2.2835  0.7519
 5315TIP3    H237437   6.787   2.806  14.350  2.7585 -0.6496 -1.0757
 5316TIP3   OH237438   5.942   1.870  15.380  0.5988 -0.1446 -0.0047
 5316TIP3    H137439   5.903   1.782  15.382  0.7132 -0.2221 -1.0167
 5316TIP3    H237440   6.031   1.858  15.412  0.5471 -0.3691  0.0543
 5317TIP3   OH237441   0.290   6.415   1.724  0.4694  0.5983 -0.2702
 5317TIP3    H137442   0.202   6.416   1.762 -0.9914 -0.3229 -3.4760
 5317TIP3    H237443   0.348   6.422   1.800 -2.1637 -4.6912  2.5254
 5318TIP3   OH237444   3.310   1.628  14.615  0.2382 -0.4497  0.3122
 5318TIP3    H137445   3.272   1.556  14.564 -0.0709  0.8280 -1.3358
 5318TIP3    H237446   3.241   1.694  14.617  0.4391 -0.2766  2.0133
 5319TIP3   OH237447   3.574   2.321   4.410  0.5900 -0.3360 -0.2084
 5319TIP3    H137448   3.519   2.307   4.333 -1.3972  0.6897  1.0021
 5319TIP3    H237449   3.619   2.237   4.423  0.1825 -0.8337 -1.8674
 5320TIP3   OH237450   0.491   5.479  13.452  0.2203  0.1293  0.1219
 5320TIP3    H137451   0.478   5.551  13.513 -0.0624 -1.7632  2.3715
 5320TIP3    H237452   0.416   5.421  13.467  1.4806 -1.6266 -0.1967
 5321TIP3   OH237453   6.087   0.870   3.127  0.2084 -0.2245  0.0809
 5321TIP3    H137454   6.083   0.936   3.197 -0.5883  1.2906 -1.3638
 5321TIP3    H237455   6.181   0.859   3.110  0.3688  0.0683  0.7739
 5322TIP3   OH237456   0.655   4.524   4.653  0.3425 -0.5395 -0.2466
 5322TIP3    H137457   0.669   4.471   4.732  0.4660 -0.0402  0.0691
 5322TIP3    H237458   0.666   4.615   4.683 -0.6580 -0.2938 -0.6100
 5323TIP3   OH237459   4.583   3.968  11.673  0.4416  0.6256 -0.1012
 5323TIP3    H137460   4.540   4.053  11.668 -0.9792 -0.0251  0.8505
 5323TIP3    H237461   4.513   3.906  11.695  1.6429 -0.6307  0.2900
 5324TIP3   OH237462   3.312   6.325   2.481  0.5253  0.3098 -0.0921
 5324TIP3    H137463   3.354   6.239   2.490 -0.7862 -0.5199 -1.5013
 5324TIP3    H237464   3.375   6.377   2.430  1.3134  0.1766  0.7374
 5325TIP3   OH237465   5.308   6.412  15.601 -0.4749  0.4342  0.4149
 5325TIP3    H137466   5.221   6.371  15.602 -0.0584 -0.5022 -1.1850
 5325TIP3    H237467   5.363   6.351  15.554  1.6219 -0.0295  3.3707
 5326TIP3   OH237468   5.472   5.786   1.888  0.1049 -0.1444 -0.0012
 5326TIP3    H137469   5.404   5.852   1.872 -1.0510 -0.7928  2.0793
 5326TIP3    H237470   5.554   5.835   1.884 -0.6596  1.1866  0.3053
 5327TIP3   OH237471   1.356   2.823   2.923  0.1776  0.2282 -0.6066
 5327TIP3    H137472   1.381   2.770   2.999  0.3060 -0.5324 -1.1726
 5327TIP3    H237473   1.277   2.780   2.889  1.7936 -1.1974 -2.6625
 5328TIP3   OH237474   2.545   0.950   5.181  0.3791  0.3213  0.3866
 5328TIP3    H137475   2.498   1.015   5.233 -0.1295  0.3047 -0.0475
 5328TIP3    H237476   2.604   1.001   5.125 -0.5867  0.4587 -0.5190
 5329TIP3   OH237477   0.686   2.162  13.442  0.4370 -0.1817 -0.1089
 5329TIP3    H137478   0.674   2.119  13.358  2.5706 -0.5882 -0.2312
 5329TIP3    H237479   0.677   2.093  13.507 -0.2619 -0.0474 -0.0663
 5330TIP3   OH237480   2.786   0.490  13.668 -0.4823 -0.3084 -0.1148
 5330TIP3    H137481   2.855   0.442  13.713 -1.2237 -3.5943 -2.2872
 5330TIP3    H237482   2.733   0.528  13.738  0.6986 -1.8924  1.6771
 5331TIP3   OH237483   4.955   3.952  12.593 -0.1016  0.1652 -0.4059
 5331TIP3    H137484   4.986   3.924  12.507 -3.4546 -0.1668 -1.6004
 5331TIP3    H237485   5.022   4.011  12.625  0.1164  2.2304 -4.3486
 5332TIP3   OH237486   2.340   0.700   3.261  0.3463  0.0861 -0.1597
 5332TIP3    H137487   2.258   0.738   3.229 -0.4462 -1.9924 -0.6444
 5332TIP3    H237488   2.326   0.689   3.355  1.0475  2.1154  0.2036
 5333TIP3   OH237489   0.419   2.221  12.366 -0.3105  0.5379 -0.2370
 5333TIP3    H137490   0.417   2.126  12.376  0.3030  0.6251  0.7712
 5333TIP3    H237491   0.397   2.235  12.274 -0.6198 -0.5664 -0.3476
 5334TIP3   OH237492   4.388   4.562  14.229  0.1698 -0.3918  0.3124
 5334TIP3    H137493   4.296   4.564  14.256 -0.2575  0.4893 -1.1490
 5334TIP3    H237494   4.390   4.611  14.147  1.6489 -1.8492 -0.5626
 5335TIP3   OH237495   6.117   1.509  11.172 -0.1495  0.1021 -0.0628
 5335TIP3    H137496   6.048   1.558  11.218 -0.3427 -1.2639  1.1299
 5335TIP3    H237497   6.135   1.562  11.094  0.3733  2.6150  1.6798
 5336TIP3   OH237498   0.863   6.734   6.082  0.5267  0.1957 -0.2473
 5336TIP3    H137499   0.776   6.704   6.054  1.1962 -0.5756 -1.5645
 5336TIP3    H237500   0.848   6.776   6.167 -1.5452  2.4936 -1.6876
 5337TIP3   OH237501   2.449   6.020   0.561 -0.1186 -0.5669  0.2740
 5337TIP3    H137502   2.436   6.089   0.625 -0.2314 -0.1551 -0.1897
 5337TIP3    H237503   2.466   6.066   0.479 -1.7076 -1.0771 -0.3541
 5338TIP3   OH237504   5.191   6.598   4.229 -0.3971 -0.0415 -0.4691
 5338TIP3    H137505   5.112   6.651   4.224 -2.4800 -2.8314  1.1538
 5338TIP3    H237506   5.175   6.525   4.170  0.5007 -1.1778  0.6637
 5339TIP3   OH237507   5.753   6.200   0.003  0.1300 -0.3318  0.0545
 5339TIP3    H137508   5.680   6.169  -0.051  0.4992 -1.2915  0.0945
 5339TIP3    H237509   5.712   6.243   0.078 -0.3870  0.6460 -0.7795
 5340TIP3   OH237510   6.404   1.829   4.658  0.3703  0.1637 -0.6653
 5340TIP3    H137511   6.420   1.804   4.567  2.1754 -1.9047  0.1898
 5340TIP3    H237512   6.393   1.746   4.705  3.9421  0.9797  1.7917
 5341TIP3   OH237513   3.079   5.655   1.827  0.4956 -0.5171  0.1477
 5341TIP3    H137514   3.038   5.570   1.840 -1.2909 -0.0969 -2.2855
 5341TIP3    H237515   3.138   5.643   1.753  0.3370  0.3122 -0.1275
 5342TIP3   OH237516   0.095   4.732   3.929 -0.1459  0.2898  0.3697
 5342TIP3    H137517   0.118   4.749   3.838 -0.6706 -1.7128 -0.1463
 5342TIP3    H237518   0.011   4.776   3.941 -1.3609 -1.6337 -0.8757
 5343TIP3   OH237519   1.592   5.678  14.560 -0.0910 -0.1059  0.1917
 5343TIP3    H137520   1.603   5.771  14.539  0.1578 -0.6669 -2.2337
 5343TIP3    H237521   1.544   5.641  14.486 -0.8333 -1.7953  1.4619
 5344TIP3   OH237522   4.736   0.747   4.264 -0.2275 -0.4024  0.0368
 5344TIP3    H137523   4.820   0.733   4.307  0.2402 -2.6605 -1.5364
 5344TIP3    H237524   4.695   0.661   4.263 -1.9304  0.3990 -0.5080
 5345TIP3   OH237525   4.114   5.208   4.775  0.5963  0.3044  0.2686
 5345TIP3    H137526   4.144   5.216   4.865 -0.3015 -1.6561  0.7647
 5345TIP3    H237527   4.150   5.285   4.730  3.9012 -0.4695  1.4984
 5346TIP3   OH237528   4.763   5.326   0.463  0.1948 -0.2359  0.7379
 5346TIP3    H137529   4.682   5.287   0.496 -0.3972  0.3916  0.0484
 5346TIP3    H237530   4.734   5.404   0.416  1.1367 -0.3667 -0.0713
 5347TIP3   OH237531   0.356   5.821   1.652 -0.0798  0.1079  0.3381
 5347TIP3    H137532   0.290   5.829   1.583  2.3371 -2.4056 -2.4524
 5347TIP3    H237533   0.329   5.745   1.702  0.2996 -0.5161 -0.3893
 5348TIP3   OH237534   4.521   2.249   2.739 -0.0640  0.1559 -0.0107
 5348TIP3    H137535   4.602   2.198   2.747  0.4844  0.9613 -0.4000
 5348TIP3    H237536   4.545   2.324   2.685 -0.8743  0.8247  0.5480
 5349TIP3   OH237537   4.503   5.457  17.012 -0.3708 -0.1630  0.0584
 5349TIP3    H137538   4.495   5.488  17.102 -0.6179 -1.1073  0.3715
 5349TIP3    H237539   4.579   5.399  17.013  0.6336  1.1414 -0.7254
 5350TIP3   OH237540   3.251   6.692   0.090  0.4453 -0.4446 -0.4930
 5350TIP3    H137541   3.182   6.626   0.101  0.7625 -0.8652 -0.9601
 5350TIP3    H237542   3.206   6.767   0.051 -0.2042  0.1731  1.4199
 5351TIP3   OH237543   1.857   6.798   4.454  0.2442  0.4408  0.4697
 5351TIP3    H137544   1.861   6.832   4.544  0.8660  1.1400  0.1818
 5351TIP3    H237545   1.832   6.706   4.464 -1.4267  0.9575  1.2598
 5352TIP3   OH237546   3.428   1.602   4.837 -0.3785 -0.0429 -0.2264
 5352TIP3    H137547   3.492   1.668   4.810  0.5581 -1.3192 -1.2155
 5352TIP3    H237548   3.450   1.583   4.928  0.3383 -0.1007 -0.4077
 5353TIP3   OH237549   0.537   1.970   0.044 -0.3700 -0.1286 -0.2507
 5353TIP3    H137550   0.581   2.039  -0.006  2.1243 -1.2962  0.2458
 5353TIP3    H237551   0.488   2.017   0.111  1.3822  1.2111  0.1478
 5354TIP3   OH237552   4.967   6.803  14.773 -0.4107 -0.1055  0.2588
 5354TIP3    H137553   5.005   6.850  14.847  0.3609  0.6475 -0.6202
 5354TIP3    H237554   4.918   6.869  14.725 -0.9153 -0.6005  0.0850
 5355TIP3   OH237555   5.133   1.066  14.605  0.2975 -0.4783 -0.2721
 5355TIP3    H137556   5.070   1.036  14.670 -0.1733 -0.7303 -0.8452
 5355TIP3    H237557   5.173   0.986  14.571  1.3084 -0.2957  0.4708
 5356TIP3   OH237558   1.373   0.867   3.994  0.2232 -0.4034 -0.3113
 5356TIP3    H137559   1.378   0.772   4.004 -1.6274 -0.3257  1.7614
 5356TIP3    H237560   1.408   0.884   3.907  0.2873 -3.0152 -0.8323
 5357TIP3   OH237561   3.508   4.051   1.926  0.4706 -0.4308  0.5451
 5357TIP3    H137562   3.545   4.034   2.012  1.8863  0.5293  0.1385
 5357TIP3    H237563   3.438   4.115   1.942 -0.9309 -2.0981  1.2821
 5358TIP3   OH237564   3.576   2.553  15.138 -0.6493  0.2680 -0.3068
 5358TIP3    H137565   3.602   2.616  15.071 -0.2552 -0.2717 -0.6660
 5358TIP3    H237566   3.506   2.502  15.098 -0.0654 -0.3930 -0.4999
 5359TIP3   OH237567   4.001   1.098  16.681  0.0916 -0.4089  0.6447
 5359TIP3    H137568   4.026   1.016  16.723 -0.6839 -1.9727 -1.8351
 5359TIP3    H237569   3.932   1.134  16.737 -0.3250 -2.0131  1.1759
 5360TIP3   OH237570   1.994   6.638   5.272  0.0392  0.0895 -1.0254
 5360TIP3    H137571   1.950   6.570   5.221 -1.5949  1.5592 -1.6678
 5360TIP3    H237572   2.040   6.691   5.206  0.0308  0.4842 -0.7167
 5361TIP3   OH237573   1.953   5.730   3.531  0.0668 -0.0911 -0.2756
 5361TIP3    H137574   1.989   5.718   3.443 -1.1215  0.3394 -0.8339
 5361TIP3    H237575   1.900   5.652   3.546 -0.9240  0.5252 -0.5424
 5362TIP3   OH237576   3.822   5.686  12.084 -0.1998  0.1005 -0.3251
 5362TIP3    H137577   3.914   5.709  12.092  0.1685 -0.8624 -1.6094
 5362TIP3    H237578   3.797   5.654  12.171  1.1607 -1.2769 -0.4122
 5363TIP3   OH237579   4.049   5.637   0.578  0.4975  0.1968  0.3324
 5363TIP3    H137580   4.003   5.584   0.513 -1.0600  0.6203  1.0813
 5363TIP3    H237581   4.140   5.638   0.547  0.2700 -1.6879 -0.4844
 5364TIP3   OH237582   4.884   1.798   2.789 -0.0334 -0.0284  0.3328
 5364TIP3    H137583   4.935   1.723   2.757 -0.0898  0.9731 -2.2833
 5364TIP3    H237584   4.883   1.788   2.884  2.4883 -1.6999  0.2318
 5365TIP3   OH237585   3.603   3.454  15.195 -1.1975  0.4187  0.6613
 5365TIP3    H137586   3.667   3.509  15.240  2.0725 -0.2434 -2.9070
 5365TIP3    H237587   3.618   3.366  15.229  1.2137 -0.0672 -1.4705
 5366TIP3   OH237588   2.795   6.657   3.867 -0.0266 -0.2181 -0.3438
 5366TIP3    H137589   2.849   6.581   3.846  0.0734 -0.0835 -0.5659
 5366TIP3    H237590   2.807   6.717   3.794  0.7206  0.4684  0.3365
 5367TIP3   OH237591   0.972   3.757  12.362 -0.3181 -0.4388 -0.3506
 5367TIP3    H137592   0.986   3.851  12.349 -1.1734 -0.0525  1.3952
 5367TIP3    H237593   1.019   3.737  12.443 -3.9825 -0.5332  1.8476
 5368TIP3   OH237594   4.332   2.802   1.676 -0.3743 -0.3087 -0.0643
 5368TIP3    H137595   4.313   2.774   1.586 -3.8443 -0.7586  0.7039
 5368TIP3    H237596   4.271   2.875   1.691  0.2701 -0.1543  1.8647
 5369TIP3   OH237597   3.117   3.407   4.772 -0.1051 -0.1255  0.3307
 5369TIP3    H137598   3.117   3.323   4.817 -1.0346  0.1981  0.9234
 5369TIP3    H237599   3.148   3.386   4.683 -0.2012 -1.0603  0.5170
 5370TIP3   OH237600   1.433   0.312  14.820 -0.3384  0.1785 -0.3167
 5370TIP3    H137601   1.344   0.337  14.844 -0.5774 -1.2313  0.3492
 5370TIP3    H237602   1.423   0.227  14.777  0.8057 -0.6886  1.0647
 5371TIP3   OH237603   5.489   3.370   3.344 -0.2523 -0.0723 -0.2668
 5371TIP3    H137604   5.483   3.310   3.418  1.2954 -1.2023 -1.0294
 5371TIP3    H237605   5.440   3.326   3.274  0.4569 -0.2234 -0.6735
 5372TIP3   OH237606   2.247   3.067  11.190  0.6453 -0.2493  0.5525
 5372TIP3    H137607   2.249   3.160  11.210 -0.4242  0.3353 -1.7656
 5372TIP3    H237608   2.337   3.037  11.204  1.7350  1.8191 -1.5254
 5373TIP3   OH237609   0.347   4.843  11.535 -0.2385 -0.0811  0.3016
 5373TIP3    H137610   0.279   4.832  11.602  0.1487 -0.0025  0.7129
 5373TIP3    H237611   0.349   4.937  11.518 -0.6266 -0.1501 -0.1272
 5374TIP3   OH237612   6.559   3.818  16.056  0.2324  0.3302 -0.0429
 5374TIP3    H137613   6.595   3.907  16.060 -0.8555  0.8399 -1.4282
 5374TIP3    H237614   6.473   3.825  16.098 -0.8961  0.4756 -2.3424
 5375TIP3   OH237615   5.573   6.490  17.186 -0.3441  0.0692 -0.3307
 5375TIP3    H137616   5.596   6.581  17.206 -0.5533  0.2136 -0.7249
 5375TIP3    H237617   5.588   6.442  17.267 -1.9807  0.7929  0.4085
 5376TIP3   OH237618   4.151   2.521  11.713  0.9410  0.3648  0.7827
 5376TIP3    H137619   4.074   2.574  11.734  0.1830 -0.6272  0.5165
 5376TIP3    H237620   4.202   2.576  11.653 -0.1241  0.5739  0.0555
 5377TIP3   OH237621   3.784   6.443   4.837  0.3229  0.1250  0.1581
 5377TIP3    H137622   3.852   6.378   4.854 -0.6774 -0.6956  1.1565
 5377TIP3    H237623   3.831   6.520   4.806  1.6314 -0.6718  0.1199
 5378TIP3   OH237624   5.504   4.007   1.040 -0.4716  0.2251  0.0738
 5378TIP3    H137625   5.475   3.926   0.999  0.3469  0.4454 -0.9691
 5378TIP3    H237626   5.457   4.010   1.124 -1.8017 -0.4674 -0.6308
 5379TIP3   OH237627   3.915   0.535  15.359  0.3255  0.2800 -0.8543
 5379TIP3    H137628   3.991   0.480  15.340  0.3979  0.3413 -0.7399
 5379TIP3    H237629   3.840   0.482  15.333  0.3057 -0.5232  0.8167
 5380TIP3   OH237630   2.378   2.708  14.303  0.3773  0.0634  0.3278
 5380TIP3    H137631   2.436   2.640  14.268 -0.2325  0.0182 -0.6149
 5380TIP3    H237632   2.290   2.674  14.289  0.1191 -0.0977  2.2484
 5381TIP3   OH237633   3.440   4.990  12.456 -0.4824 -0.2885  0.7863
 5381TIP3    H137634   3.356   5.004  12.500 -0.5096  2.8978 -0.1434
 5381TIP3    H237635   3.417   4.975  12.364 -0.2482 -3.9052  1.2642
 5382TIP3   OH237636   2.373   2.640   0.186  0.9651 -0.3611  0.0098
 5382TIP3    H137637   2.343   2.550   0.179 -0.6979  0.3497 -2.2668
 5382TIP3    H237638   2.294   2.693   0.182  1.7082  1.1801  3.4218
 5383TIP3   OH237639   4.862   4.065  13.303  0.2181 -0.9038  0.7856
 5383TIP3    H137640   4.821   4.016  13.375  0.1632 -1.1638  0.5796
 5383TIP3    H237641   4.842   4.013  13.225 -2.7952  1.2173  0.0509
 5384TIP3   OH237642   6.290   6.687  16.610  0.1784  0.5229  0.7204
 5384TIP3    H137643   6.351   6.724  16.673  0.7927  1.0827 -0.1871
 5384TIP3    H237644   6.337   6.613  16.571 -0.4405 -0.2252  1.3708
 5385TIP3   OH237645   2.363   3.996  12.673 -0.1445 -0.0570  0.0658
 5385TIP3    H137646   2.280   4.011  12.627  0.4103  0.0555 -0.8958
 5385TIP3    H237647   2.352   3.911  12.716 -0.9554  0.1996  0.3695
 5386TIP3   OH237648   4.893   3.632  15.898 -0.8663 -0.2089  0.9909
 5386TIP3    H137649   4.847   3.714  15.876  0.0799  0.5649  1.8686
 5386TIP3    H237650   4.823   3.572  15.923 -1.5578  0.4015  0.5515
 5387TIP3   OH237651   0.169   1.333   1.092 -0.5165 -1.0210  0.1202
 5387TIP3    H137652   0.198   1.337   1.183 -0.5340 -0.2623  0.0917
 5387TIP3    H237653   0.240   1.373   1.042 -0.2763 -1.9023 -0.2577
 5388TIP3   OH237654   4.852   1.724  12.742 -0.4400 -0.0215 -0.3614
 5388TIP3    H137655   4.889   1.699  12.827 -2.0067 -0.2488  0.2637
 5388TIP3    H237656   4.821   1.642  12.704  0.9882 -0.0380 -1.5284
 5389TIP3   OH237657   0.443   0.839   4.916 -0.1078 -0.4191  1.0971
 5389TIP3    H137658   0.352   0.861   4.936  0.2074  0.8453  1.1679
 5389TIP3    H237659   0.477   0.915   4.869  0.4464 -1.5490 -0.3848
 5390TIP3   OH237660   1.820   2.557  14.196 -0.3836  0.3767 -0.0597
 5390TIP3    H137661   1.884   2.590  14.133  0.5926 -1.4468 -0.0676
 5390TIP3    H237662   1.770   2.491  14.148 -0.7148  0.1445  0.5987
 5391TIP3   OH237663   1.227   1.163   0.423  0.2034 -0.3902 -0.2247
 5391TIP3    H137664   1.251   1.115   0.343  0.3038  1.3182 -1.2482
 5391TIP3    H237665   1.149   1.213   0.398  0.5048  0.5086  0.6054
 5392TIP3   OH237666   6.271   1.345  10.630 -0.4912  0.1701 -0.0692
 5392TIP3    H137667   6.224   1.342  10.713 -0.1032  0.7900  0.1778
 5392TIP3    H237668   6.209   1.309  10.566 -0.4407 -1.1818  0.6390
 5393TIP3   OH237669   6.655   2.751  13.913 -0.0034  0.2151 -0.4046
 5393TIP3    H137670   6.746   2.760  13.942  0.2371  0.5900 -1.2677
 5393TIP3    H237671   6.620   2.680  13.967  0.4806  0.8069  0.7042
 5394TIP3   OH237672   4.566   5.873   5.434  0.0474 -0.2590 -0.2200
 5394TIP3    H137673   4.512   5.839   5.363 -0.0465  0.6169 -0.5645
 5394TIP3    H237674   4.649   5.898   5.392 -0.9810  2.7900 -0.5006
 5395TIP3   OH237675   3.364   5.399   5.638 -0.2794  0.2151  0.0276
 5395TIP3    H137676   3.360   5.316   5.685  0.0957  1.0225  1.5019
 5395TIP3    H237677   3.275   5.411   5.603 -0.5656 -0.3861  0.5474
 5396TIP3   OH237678   1.451   1.737   4.498  0.9626  0.0611 -0.0711
 5396TIP3    H137679   1.356   1.743   4.488  1.2203  1.4898 -1.7890
 5396TIP3    H237680   1.472   1.804   4.563  0.8496  0.0840 -0.0568
 5397TIP3   OH237681   4.301   0.766   4.064  0.3741  0.5364  0.6469
 5397TIP3    H137682   4.223   0.812   4.032 -0.3204 -0.7400  0.4718
 5397TIP3    H237683   4.277   0.737   4.152  0.8346  0.5931  0.7882
 5398TIP3   OH237684   5.655   2.099  11.952 -0.1337  0.2237  0.5606
 5398TIP3    H137685   5.614   2.183  11.931 -0.6334 -0.3897 -0.9525
 5398TIP3    H237686   5.722   2.087  11.885 -1.4112 -1.5193 -0.4485
 5399TIP3   OH237687   3.186   4.936  13.677  0.4126 -0.4240 -0.2231
 5399TIP3    H137688   3.100   4.911  13.710  0.9464 -2.3206 -0.2011
 5399TIP3    H237689   3.247   4.910  13.747  0.8073  3.4311  1.0022
 5400TIP3   OH237690   2.095   4.233   1.245  0.4770  0.7873  0.3673
 5400TIP3    H137691   2.110   4.143   1.275  1.7952 -0.2019 -2.9793
 5400TIP3    H237692   2.151   4.286   1.301  1.0201 -0.6799  1.2529
 5401TIP3   OH237693   5.061   5.325   3.807  0.2963 -0.0985  0.2299
 5401TIP3    H137694   5.032   5.334   3.898 -0.5238  0.2896 -0.0654
 5401TIP3    H237695   4.981   5.307   3.758  0.7070 -0.1057 -0.4451
 5402TIP3   OH237696   3.650   2.102   1.921  0.1663  0.4504 -0.3776
 5402TIP3    H137697   3.568   2.054   1.915  1.6763 -2.2769  0.2419
 5402TIP3    H237698   3.672   2.122   1.830 -0.6845  0.3789 -0.6063
 5403TIP3   OH237699   5.397   2.505  14.381 -0.5462  0.0498  0.0726
 5403TIP3    H137700   5.307   2.516  14.349  0.0041  0.1917 -1.4455
 5403TIP3    H237701   5.447   2.574  14.338  0.2980 -0.0611  0.8666
 5404TIP3   OH237702   5.311   2.415  12.630  0.2608  0.4629  0.0203
 5404TIP3    H137703   5.365   2.345  12.592  0.9704  0.5794  0.8050
 5404TIP3    H237704   5.334   2.415  12.722 -0.9201  0.6789  0.3198
 5405TIP3   OH237705   1.004   3.217  12.826  0.5582 -0.2364  0.0512
 5405TIP3    H137706   1.017   3.238  12.734  0.9897  0.3373  0.2404
 5405TIP3    H237707   0.966   3.130  12.826  1.2119 -0.5221 -0.6395
 5406TIP3   OH237708   0.486   6.293   4.343  0.4240 -0.0171 -0.6820
 5406TIP3    H137709   0.442   6.306   4.427  1.4092  0.4702 -0.2393
 5406TIP3    H237710   0.555   6.359   4.341  0.1243  0.2750 -2.0792
 5407TIP3   OH237711   0.478   2.140   5.901 -0.8013  0.1683 -0.1807
 5407TIP3    H137712   0.390   2.167   5.875 -1.2480 -1.8329 -0.8380
 5407TIP3    H237713   0.476   2.141   5.997 -1.2529  1.0099 -0.1970
 5408TIP3   OH237714   5.210   4.642   6.188  0.4988  0.3149 -1.3362
 5408TIP3    H137715   5.212   4.552   6.156  1.3240 -0.4540  0.8153
 5408TIP3    H237716   5.117   4.664   6.193  0.1550 -1.5356  1.1281
 5409TIP3   OH237717   0.889   6.453   0.405  0.0166 -0.1403  0.4311
 5409TIP3    H137718   0.832   6.527   0.384  0.6004 -0.0664 -0.9871
 5409TIP3    H237719   0.871   6.434   0.497 -1.9895  0.1355  0.1273
 5410TIP3   OH237720   4.440   6.432   0.668  0.0868 -0.5518  0.8441
 5410TIP3    H137721   4.346   6.438   0.683 -0.0207 -0.3304  0.1228
 5410TIP3    H237722   4.451   6.459   0.577  1.0179  1.0933  1.4213
 5411TIP3   OH237723   1.441   5.421  13.253  0.5052 -0.3519 -0.0711
 5411TIP3    H137724   1.536   5.435  13.258  0.3766 -0.0973  2.2824
 5411TIP3    H237725   1.406   5.469  13.329 -1.4364 -0.9961 -0.5400
 5412TIP3   OH237726   4.509   4.072  12.929 -0.0352  0.5570  0.4327
 5412TIP3    H137727   4.533   3.980  12.911  0.5511  0.9451 -0.8230
 5412TIP3    H237728   4.447   4.095  12.860 -0.2912  1.0712  0.8292
 5413TIP3   OH237729   0.577   3.086  15.581  0.5367  0.1459 -0.2657
 5413TIP3    H137730   0.492   3.055  15.551  0.7456  1.0357 -1.8264
 5413TIP3    H237731   0.557   3.169  15.625  0.3592 -0.6609  1.2209
 5414TIP3   OH237732   3.332   1.651  13.098 -0.2892 -0.6759  0.0111
 5414TIP3    H137733   3.307   1.730  13.145  1.2944  0.1598 -0.5077
 5414TIP3    H237734   3.317   1.673  13.006 -1.6016 -1.6397 -0.0116
 5415TIP3   OH237735   5.554   3.066   3.100  0.0617  0.0490 -0.6937
 5415TIP3    H137736   5.473   3.107   3.130  0.4549 -0.4779  1.1283
 5415TIP3    H237737   5.611   3.140   3.078  0.0401  0.4645  0.6092
 5416TIP3   OH237738   0.180   2.868  17.004  0.3013  0.3799 -0.5421
 5416TIP3    H137739   0.272   2.847  16.992 -0.0234 -0.3566 -1.7953
 5416TIP3    H237740   0.140   2.785  17.033  0.0526  0.7233  0.1113
 5417TIP3   OH237741   2.439   0.576  15.058 -0.0454  0.5484 -0.1752
 5417TIP3    H137742   2.348   0.565  15.087  0.0146  0.0552 -0.1595
 5417TIP3    H237743   2.437   0.653  15.001 -0.4109  0.7393  0.0945
 5418TIP3   OH237744   5.311   2.725  13.334  0.7168  0.4466 -0.2416
 5418TIP3    H137745   5.274   2.738  13.246 -2.0460  0.6280  0.8908
 5418TIP3    H237746   5.238   2.692  13.386  2.5742 -0.5818  1.7740
 5419TIP3   OH237747   2.491   1.434  13.038  0.0966  0.1505  0.4441
 5419TIP3    H137748   2.549   1.492  13.087  1.3309  1.7447 -2.7406
 5419TIP3    H237749   2.463   1.486  12.963 -0.5357 -2.6705 -1.3566
 5420TIP3   OH237750   4.926   3.269   0.195  0.1242  0.6597  0.1024
 5420TIP3    H137751   4.939   3.289   0.103 -0.7319  0.6893 -0.0173
 5420TIP3    H237752   4.831   3.264   0.205  0.2040  0.9408  1.0433
 5421TIP3   OH237753   4.404   2.142  13.225  0.0329  0.4995 -0.2718
 5421TIP3    H137754   4.485   2.194  13.224  1.3074 -1.3994  1.3142
 5421TIP3    H237755   4.418   2.075  13.158  0.7067 -1.1419  1.4601
 5422TIP3   OH237756   2.384   3.253   5.101  0.6997 -0.2616  0.1742
 5422TIP3    H137757   2.375   3.325   5.164  2.0081  0.5868 -0.5875
 5422TIP3    H237758   2.377   3.295   5.016 -0.1321 -1.2793 -0.2663
 5423TIP3   OH237759   0.631   5.166   2.752  0.5752 -0.3236  0.3321
 5423TIP3    H137760   0.576   5.099   2.713  0.0501 -0.4162  1.2150
 5423TIP3    H237761   0.651   5.133   2.840  0.2017  0.7249  0.8182
 5424TIP3   OH237762   2.321   2.140  14.307  0.0306 -0.0693 -0.4925
 5424TIP3    H137763   2.334   2.143  14.402 -0.5801 -0.8162 -0.3829
 5424TIP3    H237764   2.257   2.208  14.288 -0.9376 -0.8899 -0.1833
 5425TIP3   OH237765   3.817   0.209   0.641  0.4290 -0.0934 -0.6957
 5425TIP3    H137766   3.740   0.259   0.612  0.3175 -0.5691 -1.2397
 5425TIP3    H237767   3.810   0.207   0.736  0.8972  1.6621 -0.6026
 5426TIP3   OH237768   6.408   0.823  11.593 -0.5629  0.1972  0.0892
 5426TIP3    H137769   6.330   0.864  11.555 -0.5985  0.1345  0.0927
 5426TIP3    H237770   6.411   0.736  11.553 -0.8905 -0.0587  0.6120
 5427TIP3   OH237771   0.372   3.074   4.032 -0.7904 -0.0357  0.3527
 5427TIP3    H137772   0.441   3.136   4.056 -1.6950  1.5735 -1.1684
 5427TIP3    H237773   0.420   2.997   4.001  0.3849  1.7081 -2.3275
 5428TIP3   OH237774   5.206   3.628   5.952  0.2837  0.2684  0.1668
 5428TIP3    H137775   5.147   3.697   5.982  0.6035  0.7493 -0.3066
 5428TIP3    H237776   5.202   3.631   5.857  0.2864 -0.3800  0.1406
 5429TIP3   OH237777   0.170   5.710   4.275  0.5584  0.3629 -0.2924
 5429TIP3    H137778   0.171   5.628   4.226 -0.6694  0.8333 -1.1248
 5429TIP3    H237779   0.139   5.686   4.362  0.3536 -0.0821 -0.4850
 5430TIP3   OH237780   2.450   6.579  14.254  0.4590  0.4346 -0.9402
 5430TIP3    H137781   2.531   6.528  14.245  0.7472  0.7089  0.0258
 5430TIP3    H237782   2.398   6.555  14.177  0.4732 -1.5117 -0.3808
 5431TIP3   OH237783   5.356   2.088  15.151 -0.3315 -0.0976 -0.3097
 5431TIP3    H137784   5.350   2.076  15.245  2.2337 -0.0800 -0.1181
 5431TIP3    H237785   5.338   2.001  15.114 -1.6060 -0.0398  0.1775
 5432TIP3   OH237786   4.436   6.080  12.724 -0.0857  0.1733 -0.1522
 5432TIP3    H137787   4.391   6.148  12.775  0.3258 -0.0050  0.4663
 5432TIP3    H237788   4.381   6.067  12.647 -1.2884 -0.3041  0.7666
 5433TIP3   OH237789   1.520   2.831  17.118 -0.0497  0.5177 -0.1760
 5433TIP3    H137790   1.473   2.796  17.194  1.9901  0.7069  1.2467
 5433TIP3    H237791   1.611   2.836  17.148  0.7561  0.7926 -2.5995
 5434TIP3   OH237792   1.415   2.468  14.441 -0.5780 -0.5068  0.0099
 5434TIP3    H137793   1.322   2.466  14.464 -0.6782  0.4037 -0.2890
 5434TIP3    H237794   1.424   2.402  14.372 -0.9488 -0.7830  0.2221
 5435TIP3   OH237795   3.375   0.688   2.123  0.5096  0.5966 -0.1226
 5435TIP3    H137796   3.425   0.738   2.187  0.4527  2.0302 -1.1643
 5435TIP3    H237797   3.414   0.600   2.125  1.7654  1.1600  0.4798
 5436TIP3   OH237798   4.981   5.611   0.702 -0.0723 -0.1093 -0.1293
 5436TIP3    H137799   5.047   5.636   0.637  0.5693 -0.1076  0.5136
 5436TIP3    H237800   4.916   5.681   0.700 -0.6614 -0.6843 -1.5947
 5437TIP3   OH237801   1.265   0.630   0.621 -0.1205 -0.0656  0.2269
 5437TIP3    H137802   1.216   0.549   0.607 -0.0238 -0.2125  0.7232
 5437TIP3    H237803   1.231   0.690   0.555 -1.3989  0.0199  0.9390
 5438TIP3   OH237804   3.297   4.005   1.660 -0.0747 -0.3323  0.8733
 5438TIP3    H137805   3.391   3.987   1.655 -0.3424 -1.2701 -1.9756
 5438TIP3    H237806   3.257   3.918   1.672 -0.5957  0.0752  2.1905
 5439TIP3   OH237807   6.286   3.566  14.641  0.5117 -0.2767  0.1381
 5439TIP3    H137808   6.270   3.483  14.685  0.2795 -0.3842 -0.1459
 5439TIP3    H237809   6.206   3.617  14.656  0.2847 -0.4510 -0.4637
 5440TIP3   OH237810   1.837   3.913   5.606  0.2350 -0.0525 -0.0887
 5440TIP3    H137811   1.761   3.859   5.583  0.4086 -0.6701  0.7778
 5440TIP3    H237812   1.884   3.923   5.523  0.3316 -1.4514 -0.2243
 5441TIP3   OH237813   5.186   4.083  12.673  0.4589 -0.2904  0.0918
 5441TIP3    H137814   5.243   4.040  12.737  1.8985 -2.2060 -2.3711
 5441TIP3    H237815   5.231   4.165  12.652  0.9339 -0.5129  0.2229
 5442TIP3   OH237816   1.510   2.981   6.004 -0.0398  0.1546 -0.4444
 5442TIP3    H137817   1.567   3.053   5.976 -0.2553  0.3665 -0.3468
 5442TIP3    H237818   1.433   3.025   6.041 -0.0630 -0.1267 -0.1592
 5443TIP3   OH237819   5.331   6.340  11.919  0.3408  0.0053  0.5062
 5443TIP3    H137820   5.394   6.379  11.859 -0.4298  1.4331  0.6084
 5443TIP3    H237821   5.270   6.410  11.940 -1.5444 -1.4586  0.0992
 5444TIP3   OH237822   0.774   4.995  11.204 -0.4576  0.1227  0.7414
 5444TIP3    H137823   0.786   5.066  11.267 -0.0014  1.4333 -0.7734
 5444TIP3    H237824   0.679   4.992  11.189 -0.7502 -1.2697  2.6530
 5445TIP3   OH237825   5.524   5.383  14.370  0.2047  0.0943 -0.6400
 5445TIP3    H137826   5.486   5.445  14.431 -0.2451 -0.5255 -0.2770
 5445TIP3    H237827   5.612   5.366  14.404 -0.0723 -0.3109 -0.1028
 5446TIP3   OH237828   6.563   0.171   1.747 -0.3155  0.2923 -0.3450
 5446TIP3    H137829   6.644   0.187   1.795 -0.6102 -1.4281  0.7882
 5446TIP3    H237830   6.510   0.118   1.807 -0.4275 -2.5045 -2.7938
 5447TIP3   OH237831   0.422   4.456   3.252  0.6043 -0.1612  0.2279
 5447TIP3    H137832   0.395   4.481   3.164  0.6860  1.4123  0.6389
 5447TIP3    H237833   0.341   4.459   3.304  1.2224  2.8795  1.0837
 5448TIP3   OH237834   4.204   1.840   0.781  0.3534  0.1988  0.4935
 5448TIP3    H137835   4.123   1.824   0.829 -0.2049  1.3088 -0.0585
 5448TIP3    H237836   4.264   1.873   0.847  0.7881 -1.8564  1.1698
 5449TIP3   OH237837   2.204   5.953   3.179  0.3315  0.0964  0.0067
 5449TIP3    H137838   2.187   6.046   3.162  4.8014  1.2315  1.2496
 5449TIP3    H237839   2.280   5.932   3.125 -0.5303 -2.8684 -0.1578
 5450TIP3   OH237840   5.774   3.291   5.251 -0.0323  0.2167  0.2627
 5450TIP3    H137841   5.782   3.386   5.243 -1.6962  0.4568  1.1532
 5450TIP3    H237842   5.748   3.277   5.343 -0.7419 -1.0175 -0.1140
 5451TIP3   OH237843   2.046   0.870   3.660 -0.0033  0.1466  1.0535
 5451TIP3    H137844   2.118   0.905   3.607 -1.4462 -0.7449 -1.6171
 5451TIP3    H237845   2.017   0.944   3.713 -1.7217  2.5950 -3.0398
 5452TIP3   OH237846   3.507   1.597  16.970 -0.1556 -0.2026  0.4091
 5452TIP3    H137847   3.462   1.575  16.889 -0.6602 -1.6925  1.0637
 5452TIP3    H237848   3.599   1.602  16.946 -0.3828  0.1190 -0.3993
 5453TIP3   OH237849   4.327   4.632  16.791 -0.3580  1.3444  0.0060
 5453TIP3    H137850   4.256   4.625  16.727 -1.0300  0.0211  0.8843
 5453TIP3    H237851   4.285   4.618  16.876  1.2542 -1.7788  0.3846
 5454TIP3   OH237852   3.080   0.374  13.375  0.2697  0.1592 -0.4465
 5454TIP3    H137853   3.108   0.382  13.466 -0.5083 -0.7251 -0.1168
 5454TIP3    H237854   3.088   0.462  13.339 -1.6363  1.0066  1.1230
 5455TIP3   OH237855   0.702   2.459  12.317  0.2238  0.1223 -0.3712
 5455TIP3    H137856   0.709   2.546  12.277  0.1169  1.1106  1.6835
 5455TIP3    H237857   0.702   2.398  12.243  2.1933  1.7523 -1.7583
 5456TIP3   OH237858   4.796   4.018   4.232  0.2812  0.5378 -0.1201
 5456TIP3    H137859   4.704   4.003   4.210  0.3222  0.3384 -0.1571
 5456TIP3    H237860   4.793   4.069   4.313  0.1277  1.9794 -1.0198
 5457TIP3   OH237861   1.088   3.004  15.906  0.4226 -0.7214  0.3790
 5457TIP3    H137862   1.050   3.091  15.918 -1.6388 -1.3372 -1.3778
 5457TIP3    H237863   1.160   3.017  15.845  1.1090 -0.0126  1.3329
 5458TIP3   OH237864   2.535   3.843   0.141  0.3628 -0.5063  0.0501
 5458TIP3    H137865   2.486   3.854   0.222  1.4511  1.5609  0.4580
 5458TIP3    H237866   2.520   3.751   0.116 -0.0434 -1.1469  2.5324
 5459TIP3   OH237867   5.665   2.948   5.334 -0.3489 -0.6199  0.4797
 5459TIP3    H137868   5.589   2.993   5.296 -1.2937 -0.1799  2.7614
 5459TIP3    H237869   5.627   2.872   5.379  0.6129 -0.6540  1.2363
 5460TIP3   OH237870   4.442   4.153   4.525 -0.1060  0.1405  0.0482
 5460TIP3    H137871   4.463   4.219   4.591 -0.4805  0.7831 -0.4626
 5460TIP3    H237872   4.348   4.162   4.511  0.2260  1.1681 -1.7759
 5461TIP3   OH237873   2.736   1.320  13.140 -0.4603  0.4062  0.3768
 5461TIP3    H137874   2.750   1.415  13.149 -0.8765  0.4979  0.0964
 5461TIP3    H237875   2.645   1.312  13.114  0.2260  0.0859 -2.0851
 5462TIP3   OH237876   5.666   5.133  12.893 -0.6409 -0.7214  0.7432
 5462TIP3    H137877   5.611   5.098  12.822  1.0611  0.0029 -0.9489
 5462TIP3    H237878   5.641   5.225  12.899  1.2074 -0.0666 -0.8904
 5463TIP3   OH237879   4.042   1.251   4.707 -0.7090  0.3825 -0.6977
 5463TIP3    H137880   3.972   1.268   4.644 -1.8163  1.5483  0.8169
 5463TIP3    H237881   4.007   1.281   4.790  0.4884 -1.7314  0.6104
 5464TIP3   OH237882   2.772   4.795   2.826 -0.3442  0.0029  0.3558
 5464TIP3    H137883   2.771   4.861   2.756  2.3001  0.7385  0.9713
 5464TIP3    H237884   2.713   4.830   2.893  1.1813  1.8713  0.7586
 5465TIP3   OH237885   3.088   6.584  17.158  0.4806  0.0769  0.0507
 5465TIP3    H137886   3.152   6.636  17.110 -0.0768  0.8242  0.0968
 5465TIP3    H237887   3.016   6.572  17.097 -0.1314  0.8376  0.6067
 5466TIP3   OH237888   2.017   3.860   0.101  0.3186  0.3454 -0.3890
 5466TIP3    H137889   2.086   3.890   0.041  0.9984 -0.9549 -0.2783
 5466TIP3    H237890   2.054   3.782   0.142 -0.9977 -0.0033  0.1394
 5467TIP3   OH237891   1.393   0.877  14.820 -0.4075 -0.0426  0.8483
 5467TIP3    H137892   1.476   0.874  14.771 -0.0623 -0.9317  1.4803
 5467TIP3    H237893   1.347   0.798  14.793 -1.5944  1.0514 -0.4186
 5468TIP3   OH237894   5.184   5.268   7.068 -0.4659 -0.3475 -0.1150
 5468TIP3    H137895   5.119   5.199   7.068  0.0489 -0.8707  2.3284
 5468TIP3    H237896   5.243   5.246   6.996 -0.4830 -2.2811  0.4412
 5469TIP3   OH237897   0.630   3.956  15.500 -0.2773  0.0583 -0.0189
 5469TIP3    H137898   0.615   3.865  15.474 -1.7366  0.5193 -0.8513
 5469TIP3    H237899   0.628   3.953  15.596 -1.0935 -0.6817 -0.0372
 5470TIP3   OH237900   3.985   0.442   3.806  0.3176 -0.0922  0.4976
 5470TIP3    H137901   3.908   0.421   3.859  1.3934 -0.8201  1.8064
 5470TIP3    H237902   3.972   0.533   3.778 -0.0043  0.4810  2.4797
 5471TIP3   OH237903   1.124   2.285   4.497 -0.2814  0.2710  0.1724
 5471TIP3    H137904   1.096   2.193   4.498 -0.7467  0.4104  0.4765
 5471TIP3    H237905   1.209   2.284   4.454  0.1270 -0.4217  0.9751
 5472TIP3   OH237906   0.839   3.926   2.927 -0.3793  0.2427 -0.6047
 5472TIP3    H137907   0.828   3.859   2.994  0.1800  1.2989  0.5532
 5472TIP3    H237908   0.929   3.957   2.938 -0.1017  0.0685 -2.1859
 5473TIP3   OH237909   4.706   0.710   3.027  0.1866  0.1994 -0.5319
 5473TIP3    H137910   4.725   0.781   2.966  0.4387  0.4268 -0.1879
 5473TIP3    H237911   4.778   0.713   3.090  0.4258 -0.6232 -0.7543
 5474TIP3   OH237912   6.250   4.825   6.920  0.5605  0.0335 -0.1530
 5474TIP3    H137913   6.215   4.880   6.991  0.9684 -0.4935  0.4637
 5474TIP3    H237914   6.217   4.866   6.840 -1.4099 -0.3952  0.4018
 5475TIP3   OH237915   1.763   5.192  12.002  0.7513  0.1474  0.1085
 5475TIP3    H137916   1.680   5.205  11.956  0.8137  0.0349 -0.0400
 5475TIP3    H237917   1.775   5.097  12.003  1.3352  0.2023 -0.7099
 5476TIP3   OH237918   1.992   1.280  14.607  0.6485  0.2751 -0.1201
 5476TIP3    H137919   2.018   1.371  14.616  0.8214  0.1920  0.1987
 5476TIP3    H237920   1.997   1.263  14.513  1.7385  0.2574 -0.0601
 5477TIP3   OH237921   0.505   6.242  13.795  0.3172  0.7169 -0.0610
 5477TIP3    H137922   0.416   6.224  13.825 -0.5172  4.5099  0.0052
 5477TIP3    H237923   0.554   6.261  13.876  1.0077 -0.6569 -0.1534
 5478TIP3   OH237924   3.000   1.709   4.727 -0.0926 -0.1651  0.0186
 5478TIP3    H137925   2.905   1.712   4.714 -0.0656 -1.5340 -0.4957
 5478TIP3    H237926   3.031   1.644   4.664  0.9680 -1.0722  1.4600
 5479TIP3   OH237927   3.853   2.721   4.328 -0.1761 -0.4426  0.0830
 5479TIP3    H137928   3.771   2.672   4.332 -0.2583 -0.3322 -0.3200
 5479TIP3    H237929   3.833   2.806   4.367 -0.1043 -0.6204  0.5193
 5480TIP3   OH237930   6.692   2.232  17.282  0.2405  0.3686  0.2179
 5480TIP3    H137931   6.768   2.181  17.312  1.6301  1.7941 -0.8052
 5480TIP3    H237932   6.687   2.214  17.188 -2.4189 -1.9076  0.7531
 5481TIP3   OH237933   0.160   0.904  10.747 -0.1239  0.4561 -0.1495
 5481TIP3    H137934   0.097   0.973  10.770  0.6243  0.7851  0.9812
 5481TIP3    H237935   0.133   0.828  10.799  1.3220  1.0717  1.5429
 5482TIP3   OH237936   5.571   0.022  10.989  0.6615 -0.0719  0.4974
 5482TIP3    H137937   5.628  -0.033  11.043  1.1770 -0.8400 -0.7930
 5482TIP3    H237938   5.631   0.075  10.937  0.1801  0.5952  0.6184
 5483TIP3   OH237939   1.830   2.688  13.142 -0.4553  0.1422  0.3776
 5483TIP3    H137940   1.768   2.687  13.215 -0.6299  3.5065  0.3682
 5483TIP3    H237941   1.916   2.698  13.184 -0.3190 -0.3309  0.2149
 5484TIP3   OH237942   0.089   6.029   1.287 -0.1934  0.4474  0.0726
 5484TIP3    H137943   0.120   6.104   1.235  0.4950  0.8596  1.0798
 5484TIP3    H237944   0.017   6.064   1.339 -0.7311  0.0875 -0.4201
 5485TIP3   OH237945   3.363   5.106   4.406  0.0258 -0.5247  0.0344
 5485TIP3    H137946   3.305   5.031   4.402 -1.0341  0.2209  1.1626
 5485TIP3    H237947   3.323   5.165   4.470  0.8168  1.0096 -0.8354
 5486TIP3   OH237948   3.306   2.429  15.094 -0.8980 -0.6085  0.3041
 5486TIP3    H137949   3.230   2.487  15.095  0.3155  1.0434  1.0582
 5486TIP3    H237950   3.306   2.387  15.180  0.2772  1.1476  1.2149
 5487TIP3   OH237951   1.389   0.239  12.639 -0.3469 -0.0238  0.1314
 5487TIP3    H137952   1.391   0.151  12.601  1.8293  0.7298 -1.6334
 5487TIP3    H237953   1.480   0.269  12.635 -1.1875  2.6527 -0.1912
 5488TIP3   OH237954   1.320   0.165  17.124 -0.1394 -0.0627 -0.0318
 5488TIP3    H137955   1.375   0.087  17.109 -2.1700 -1.8925  1.7282
 5488TIP3    H237956   1.371   0.218  17.185  1.1282 -0.1101 -1.0056
 5489TIP3   OH237957   1.069   6.578   2.728 -0.9064 -0.3366  0.0456
 5489TIP3    H137958   1.107   6.587   2.815 -1.2890  0.0775  0.1712
 5489TIP3    H237959   0.977   6.599   2.740 -0.7644  0.6956 -0.6443
 5490TIP3   OH237960   3.602   3.725  14.984 -0.1753 -0.0507 -0.6909
 5490TIP3    H137961   3.692   3.739  15.013 -0.2507 -1.0243  0.0435
 5490TIP3    H237962   3.549   3.757  15.057 -0.3946 -0.9593 -0.4456
 5491TIP3   OH237963   4.373   4.964  14.489  0.1268 -0.5944  0.6651
 5491TIP3    H137964   4.369   4.927  14.400 -0.3375 -1.4913  1.0484
 5491TIP3    H237965   4.343   4.893  14.545 -1.8272  0.7217  1.3275
 5492TIP3   OH237966   1.959   2.202  11.902 -0.3539  0.1295 -0.4634
 5492TIP3    H137967   1.879   2.254  11.914 -0.3251 -0.0510  0.5073
 5492TIP3    H237968   1.956   2.175  11.810 -0.0509  2.3581 -1.1505
 5493TIP3   OH237969   1.883   4.316   5.001  0.2287  0.1905 -0.2489
 5493TIP3    H137970   1.903   4.256   5.073  2.1310 -0.1382 -1.0001
 5493TIP3    H237971   1.831   4.264   4.940  1.2317 -0.4910 -0.5410
 5494TIP3   OH237972   0.728   5.124   3.907  0.2748 -0.2095 -0.4027
 5494TIP3    H137973   0.724   5.186   3.979  0.8638  0.6814 -1.1223
 5494TIP3    H237974   0.642   5.128   3.866 -0.7422 -2.1951  1.4364
 5495TIP3   OH237975   1.474   1.546   6.071  0.3269  0.4415  0.5575
 5495TIP3    H137976   1.434   1.502   6.146 -0.0081 -0.3283 -0.0601
 5495TIP3    H237977   1.412   1.615   6.048 -0.0698  0.0344  0.3738
 5496TIP3   OH237978   2.853   2.683  17.040  0.6420  0.4543  0.3630
 5496TIP3    H137979   2.934   2.641  17.068  0.7697  0.0065 -0.6676
 5496TIP3    H237980   2.872   2.715  16.952  0.2736  1.9373  0.7974
 5497TIP3   OH237981   3.239   3.974   2.247  0.1958 -0.8183  0.3661
 5497TIP3    H137982   3.335   3.977   2.250  0.1314  1.5096  3.8026
 5497TIP3    H237983   3.218   3.880   2.252  2.2411 -1.4812 -2.2156
 5498TIP3   OH237984   3.544   4.971   4.226 -0.0611  0.6598 -0.2043
 5498TIP3    H137985   3.537   5.017   4.142  2.2162 -1.1397 -1.4452
 5498TIP3    H237986   3.455   4.940   4.244 -0.2893 -0.3317 -2.7927
 5499TIP3   OH237987   2.612   0.282  14.262 -0.0592 -0.0612 -0.0831
 5499TIP3    H137988   2.621   0.273  14.168  0.6376  1.6316 -0.2011
 5499TIP3    H237989   2.660   0.208  14.298  1.5913  0.5327 -1.0238
 5500TIP3   OH237990   6.176   2.484   3.681  0.2021 -0.0629  0.5168
 5500TIP3    H137991   6.203   2.518   3.766 -0.0792  0.3660  0.4369
 5500TIP3    H237992   6.095   2.531   3.662  1.3939  1.4157 -0.9812
 5501TIP3   OH237993   0.719   0.794   1.298  0.4986 -0.6617 -0.4611
 5501TIP3    H137994   0.751   0.709   1.329 -0.6677  1.0716  6.3189
 5501TIP3    H237995   0.792   0.854   1.315 -0.1914  0.4023 -1.2245
 5502TIP3   OH237996   4.099   4.561  12.538  0.3054 -1.0458 -0.3378
 5502TIP3    H137997   4.033   4.550  12.607  1.0785  0.5837  0.6805
 5502TIP3    H237998   4.139   4.474  12.528  0.4568 -1.1936  1.5427
 5503TIP3   OH237999   1.332   4.455  12.787 -0.7722 -0.4672  0.0183
 5503TIP3    H138000   1.283   4.453  12.705  0.2492  1.1229 -0.6466
 5503TIP3    H238001   1.424   4.460  12.761 -0.3309 -1.7767  1.2621
 5504TIP3   OH238002   5.820   3.703   1.071  0.3568 -0.3690  0.3619
 5504TIP3    H138003   5.845   3.635   1.135 -1.2996 -1.8114 -0.4755
 5504TIP3    H238004   5.762   3.761   1.120  1.5001  0.2695  0.9887
 5505TIP3   OH238005   2.408   3.568  16.395 -0.0370 -0.2329 -0.6605
 5505TIP3    H138006   2.460   3.489  16.377  1.0917  0.1303  0.9405
 5505TIP3    H238007   2.351   3.543  16.468  0.3603  0.4562 -0.1190
 5506TIP3   OH238008   2.630   6.586   4.195  0.0680  0.2399  0.0560
 5506TIP3    H138009   2.686   6.529   4.142  0.5063 -1.1054  1.9230
 5506TIP3    H238010   2.587   6.643   4.131 -0.1529 -1.9703 -1.8482
 5507TIP3   OH238011   3.707   1.471  12.522 -0.4468  0.3650  0.4234
 5507TIP3    H138012   3.745   1.403  12.466 -0.4575 -0.3022  1.2114
 5507TIP3    H238013   3.774   1.538  12.528  0.2819 -0.4069  1.0902
 5508TIP3   OH238014   5.418   6.494  12.708 -0.0354  0.6241 -0.0190
 5508TIP3    H138015   5.355   6.566  12.712  0.2655  0.8661  0.3547
 5508TIP3    H238016   5.498   6.529  12.746 -0.2958 -0.3256  1.4695
 5509TIP3   OH238017   0.591   3.674   5.431  0.7179 -0.3599  0.3214
 5509TIP3    H138018   0.545   3.729   5.368  0.3058 -2.5105 -1.3420
 5509TIP3    H238019   0.683   3.698   5.422  0.2190  2.2947  1.9509
 5510TIP3   OH238020   2.253   1.304   0.303 -0.4095  0.9666 -0.9534
 5510TIP3    H138021   2.295   1.256   0.231  0.3324  1.5014 -0.8806
 5510TIP3    H238022   2.247   1.239   0.373  1.8455  1.3218 -0.3838
 5511TIP3   OH238023   4.061   1.990   3.104 -0.0830  0.1204  0.3771
 5511TIP3    H138024   4.024   2.078   3.111 -2.1636 -0.5860 -1.2305
 5511TIP3    H238025   3.986   1.932   3.106  1.0720 -1.4739 -0.9225
 5512TIP3   OH238026   1.482   6.699   5.932 -0.0654  0.1118 -0.4394
 5512TIP3    H138027   1.528   6.616   5.917  2.9065  1.7378 -0.8259
 5512TIP3    H238028   1.502   6.752   5.854  0.6340  2.2539  1.1470
 5513TIP3   OH238029   4.778   6.602  14.790  0.7414 -0.0294 -0.4106
 5513TIP3    H138030   4.783   6.616  14.884  2.2959  0.7134 -0.5959
 5513TIP3    H238031   4.825   6.676  14.752 -1.0618  0.4384 -1.8428
 5514TIP3   OH238032   2.140   5.022  13.224  0.5957  0.2177  0.1024
 5514TIP3    H138033   2.051   5.042  13.195 -0.3553 -1.7597  1.5613
 5514TIP3    H238034   2.191   5.020  13.143 -0.5461  1.9823 -0.6907
 5515TIP3   OH238035   0.897   6.100   1.972  0.0970  0.1577  0.4932
 5515TIP3    H138036   0.851   6.146   2.042  1.6414  0.4550  1.3485
 5515TIP3    H238037   0.838   6.103   1.897 -1.4716  0.0698  1.7147
 5516TIP3   OH238038   5.873   6.660  14.025  0.5352  0.3660 -0.1173
 5516TIP3    H138039   5.917   6.698  14.102 -0.4886  1.3628 -0.0099
 5516TIP3    H238040   5.944   6.645  13.962  1.1276  1.3973  0.2793
 5517TIP3   OH238041   0.034   6.048   5.992  0.2321  0.0849  0.3917
 5517TIP3    H138042   0.094   6.122   5.997 -0.1046  0.4903 -1.1463
 5517TIP3    H238043   0.055   5.994   6.068  0.4056  1.8103  1.5985
 5518TIP3   OH238044   2.769   5.060  15.230  0.1733 -0.0933  0.3744
 5518TIP3    H138045   2.818   5.095  15.305 -0.8276  1.2118  0.4557
 5518TIP3    H238046   2.755   5.136  15.173 -1.0034 -0.6001 -0.0418
 5519TIP3   OH238047   5.578   6.361   0.149 -0.2765  0.7018  0.5285
 5519TIP3    H138048   5.562   6.449   0.183  2.0625  0.9596  1.1204
 5519TIP3    H238049   5.606   6.311   0.226 -0.9935 -0.3807  0.0866
 5520TIP3   OH238050   3.898   5.215  16.786  0.3061 -0.3673 -0.2591
 5520TIP3    H138051   3.874   5.127  16.757 -0.5939  0.0962 -0.9358
 5520TIP3    H238052   3.990   5.208  16.811  0.1706 -1.5582 -0.0833
 5521TIP3   OH238053   0.090   1.656  17.012  0.2288 -0.1727 -0.5344
 5521TIP3    H138054   0.029   1.632  16.942 -1.6211  0.6814  0.7463
 5521TIP3    H238055   0.110   1.573  17.055 -0.9268 -0.3398 -0.2767
 5522TIP3   OH238056   0.023   0.110   3.877 -0.5438 -0.1781  0.0633
 5522TIP3    H138057  -0.069   0.138   3.875 -0.1422  1.3317  1.6027
 5522TIP3    H238058   0.058   0.150   3.956  0.9795 -2.2886  0.4801
 5523TIP3   OH238059   6.438   1.737  12.566 -0.1103 -0.2123 -0.2316
 5523TIP3    H138060   6.440   1.646  12.598  0.6562 -0.2939 -0.5186
 5523TIP3    H238061   6.454   1.730  12.472  0.5048  0.2730 -0.1620
 5524TIP3   OH238062   6.290   2.537  14.275 -0.2465  0.6351 -0.1964
 5524TIP3    H138063   6.222   2.476  14.304  0.4617  0.7920  1.8460
 5524TIP3    H238064   6.365   2.481  14.256 -0.3507  0.6480 -0.6552
 5525TIP3   OH238065   0.844   1.653  12.859 -0.1319 -0.2427  0.2665
 5525TIP3    H138066   0.758   1.671  12.895  0.9375  2.0277  1.8387
 5525TIP3    H238067   0.903   1.655  12.935  1.3945 -1.0833 -0.8646
 5526TIP3   OH238068   4.524   4.305  14.205  0.5381  0.2715  0.8544
 5526TIP3    H138069   4.473   4.386  14.198 -0.6251 -0.4814  0.3956
 5526TIP3    H238070   4.520   4.283  14.298 -0.3428 -0.0131  0.7507
 5527TIP3   OH238071   1.813   2.971  11.449 -0.0499 -0.0838 -0.0648
 5527TIP3    H138072   1.748   2.998  11.515  1.4563  3.4663  0.0964
 5527TIP3    H238073   1.773   2.995  11.365 -0.0016 -0.2233 -0.1272
 5528TIP3   OH238074   6.043   1.144  12.578 -0.2446  0.0411 -0.2337
 5528TIP3    H138075   6.059   1.080  12.509 -0.3199 -0.4521  0.2087
 5528TIP3    H238076   5.957   1.121  12.613 -0.9537  1.2897 -1.0683
 5529TIP3   OH238077   6.562   4.164   0.796  0.1459  0.2271 -0.4242
 5529TIP3    H138078   6.540   4.213   0.876  0.0436  1.3074 -1.0961
 5529TIP3    H238079   6.576   4.232   0.730 -4.2774 -0.6989 -2.5029
 5530TIP3   OH238080   6.027   3.667  13.237  0.7983  0.1910 -0.4167
 5530TIP3    H138081   5.998   3.617  13.313  0.5282  0.7833 -0.1167
 5530TIP3    H238082   6.108   3.709  13.264  1.2299 -0.3984 -0.7999
 5531TIP3   OH238083   0.496   4.216   0.788  0.0361  0.1707  0.5431
 5531TIP3    H138084   0.555   4.279   0.829 -0.9005  0.2329  1.8082
 5531TIP3    H238085   0.432   4.269   0.740  0.5621  0.1157 -0.2427
 5532TIP3   OH238086   6.575   6.033  12.123 -0.0531 -0.4513 -0.2438
 5532TIP3    H138087   6.649   6.041  12.183  0.2603 -0.5474 -0.6171
 5532TIP3    H238088   6.615   6.023  12.037 -0.5223  1.8485 -0.7529
 5533TIP3   OH238089   1.062   3.665   1.550 -0.1073  0.6189  0.3024
 5533TIP3    H138090   1.102   3.715   1.479 -0.9531  0.2263 -0.4697
 5533TIP3    H238091   1.073   3.573   1.525  1.5492  0.3948  1.7773
 5534TIP3   OH238092   6.123   5.427  15.941 -0.2608  0.3105  0.3536
 5534TIP3    H138093   6.091   5.453  16.028 -0.6003 -0.6978  0.5458
 5534TIP3    H238094   6.135   5.332  15.948 -0.2733  0.2266 -0.6993
 5535TIP3   OH238095   2.227   2.701  11.700  0.2638  0.2045  0.0941
 5535TIP3    H138096   2.163   2.651  11.750  1.6353 -0.5641  1.1386
 5535TIP3    H238097   2.229   2.659  11.614  0.9617 -1.1797  0.7713
 5536TIP3   OH238098   3.468   2.717   2.698  0.2251 -0.5568  0.7362
 5536TIP3    H138099   3.421   2.782   2.646  0.9980  0.6119  1.4888
 5536TIP3    H238100   3.426   2.719   2.784  0.5733 -0.7094  0.9114
 5537TIP3   OH238101   6.071   6.509   6.041 -0.2803  0.4449  0.1146
 5537TIP3    H138102   6.023   6.448   6.097  1.4706 -0.7570  0.3359
 5537TIP3    H238103   6.077   6.589   6.091  0.7227 -0.4215  1.4026
 5538TIP3   OH238104   1.047   2.359  12.870 -0.4353 -0.3210 -0.3721
 5538TIP3    H138105   1.091   2.380  12.787  0.9781 -1.7322 -0.0060
 5538TIP3    H238106   0.989   2.433  12.885 -1.3968 -0.4617 -3.0864
 5539TIP3   OH238107   2.401   6.232   2.715 -0.8000 -0.0003  0.5953
 5539TIP3    H138108   2.350   6.308   2.685 -0.5202 -0.4434 -1.0830
 5539TIP3    H238109   2.370   6.160   2.660  1.9042 -0.2004 -0.7474
 5540TIP3   OH238110   3.514   3.516   2.724 -0.5884  0.1773 -0.1959
 5540TIP3    H138111   3.552   3.513   2.636  0.1602  0.7148  0.1039
 5540TIP3    H238112   3.504   3.424   2.749  0.3950  0.0275 -0.3329
 5541TIP3   OH238113   1.925   1.354  14.893  0.2763 -0.2429  0.4112
 5541TIP3    H138114   1.956   1.374  14.805 -0.9434  1.4693  0.3325
 5541TIP3    H238115   1.943   1.434  14.943  0.5609 -1.0431  1.6024
 5542TIP3   OH238116   3.623   0.342   3.748 -0.0216 -0.0908 -0.1942
 5542TIP3    H138117   3.690   0.334   3.680  0.4246 -1.1924  0.3705
 5542TIP3    H238118   3.560   0.404   3.711  1.1291  0.7007 -0.8652
 5543TIP3   OH238119   1.466   3.857   3.769  0.4284 -0.3276  0.0071
 5543TIP3    H138120   1.384   3.904   3.787  0.1708 -0.5280 -0.6283
 5543TIP3    H238121   1.441   3.790   3.705  0.9910 -0.7050  0.1852
 5544TIP3   OH238122   3.379   4.929   2.474  0.1008  0.1736 -0.1163
 5544TIP3    H138123   3.445   4.903   2.410 -0.2806  1.0502 -0.8903
 5544TIP3    H238124   3.381   4.860   2.541  3.2018  1.2119  0.9445
 5545TIP3   OH238125   1.993   1.134  16.533  0.0080  0.6489  0.0175
 5545TIP3    H138126   1.900   1.147  16.519 -0.4059 -0.6927  1.3493
 5545TIP3    H238127   2.007   1.040  16.518  0.6316  0.3149  2.3783
 5546TIP3   OH238128   4.219   5.973   3.248  0.6854 -0.4298 -0.1638
 5546TIP3    H138129   4.154   6.030   3.289  0.1913 -0.9377 -0.2270
 5546TIP3    H238130   4.200   5.977   3.154  0.5390 -0.8187 -0.1552
 5547TIP3   OH238131   4.827   3.168  16.225  0.3742  0.3095  0.2252
 5547TIP3    H138132   4.742   3.169  16.269  0.6548  0.6105  0.7648
 5547TIP3    H238133   4.884   3.119  16.284 -0.2149 -2.7852 -1.6550
 5548TIP3   OH238134   0.757   2.621  11.720  0.0835  0.6015 -0.3485
 5548TIP3    H138135   0.695   2.561  11.680  1.7088  0.1257 -2.2656
 5548TIP3    H238136   0.718   2.707  11.709 -0.7525  0.2016 -0.5235
 5549TIP3   OH238137   3.915   0.653  12.536 -0.0049 -0.3963  0.0504
 5549TIP3    H138138   3.918   0.727  12.597 -0.1523 -0.5922  0.2988
 5549TIP3    H238139   3.821   0.637  12.522  0.0299  0.5196 -1.2926
 5550TIP3   OH238140   2.485   2.366  11.414 -0.1400  0.1627 -0.0539
 5550TIP3    H138141   2.449   2.428  11.477 -0.1017  0.2319 -0.1003
 5550TIP3    H238142   2.414   2.303  11.399  0.4435 -0.8427  1.3421
 5551TIP3   OH238143   5.645   0.425  11.171 -0.6680  0.8887 -0.5690
 5551TIP3    H138144   5.564   0.453  11.129 -0.8847  1.6365  0.3283
 5551TIP3    H238145   5.636   0.453  11.262 -1.4675 -3.3506  0.7366
 5552TIP3   OH238146   3.902   0.234   1.151  0.3071  0.1903  0.2178
 5552TIP3    H138147   3.847   0.171   1.198 -1.1231  0.4235 -1.1153
 5552TIP3    H238148   3.965   0.180   1.103 -1.3489 -0.3028 -1.4732
 5553TIP3   OH238149   0.634   0.245   4.240  0.0081  0.4536  0.4011
 5553TIP3    H138150   0.700   0.210   4.299  0.3169  0.3788  0.0120
 5553TIP3    H238151   0.552   0.237   4.289  0.2283  0.1775  0.7300
 5554TIP3   OH238152   5.015   0.733   6.238 -0.4512  0.2556 -0.0962
 5554TIP3    H138153   5.005   0.643   6.205 -1.7583  0.4028 -0.1362
 5554TIP3    H238154   5.080   0.725   6.307 -0.2511 -0.6629 -0.3763
 5555TIP3   OH238155   3.507   1.192  11.423 -0.2550  0.8175 -0.0950
 5555TIP3    H138156   3.498   1.273  11.474 -0.8640 -0.7921  2.4202
 5555TIP3    H238157   3.601   1.175  11.421 -0.2954  0.3780  1.3468
 5556TIP3   OH238158   6.592   5.414  11.511  0.2605  0.0231  0.3974
 5556TIP3    H138159   6.544   5.485  11.468 -0.3878 -2.1639 -2.6558
 5556TIP3    H238160   6.666   5.458  11.554 -1.1647  2.7496  0.1742
 5557TIP3   OH238161   0.957   4.050   0.021  0.1740 -0.6650 -0.1507
 5557TIP3    H138162   0.872   4.073   0.060  1.0331  0.1023  1.2939
 5557TIP3    H238163   0.934   4.006  -0.061 -1.7172 -3.4432  1.7690
 5558TIP3   OH238164   3.341   4.899   0.019  0.1707 -0.5726  0.0790
 5558TIP3    H138165   3.373   4.975  -0.030 -0.0460 -1.0794 -0.8626
 5558TIP3    H238166   3.246   4.914   0.027 -0.1024 -1.4195 -1.3496
 5559TIP3   OH238167   4.442   4.280  13.099  0.9719 -0.7979  0.0912
 5559TIP3    H138168   4.359   4.238  13.121  2.0959 -2.3432  1.4659
 5559TIP3    H238169   4.487   4.217  13.043  0.3890  0.8940 -2.3568
 5560TIP3   OH238170   3.831   2.043  16.185  0.5901 -0.1205  0.6496
 5560TIP3    H138171   3.851   1.955  16.216 -0.9860 -0.4390  0.8292
 5560TIP3    H238172   3.903   2.065  16.126  1.4168 -1.1997  1.2398
 5561TIP3   OH238173   1.063   1.710  12.339 -0.4429  0.0351  0.0010
 5561TIP3    H138174   1.071   1.699  12.245  1.0314  2.1797 -0.1565
 5561TIP3    H238175   1.042   1.803  12.351 -3.7107 -0.8178  1.6449
 5562TIP3   OH238176   2.684   0.961  13.019  0.2062 -0.2143  0.2255
 5562TIP3    H138177   2.702   0.909  13.097 -2.4325 -0.0338  0.9999
 5562TIP3    H238178   2.740   0.924  12.951  0.7270 -1.9453  1.5777
 5563TIP3   OH238179   3.242   3.533  14.541 -0.2785 -0.5690 -0.1895
 5563TIP3    H138180   3.168   3.529  14.480 -0.4768 -1.7241  0.1160
 5563TIP3    H238181   3.216   3.476  14.614  0.1090  0.5070  0.8136
 5564TIP3   OH238182   0.659   1.879   6.178 -0.4785 -0.4075  0.4296
 5564TIP3    H138183   0.719   1.946   6.210  1.6838 -1.6180 -0.9635
 5564TIP3    H238184   0.678   1.872   6.084 -3.3922 -0.2608 -0.2329
 5565TIP3   OH238185   4.153   3.463  14.229  0.1356 -0.0988  0.1219
 5565TIP3    H138186   4.192   3.394  14.177  0.8424  0.9084 -0.7030
 5565TIP3    H238187   4.214   3.537  14.222 -1.8353  1.4596 -1.0809
 5566TIP3   OH238188   5.740   4.070  11.858 -0.0817 -0.1850  0.2025
 5566TIP3    H138189   5.812   4.127  11.832 -1.7127  1.5557 -0.6755
 5566TIP3    H238190   5.730   4.009  11.784 -1.5560  1.6414 -1.1558
 5567TIP3   OH238191   0.026   1.201   2.325 -0.0355  0.0960  0.4783
 5567TIP3    H138192   0.020   1.175   2.233 -0.4516 -0.6698  0.7147
 5567TIP3    H238193   0.046   1.119   2.371 -1.7495  0.1094  1.2895
 5568TIP3   OH238194   2.604   3.565  16.649  0.4741 -0.2037  0.2156
 5568TIP3    H138195   2.690   3.546  16.610 -0.1003  0.2811 -1.3395
 5568TIP3    H238196   2.580   3.484  16.694  1.0894 -0.8506 -0.5994
 5569TIP3   OH238197   2.014   4.258  16.362 -0.0234  0.2606 -0.6775
 5569TIP3    H138198   1.985   4.170  16.336  0.3530  0.0410 -0.3646
 5569TIP3    H238199   1.937   4.313  16.350 -1.1479 -0.6435  1.8446
 5570TIP3   OH238200   6.739   3.616   2.929 -0.3957 -0.8889 -0.6384
 5570TIP3    H138201   6.817   3.649   2.884 -1.2927  0.2827 -1.3716
 5570TIP3    H238202   6.770   3.593   3.016  0.6496  0.2068 -0.6933
 5571TIP3   OH238203   6.362   5.767   0.749 -1.0810 -0.4999 -0.8871
 5571TIP3    H138204   6.314   5.687   0.771 -0.7516 -0.4509  0.0196
 5571TIP3    H238205   6.433   5.771   0.813  0.6153 -0.9647 -2.6926
 5572TIP3   OH238206   5.624   1.064   4.169 -0.1418  0.3575 -0.2097
 5572TIP3    H138207   5.567   1.073   4.245 -0.3595  0.3253 -0.3715
 5572TIP3    H238208   5.698   1.122   4.187  0.2120 -0.2753  0.4125
 5573TIP3   OH238209   0.986   6.436   5.419  0.5828  0.5227 -0.1110
 5573TIP3    H138210   0.952   6.522   5.444 -1.3566 -0.6002  1.1926
 5573TIP3    H238211   1.054   6.417   5.485  1.9629  1.6213 -1.1912
 5574TIP3   OH238212   4.496   1.921   6.388 -0.1771  0.5316  1.5357
 5574TIP3    H138213   4.456   1.847   6.435 -1.8313  1.7234  2.0476
 5574TIP3    H238214   4.425   1.985   6.380  0.6635  1.2304 -0.7305
 5575TIP3   OH238215   3.520   4.451   0.938  0.8929  0.3399  0.2162
 5575TIP3    H138216   3.608   4.462   0.974  0.9702  0.1976  0.0741
 5575TIP3    H238217   3.474   4.531   0.962  1.0672  0.4246  0.2723
 5576TIP3   OH238218   2.488   6.181   1.731  0.3348  0.1042  0.3454
 5576TIP3    H138219   2.446   6.149   1.651 -0.4828  0.0117  0.8068
 5576TIP3    H238220   2.511   6.102   1.779  0.1465  0.1771  0.5530
 5577TIP3   OH238221   1.205   2.205  11.464 -0.3922  0.3840 -0.7124
 5577TIP3    H138222   1.292   2.226  11.430 -0.0360 -1.9370 -1.3280
 5577TIP3    H238223   1.218   2.193  11.558  0.0078 -0.2618 -0.8509
 5578TIP3   OH238224   6.356   5.180   5.382 -0.8151 -0.4463  0.2282
 5578TIP3    H138225   6.262   5.190   5.369 -0.9850 -2.1713 -0.0662
 5578TIP3    H238226   6.370   5.195   5.476 -1.5078 -1.0038  0.4217
 5579TIP3   OH238227   5.203   5.057  11.949 -0.0005 -0.1403  0.0245
 5579TIP3    H138228   5.121   5.059  11.998 -0.8497  0.9318 -1.4104
 5579TIP3    H238229   5.220   4.964  11.933 -2.0278 -0.2929 -1.4259
 5580TIP3   OH238230   4.172   1.941  15.584  0.4667 -0.2023 -0.4746
 5580TIP3    H138231   4.207   1.857  15.555  2.3873  0.3090  0.2968
 5580TIP3    H238232   4.178   1.998  15.507  0.0188 -0.5068 -0.7374
 5581TIP3   OH238233   6.724   0.650   5.845 -0.2196  0.6168 -0.6181
 5581TIP3    H138234   6.699   0.737   5.813 -1.1925  0.1474 -1.1483
 5581TIP3    H238235   6.681   0.642   5.930 -1.4384  0.0326 -1.2787
 5582TIP3   OH238236   3.923   1.898  15.265 -0.2185  0.2617 -0.3631
 5582TIP3    H138237   3.912   1.989  15.237  0.6869 -0.0325 -1.7240
 5582TIP3    H238238   3.834   1.864  15.274 -0.5350  0.8095 -1.4507
 5583TIP3   OH238239   0.123   4.437  14.400 -0.3311  0.5484 -0.0998
 5583TIP3    H138240   0.066   4.377  14.353 -2.0160 -0.0562  2.6492
 5583TIP3    H238241   0.079   4.522  14.394 -1.9857 -0.0623  2.6604
 5584TIP3   OH238242   4.417   5.081  16.558 -0.3302  0.2746  0.3479
 5584TIP3    H138243   4.434   5.040  16.474 -1.4352  0.3625  0.0748
 5584TIP3    H238244   4.322   5.076  16.569 -0.0922 -0.8532  2.1576
 5585TIP3   OH238245   3.951   2.987   6.441 -0.3930  0.0341  0.0591
 5585TIP3    H138246   3.987   2.921   6.501  1.9993 -0.0894 -1.4283
 5585TIP3    H238247   3.878   2.944   6.398  0.5487 -1.3523 -0.1901
 5586TIP3   OH238248   4.216   6.114   4.511  0.6705 -0.0911  0.3757
 5586TIP3    H138249   4.148   6.047   4.518  0.0978  0.3822 -0.6289
 5586TIP3    H238250   4.271   6.100   4.588 -0.5065 -0.5394  1.1537
 5587TIP3   OH238251   0.504   6.052   5.865 -0.2572  0.4052 -0.2058
 5587TIP3    H138252   0.484   5.963   5.834  0.0366  0.1982  0.1834
 5587TIP3    H238253   0.489   6.047   5.959  0.4919  0.5624 -0.0769
 5588TIP3   OH238254   6.249   6.412  14.047 -0.3107 -0.5712 -0.3200
 5588TIP3    H138255   6.167   6.395  14.094 -0.5016 -0.7549 -0.7173
 5588TIP3    H238256   6.317   6.395  14.112 -0.5884 -0.3239  0.0399
 5589TIP3   OH238257   4.210   5.744  14.108 -0.3687 -0.0310 -0.0944
 5589TIP3    H138258   4.277   5.756  14.041  0.1331  1.6950  0.6881
 5589TIP3    H238259   4.244   5.675  14.164 -0.4749 -1.0069 -1.2101
 5590TIP3   OH238260   0.357   0.939   2.300 -0.1788 -0.0966  0.2295
 5590TIP3    H138261   0.367   1.021   2.348 -0.1173 -0.0519  0.1390
 5590TIP3    H238262   0.421   0.944   2.229 -1.9489  0.8832 -1.3319
 5591TIP3   OH238263   6.786   2.911   5.089  0.0525  0.6327  0.6452
 5591TIP3    H138264   6.831   2.984   5.045  0.7463 -0.1348  0.0852
 5591TIP3    H238265   6.849   2.877   5.152  0.3295 -0.5632 -0.2701
 5592TIP3   OH238266   6.037   0.124   2.265 -0.0758 -0.2415  0.0431
 5592TIP3    H138267   5.954   0.085   2.292  0.1593 -0.8056 -0.0291
 5592TIP3    H238268   6.065   0.176   2.340 -0.3892 -0.2225  0.1474
 5593TIP3   OH238269   1.998   0.240  13.478  0.1261 -0.0642  0.6052
 5593TIP3    H138270   2.048   0.231  13.397 -0.8170 -0.3319  0.0384
 5593TIP3    H238271   1.916   0.194  13.460  0.7593 -2.0109  2.4813
 5594TIP3   OH238272   5.469   5.361   2.438  0.4112  0.0462 -0.5703
 5594TIP3    H138273   5.390   5.387   2.486 -0.6503 -3.3276 -0.3831
 5594TIP3    H238274   5.541   5.400   2.488 -1.0131  1.8064  0.1859
 5595TIP3   OH238275   2.403   2.823  17.231  0.6812 -0.2621 -0.2871
 5595TIP3    H138276   2.416   2.898  17.289 -1.6177  1.0419 -1.3605
 5595TIP3    H238277   2.331   2.774  17.272  1.3905 -1.2577 -0.2147
 5596TIP3   OH238278   3.145   1.380  13.289  0.0987  0.9894 -0.2728
 5596TIP3    H138279   3.072   1.431  13.326  0.1200  0.1879  0.9025
 5596TIP3    H238280   3.156   1.307  13.350  0.8657  0.2474 -1.2940
 5597TIP3   OH238281   2.737   1.316  16.098  0.6205  0.2945  0.3632
 5597TIP3    H138282   2.820   1.331  16.053  0.4818  1.6919  0.5580
 5597TIP3    H238283   2.750   1.351  16.186  0.3358 -0.9198  0.9032
 5598TIP3   OH238284   1.794   4.265   4.298 -0.8889 -0.1374 -0.1784
 5598TIP3    H138285   1.791   4.216   4.216 -1.5903 -0.5266  0.0783
 5598TIP3    H238286   1.773   4.200   4.365 -0.4814  0.2173  0.2974
 5599TIP3   OH238287   4.045   0.134   3.060  0.1151  0.3335  0.3728
 5599TIP3    H138288   4.099   0.212   3.076  1.2897 -0.5852  0.9446
 5599TIP3    H238289   4.090   0.088   2.990 -1.7177  1.2180 -1.4196
 5600TIP3   OH238290   3.485   3.129   4.923 -0.2523  0.4961  0.0632
 5600TIP3    H138291   3.488   3.042   4.884  1.4076  0.4039  0.3700
 5600TIP3    H238292   3.575   3.162   4.916 -0.4570  1.4469  1.6184
 5601TIP3   OH238293   1.483   4.295   4.417 -0.2139  0.0207  0.3553
 5601TIP3    H138294   1.462   4.294   4.510 -1.7990  0.5860  0.0201
 5601TIP3    H238295   1.404   4.328   4.375  0.2408 -0.8857 -1.2577
 5602TIP3   OH238296   3.067   5.826   0.376 -0.2580  0.2698 -0.1876
 5602TIP3    H138297   3.012   5.794   0.447 -1.4129  1.1243 -0.6849
 5602TIP3    H238298   3.128   5.886   0.418 -1.4640  1.4081 -0.0142
 5603TIP3   OH238299   2.597   5.798   2.854  0.0148 -0.0839 -0.0038
 5603TIP3    H138300   2.520   5.741   2.852  0.2756 -0.3924 -1.2238
 5603TIP3    H238301   2.669   5.744   2.821  0.2514  0.9596 -1.2435
 5604TIP3   OH238302   2.355   1.836  13.045 -0.0647 -0.2310  0.1673
 5604TIP3    H138303   2.374   1.761  12.988 -0.6410 -0.4589  0.2745
 5604TIP3    H238304   2.389   1.811  13.130  0.2348 -0.1472  0.0714
 5605TIP3   OH238305   3.065   6.066  12.342 -0.8620 -0.3147  0.0732
 5605TIP3    H138306   3.024   6.116  12.414 -1.8126 -1.4060  0.3095
 5605TIP3    H238307   3.010   5.988  12.333 -0.5045 -0.3886 -1.5786
 5606TIP3   OH238308   4.317   6.329  16.486  0.0510  0.0947 -0.3781
 5606TIP3    H138309   4.269   6.410  16.503  1.7324  0.6283  1.9188
 5606TIP3    H238310   4.407   6.347  16.513  0.5738 -2.3686 -0.3331
 5607TIP3   OH238311   2.316   0.994   6.577 -0.6246 -0.2683 -0.6557
 5607TIP3    H138312   2.324   0.997   6.672  0.2288  0.2213 -0.7425
 5607TIP3    H238313   2.360   0.913   6.552  1.9520  1.1476 -0.8991
 5608TIP3   OH238314   5.038   3.033  16.395 -0.4316  0.4088  0.5520
 5608TIP3    H138315   5.094   2.959  16.418  1.3650  1.8159  0.8454
 5608TIP3    H238316   4.978   3.042  16.469 -0.1662 -0.2734  0.8578
 5609TIP3   OH238317   3.388   0.054  11.294 -0.5111  0.2701 -0.2720
 5609TIP3    H138318   3.436  -0.028  11.278 -0.5061  0.2526 -0.1659
 5609TIP3    H238319   3.438   0.120  11.246  0.8882  0.6468  1.6132
 5610TIP3   OH238320   6.520   0.639  17.276 -0.0613 -0.3164  0.5179
 5610TIP3    H138321   6.488   0.725  17.301  1.6262 -0.5350  3.6800
 5610TIP3    H238322   6.466   0.578  17.326  1.0514 -0.9248  1.0008
 5611TIP3   OH238323   4.992   0.241  16.916  0.1565  0.0308  0.3195
 5611TIP3    H138324   4.957   0.309  16.973 -1.2955 -0.1249 -0.3549
 5611TIP3    H238325   4.926   0.231  16.847  0.7055 -1.5202 -0.0108
 5612TIP3   OH238326   1.725   5.149   0.216 -0.1065 -0.0858  0.5755
 5612TIP3    H138327   1.673   5.070   0.198 -0.1023  0.4290 -1.8473
 5612TIP3    H238328   1.808   5.134   0.171 -0.1704  1.3509 -0.0625
 5613TIP3   OH238329   6.320   4.215  16.979  0.2690  0.2122  0.2563
 5613TIP3    H138330   6.254   4.165  17.026  1.9232 -1.2310  1.0891
 5613TIP3    H238331   6.402   4.169  16.996  1.5294  2.0807 -0.5966
 5614TIP3   OH238332   1.674   3.219  16.230  0.0443  0.6243 -0.1665
 5614TIP3    H138333   1.639   3.308  16.238  0.9887  0.9450  0.3893
 5614TIP3    H238334   1.711   3.200  16.316 -0.0329 -0.2591 -0.3262
 5615TIP3   OH238335   1.766   6.328   5.935 -0.0604 -0.2162 -0.0525
 5615TIP3    H138336   1.838   6.336   5.872  1.7635 -0.6832  1.9194
 5615TIP3    H238337   1.809   6.306   6.018 -2.3820  0.8613  1.4746
 5616TIP3   OH238338   6.585   0.978   3.670 -0.3110  0.4590  0.0546
 5616TIP3    H138339   6.615   1.023   3.590  1.3895 -0.3279  0.2298
 5616TIP3    H238340   6.515   1.034   3.703 -0.3115  1.3715 -1.4035
 5617TIP3   OH238341   6.776   6.579   2.634 -0.0298 -0.1956 -0.5535
 5617TIP3    H138342   6.860   6.541   2.662 -0.8555 -2.3251 -0.9330
 5617TIP3    H238343   6.801   6.662   2.594  1.9995 -1.1760 -1.4087
 5618TIP3   OH238344   3.467   1.896   0.192  0.2708  0.4126  0.4723
 5618TIP3    H138345   3.445   1.902   0.099  1.0665 -1.8233  0.1144
 5618TIP3    H238346   3.496   1.984   0.216  1.0029  0.7699 -1.6521
 5619TIP3   OH238347   6.376   5.580  16.393 -0.0795  0.0393  0.5294
 5619TIP3    H138348   6.401   5.638  16.465  1.1538 -1.2556  1.1712
 5619TIP3    H238349   6.459   5.539  16.366 -0.8339 -0.9471 -0.3296
 5620TIP3   OH238350   4.650   2.281   3.847 -0.1803  0.4239  0.1806
 5620TIP3    H138351   4.676   2.190   3.834  1.6657  0.9789 -0.0962
 5620TIP3    H238352   4.707   2.331   3.789 -2.3064  1.6335 -0.9287
 5621TIP3   OH238353   5.194   4.899   4.371 -0.4310 -0.0142  0.4696
 5621TIP3    H138354   5.155   4.812   4.376  0.4779 -0.4520  0.0260
 5621TIP3    H238355   5.288   4.883   4.378 -0.1816  0.8186 -0.9192
 5622TIP3   OH238356   5.429   2.519  17.262 -0.2956  0.7421 -0.1896
 5622TIP3    H138357   5.384   2.462  17.325  2.6557 -0.9055  0.5315
 5622TIP3    H238358   5.496   2.563  17.314 -0.6507  2.6965 -1.3447
 5623TIP3   OH238359   5.337   5.266   2.850 -0.5463 -0.2605  0.0932
 5623TIP3    H138360   5.395   5.202   2.808 -1.0026 -0.6249  0.0178
 5623TIP3    H238361   5.385   5.294   2.928  0.3940  0.5766 -0.7662
 5624TIP3   OH238362   6.574   4.377   6.684  0.1105 -0.7354 -0.0544
 5624TIP3    H138363   6.518   4.401   6.757 -0.6396 -1.7492 -0.2840
 5624TIP3    H238364   6.663   4.384   6.719 -0.2414 -1.1484  0.9391
 5625TIP3   OH238365   3.671   5.336  13.009  0.0875 -0.2425 -0.8658
 5625TIP3    H138366   3.749   5.390  13.024  0.1392 -0.6750  0.5175
 5625TIP3    H238367   3.670   5.320  12.914  0.6875  1.2414 -1.1231
 5626TIP3   OH238368   3.256   0.022  10.878  0.7325  0.2462 -0.3430
 5626TIP3    H138369   3.322   0.049  10.814  1.6000 -0.4990  0.2294
 5626TIP3    H238370   3.176   0.011  10.826  1.3620 -0.0829 -1.2545
 5627TIP3   OH238371   4.922   2.620  14.942  0.3347  0.0642  0.1441
 5627TIP3    H138372   5.002   2.665  14.967  0.6824 -0.2185 -0.4384
 5627TIP3    H238373   4.952   2.537  14.905 -0.0787  0.9886 -2.3781
 5628TIP3   OH238374   6.157   0.829   1.725  0.2992  0.7224  0.5235
 5628TIP3    H138375   6.246   0.801   1.747  0.1057  1.0162  1.6878
 5628TIP3    H238376   6.101   0.773   1.778 -0.1822  1.2221  0.5430
 5629TIP3   OH238377   1.527   1.943  15.886 -0.0263  0.7975 -0.4113
 5629TIP3    H138378   1.439   1.976  15.870  0.2459  1.1957 -1.1193
 5629TIP3    H238379   1.552   1.901  15.803 -0.4877 -1.4593  0.5528
 5630TIP3   OH238380   1.700   0.747  17.286  0.4784 -0.2975  0.6000
 5630TIP3    H138381   1.738   0.693  17.216 -3.0877 -0.0330 -1.6284
 5630TIP3    H238382   1.659   0.684  17.345  0.4963 -0.2993  0.6107
 5631TIP3   OH238383   4.252   4.201   2.882  0.2903  0.5827 -0.0001
 5631TIP3    H138384   4.188   4.223   2.815 -0.5665  0.0636  0.6375
 5631TIP3    H238385   4.254   4.105   2.883 -1.6247  0.5354  2.5021
 5632TIP3   OH238386   4.927   4.623   2.950  0.2466  0.6957  0.0902
 5632TIP3    H138387   4.912   4.699   2.895 -0.3917 -0.0600 -0.8098
 5632TIP3    H238388   4.844   4.609   2.995 -0.4757 -0.9291 -1.6427
 5633TIP3   OH238389   1.929   6.718   6.148 -0.6637 -0.4097 -0.1531
 5633TIP3    H138390   1.982   6.789   6.112  0.3473 -0.6227  0.8860
 5633TIP3    H238391   1.923   6.739   6.242  0.6302 -2.3158  0.3777
 5634TIP3   OH238392   0.521   0.870   3.269 -0.3991  0.2210  0.6794
 5634TIP3    H138393   0.451   0.852   3.332 -0.1599  0.7019  1.0795
 5634TIP3    H238394   0.589   0.914   3.320 -0.2833  0.7798  0.0395
 5635TIP3   OH238395   0.788   4.849   1.586 -0.0857  0.1271  0.2135
 5635TIP3    H138396   0.784   4.909   1.661  1.7272 -0.1998  0.5934
 5635TIP3    H238397   0.748   4.898   1.514  0.2012  1.2995  0.8397
 5636TIP3   OH238398   0.442   1.478   4.813  0.0817 -0.5024 -0.5185
 5636TIP3    H138399   0.367   1.528   4.845 -0.4468 -3.3588  2.9867
 5636TIP3    H238400   0.408   1.427   4.739 -0.5377  0.6347 -1.0392
 5637TIP3   OH238401   1.566   2.362   5.373  0.2014 -0.4017  0.5129
 5637TIP3    H138402   1.547   2.273   5.404  1.0443 -0.4083  1.0410
 5637TIP3    H238403   1.659   2.374   5.392 -0.0298  0.7876  0.9219
 5638TIP3   OH238404   3.764   4.299  12.966 -0.2593 -0.3446  0.6854
 5638TIP3    H138405   3.684   4.344  12.939  1.4529  1.5546 -1.4849
 5638TIP3    H238406   3.793   4.346  13.044  0.5245  1.2086 -0.5067
 5639TIP3   OH238407   6.403   4.638   2.495 -0.1050 -0.2667 -0.0897
 5639TIP3    H138408   6.485   4.615   2.539 -0.4946  2.0481  1.9757
 5639TIP3    H238409   6.343   4.657   2.567 -1.7378  0.4365 -1.6204
 5640TIP3   OH238410   1.333   6.303  12.999  0.2982 -0.1488  1.1673
 5640TIP3    H138411   1.350   6.295  13.093  0.5947  0.0333  1.1291
 5640TIP3    H238412   1.400   6.250  12.957  0.9938  0.8493  1.0049
 5641TIP3   OH238413   4.951   4.023   3.332 -0.3125  0.0742 -0.6432
 5641TIP3    H138414   5.034   3.976   3.340  0.0385  0.5061 -1.6271
 5641TIP3    H238415   4.950   4.083   3.407 -0.6024 -1.2465  0.4167
 5642TIP3   OH238416   0.191   6.043   3.142  0.3466 -0.1082 -0.0867
 5642TIP3    H138417   0.116   6.026   3.199 -1.0261  1.6309 -1.3012
 5642TIP3    H238418   0.173   5.995   3.062  0.5590  0.2545 -0.3569
 5643TIP3   OH238419   6.189   5.608   5.866 -0.0911 -0.0642  0.1783
 5643TIP3    H138420   6.272   5.630   5.909 -0.8446 -0.0822  1.6777
 5643TIP3    H238421   6.186   5.665   5.790  0.0557  1.9282  1.6156
 5644TIP3   OH238422   2.004   3.773  12.504 -0.6519 -0.0952 -0.7057
 5644TIP3    H138423   2.046   3.858  12.520 -0.6167 -0.2225 -0.0813
 5644TIP3    H238424   2.070   3.722  12.457 -0.7731  0.3131 -1.3224
 5645TIP3   OH238425   5.003   6.133  14.862 -0.4675  0.3203  0.3238
 5645TIP3    H138426   4.935   6.199  14.846 -1.3294 -0.4663  0.7199
 5645TIP3    H238427   5.079   6.166  14.814 -1.1296  1.2023 -0.1433
 5646TIP3   OH238428   5.080   5.703   2.440  0.2571  0.1658 -0.3875
 5646TIP3    H138429   5.133   5.761   2.386 -1.2362  2.3094  0.3961
 5646TIP3    H238430   5.114   5.714   2.529 -3.0191  3.5434  0.5836
 5647TIP3   OH238431   2.177   2.641  15.542 -0.3066 -0.3288 -0.9586
 5647TIP3    H138432   2.135   2.715  15.586  3.0272  0.4598  1.0747
 5647TIP3    H238433   2.164   2.567  15.601 -0.5222 -0.5332 -1.2618
 5648TIP3   OH238434   4.861   6.309  15.361 -0.0585 -0.2380  0.1597
 5648TIP3    H138435   4.930   6.373  15.380 -0.2557  0.3835 -1.1795
 5648TIP3    H238436   4.794   6.359  15.314  0.4689 -1.7385 -2.2549
 5649TIP3   OH238437   5.168   5.859   1.955 -0.1039  0.1955  0.4463
 5649TIP3    H138438   5.177   5.773   1.995  1.8930  0.7132  1.1679
 5649TIP3    H238439   5.074   5.867   1.935 -0.4236 -1.8049  1.0873
 5650TIP3   OH238440   6.676   1.401  14.366 -0.4100 -0.0653 -0.2154
 5650TIP3    H138441   6.742   1.344  14.325 -1.4184 -1.5384  0.1690
 5650TIP3    H238442   6.725   1.479  14.392  0.8145 -0.3384 -1.6319
 5651TIP3   OH238443   2.405   6.390   0.487  1.0817 -0.1951 -0.1206
 5651TIP3    H138444   2.467   6.358   0.553  0.7453 -0.6029 -0.0025
 5651TIP3    H238445   2.334   6.429   0.538  0.3078 -1.4639 -0.2200
 5652TIP3   OH238446   2.494   2.146   4.540 -0.0709  0.2312 -0.1705
 5652TIP3    H138447   2.491   2.224   4.595  2.8320  0.5436 -0.3697
 5652TIP3    H238448   2.483   2.178   4.451  0.0112  0.2794 -0.1631
 5653TIP3   OH238449   3.324   1.184  14.253 -0.0709  0.1191  0.7157
 5653TIP3    H138450   3.302   1.267  14.211  0.7628 -0.6401 -1.2564
 5653TIP3    H238451   3.239   1.140  14.264 -0.3082  0.3763 -0.0541
 5654TIP3   OH238452   3.663   4.115   3.459 -0.0298 -0.2729  0.4484
 5654TIP3    H138453   3.617   4.035   3.485 -0.7749 -0.3480 -1.0333
 5654TIP3    H238454   3.625   4.137   3.374 -0.3078  2.0461  1.1527
 5655TIP3   OH238455   4.056   2.851   6.178 -0.5345 -0.0492  0.0843
 5655TIP3    H138456   4.006   2.890   6.249 -2.5541  0.2916 -1.4806
 5655TIP3    H238457   4.129   2.806   6.222 -0.5686  1.8515  2.1996
 5656TIP3   OH238458   5.296   1.592   5.981  0.1878  0.0981  0.5783
 5656TIP3    H138459   5.233   1.651   5.939 -0.0972  0.1672  1.0919
 5656TIP3    H238460   5.281   1.605   6.075  0.8791  0.0119  0.6975
 5657TIP3   OH238461   4.363   1.709  11.489 -0.3296  0.1167 -0.1328
 5657TIP3    H138462   4.438   1.650  11.489 -1.3412 -1.1989 -0.3453
 5657TIP3    H238463   4.363   1.748  11.577 -0.1064 -0.7859  0.2689
 5658TIP3   OH238464   2.568   5.507   0.098 -0.1888  0.2761 -0.4900
 5658TIP3    H138465   2.486   5.488   0.052 -0.2806  0.4046 -0.3821
 5658TIP3    H238466   2.593   5.594   0.067 -1.1694  1.1249  0.9966
 5659TIP3   OH238467   5.067   0.548  12.360  0.1815  1.0861  0.6110
 5659TIP3    H138468   4.984   0.567  12.404  0.6070  1.1564  1.4014
 5659TIP3    H238469   5.043   0.532  12.269 -0.7874  0.3074  0.9970
 5660TIP3   OH238470   0.893   3.469   1.319 -0.2855  0.3812 -0.7825
 5660TIP3    H138471   0.956   3.414   1.364 -2.3582 -0.9283  0.5955
 5660TIP3    H238472   0.945   3.539   1.279  1.8490  0.1124  1.4972
 5661TIP3   OH238473   3.612   2.496  16.518 -0.0758 -0.5119 -0.0693
 5661TIP3    H138474   3.539   2.543  16.560  1.1648  1.1065  0.3407
 5661TIP3    H238475   3.666   2.466  16.591  0.9169  0.3770 -0.4318
 5662TIP3   OH238476   4.601   4.965   0.749 -0.3433 -0.0082 -0.0091
 5662TIP3    H138477   4.586   4.890   0.691  0.3941  0.8253 -1.3063
 5662TIP3    H238478   4.553   4.943   0.829 -0.6309 -1.5906 -0.5914
 5663TIP3   OH238479   1.921   1.977  16.692  0.8101 -0.2945  0.5580
 5663TIP3    H138480   1.972   1.908  16.735  1.0188 -0.2123  0.4430
 5663TIP3    H238481   1.850   1.931  16.649 -0.1245 -0.2703  2.0251
 5664TIP3   OH238482   2.666   1.442   5.709  0.2980  0.1425 -0.0144
 5664TIP3    H138483   2.599   1.405   5.767  1.6029  2.5324  3.1742
 5664TIP3    H238484   2.651   1.536   5.713  0.9041  0.4286 -3.0977
 5665TIP3   OH238485   1.762   3.880  16.796  0.5761  0.2125  0.3165
 5665TIP3    H138486   1.855   3.858  16.800  0.9086  1.6496  0.9312
 5665TIP3    H238487   1.718   3.811  16.845  1.3495 -0.3436  0.2296
 5666TIP3   OH238488   6.356   5.479   2.799  0.4025 -0.3015  0.5743
 5666TIP3    H138489   6.276   5.433   2.774 -0.3491  1.5834 -0.6173
 5666TIP3    H238490   6.413   5.471   2.722 -0.0656  1.4338  0.0208
 5667TIP3   OH238491   1.258   5.109   1.782  0.7904  0.0243 -0.9472
 5667TIP3    H138492   1.188   5.118   1.717 -1.3450  0.4791  1.3348
 5667TIP3    H238493   1.304   5.193   1.780 -0.4841  0.7500 -0.5617
 5668TIP3   OH238494   6.357   6.240  13.856  0.3340  0.0093  0.3102
 5668TIP3    H138495   6.304   6.266  13.781  0.4856 -0.8250 -0.1029
 5668TIP3    H238496   6.310   6.272  13.932  0.0484  0.6451 -0.1321
 5669TIP3   OH238497   5.067   6.699   1.775 -0.7484  0.8901  0.2348
 5669TIP3    H138498   5.104   6.765   1.717  1.7326 -0.4110  0.2982
 5669TIP3    H238499   5.117   6.619   1.757 -1.6876 -0.2122  2.2947
 5670TIP3   OH238500   4.556   1.659  17.106 -1.1462  0.3485 -0.2761
 5670TIP3    H138501   4.580   1.596  17.038 -2.0956  1.1002 -1.3201
 5670TIP3    H238502   4.465   1.682  17.086 -1.1349  1.2571  0.7105
 5671TIP3   OH238503   0.753   5.007   0.892  0.3914 -0.4553 -0.5255
 5671TIP3    H138504   0.721   4.969   0.810  0.8183 -2.1120  0.0689
 5671TIP3    H238505   0.812   4.941   0.928 -0.0856  0.0932  1.3131
 5672TIP3   OH238506   2.750   5.214   4.276  0.1818 -0.6254 -0.1271
 5672TIP3    H138507   2.842   5.233   4.256 -0.1308 -0.7883 -1.7224
 5672TIP3    H238508   2.707   5.207   4.191 -1.7415  1.4849  0.6143
 5673TIP3   OH238509   4.516   5.049   4.031 -0.5336 -0.2170 -0.1932
 5673TIP3    H138510   4.436   4.997   4.032 -1.3618  1.0433  2.4257
 5673TIP3    H238511   4.586   4.988   4.052 -1.1785 -0.7572  0.3660
 5674TIP3   OH238512   5.931   0.946   2.913  0.0585  0.2806  0.1558
 5674TIP3    H138513   5.988   0.923   2.987 -0.0108  0.3000  0.2157
 5674TIP3    H238514   5.981   1.010   2.863  0.4601 -0.3788 -0.2853
 5675TIP3   OH238515   4.568   6.231   5.866 -1.0365  0.0049 -0.2935
 5675TIP3    H138516   4.561   6.169   5.794 -0.5150 -0.7487  0.2865
 5675TIP3    H238517   4.478   6.256   5.886 -1.2445 -0.4949 -0.5979
 5676TIP3   OH238518   0.469   3.295  13.436  0.1010  0.1154  0.2412
 5676TIP3    H138519   0.500   3.207  13.413 -1.3139 -0.0085 -1.2488
 5676TIP3    H238520   0.451   3.337  13.352 -0.2462  1.4741  0.9767
 5677TIP3   OH238521   3.206   4.601   3.546 -0.2355 -0.0948 -0.1935
 5677TIP3    H138522   3.290   4.576   3.585 -1.2914  0.1699  2.3022
 5677TIP3    H238523   3.203   4.697   3.555 -2.2000 -0.3544  2.7739
 5678TIP3   OH238524   5.978   1.416  15.092 -0.0284 -0.2535  0.3103
 5678TIP3    H138525   6.013   1.456  15.172 -0.6113 -0.7172  0.8019
 5678TIP3    H238526   5.887   1.447  15.087 -0.1028 -0.5145  0.0186
 5679TIP3   OH238527   4.207   2.663  17.100 -0.3434  0.2115 -0.0453
 5679TIP3    H138528   4.113   2.645  17.106 -0.8761  2.0875 -2.0121
 5679TIP3    H238529   4.215   2.756  17.120  1.0875  0.0904 -0.0188
 5680TIP3   OH238530   2.919   5.511  15.637  0.8943 -0.6245  0.1066
 5680TIP3    H138531   2.932   5.574  15.566  0.0068  0.2400  0.6910
 5680TIP3    H238532   2.992   5.450  15.629  0.6472 -0.7018 -1.7144
 5681TIP3   OH238533   1.659   1.011   5.036 -0.0618  0.7918 -0.3041
 5681TIP3    H138534   1.642   0.944   4.971  0.9111 -0.1393  0.3764
 5681TIP3    H238535   1.695   1.085   4.986 -1.3870  0.9117 -1.0828
 5682TIP3   OH238536   0.428   3.232  11.963 -0.5105  0.1719 -0.2997
 5682TIP3    H138537   0.380   3.151  11.980  0.5928 -0.5411 -0.5017
 5682TIP3    H238538   0.435   3.274  12.049  2.6322 -2.0643  0.6531
 5683TIP3   OH238539   6.242   5.489   0.444  0.5514 -0.1384  0.2835
 5683TIP3    H138540   6.191   5.484   0.525  0.7028 -0.1029  0.3801
 5683TIP3    H238541   6.232   5.579   0.415  1.7288  0.2443  1.0557
 5684TIP3   OH238542   2.594   4.058  15.070 -0.4876 -0.5963 -0.4312
 5684TIP3    H138543   2.616   3.974  15.111 -1.0407  0.1845  1.5108
 5684TIP3    H238544   2.676   4.109  15.074 -0.9088 -0.0162  0.9850
 5685TIP3   OH238545   1.572   1.403  14.633 -0.3377  0.1976  0.2471
 5685TIP3    H138546   1.552   1.316  14.600  0.4754  0.3633 -0.6853
 5685TIP3    H238547   1.498   1.457  14.605 -1.3458 -0.3900  1.6982
 5686TIP3   OH238548   5.369   2.643   5.652 -0.1208 -0.0668 -0.1139
 5686TIP3    H138549   5.356   2.727   5.695  0.2007 -0.3967  0.6464
 5686TIP3    H238550   5.441   2.603   5.700 -0.7738 -1.1033  0.0111
 5687TIP3   OH238551   1.084   5.311  16.177 -0.3365  0.5369 -0.8130
 5687TIP3    H138552   1.141   5.252  16.227 -0.5178  0.1608 -1.0451
 5687TIP3    H238553   1.137   5.335  16.100  0.7913  2.8723  0.6308
 5688TIP3   OH238554   0.778   4.058  11.626  0.1192 -0.5651 -0.2410
 5688TIP3    H138555   0.836   3.982  11.622  1.1898  0.2373 -0.1058
 5688TIP3    H238556   0.828   4.123  11.675 -0.3758  0.5901 -1.2635
 5689TIP3   OH238557   1.335   3.797  11.464 -0.3178 -0.1470 -0.2669
 5689TIP3    H138558   1.421   3.834  11.447  0.6743 -1.8657  0.9195
 5689TIP3    H238559   1.284   3.870  11.499  0.6720  0.8584 -0.8919
 5690TIP3   OH238560   6.071   3.531  16.239 -0.3003  0.2190  0.6882
 5690TIP3    H138561   6.020   3.514  16.318  2.0849 -2.0535  1.8345
 5690TIP3    H238562   6.122   3.610  16.260  0.7036 -0.6652  1.6770
 5691TIP3   OH238563   2.280   4.318  10.548  0.2144  0.5763  0.1470
 5691TIP3    H138564   2.265   4.225  10.566 -2.3743  0.7367 -0.9304
 5691TIP3    H238565   2.359   4.321  10.494  0.1589 -1.0199 -0.0260
 5692TIP3   OH238566   1.549   4.384   6.484 -0.3938 -0.0498 -0.3988
 5692TIP3    H138567   1.511   4.469   6.507  0.1069 -0.5467  2.5377
 5692TIP3    H238568   1.581   4.350   6.567 -0.5481 -3.1160 -1.5486
 5693TIP3   OH238569   2.801   3.774   0.032  0.2319 -0.2750 -0.3989
 5693TIP3    H138570   2.742   3.711  -0.009  0.0159 -0.5011  0.2526
 5693TIP3    H238571   2.743   3.840   0.070  0.4337 -0.0111 -0.5484
 5694TIP3   OH238572   6.499   0.319  15.169  0.2353  0.2174 -0.1260
 5694TIP3    H138573   6.523   0.228  15.181 -0.1533 -0.0701 -1.4313
 5694TIP3    H238574   6.578   0.360  15.133  0.2866  0.3188  0.0978
 5695TIP3   OH238575   3.183   1.620   0.836 -0.5643 -0.4270 -0.0734
 5695TIP3    H138576   3.277   1.626   0.849 -0.6461 -0.5453  0.5753
 5695TIP3    H238577   3.164   1.680   0.763 -0.1492  0.4381  0.5360
 5696TIP3   OH238578   1.445   4.145   1.233 -0.2312  0.4232  0.2562
 5696TIP3    H138579   1.383   4.131   1.305  0.0029  0.1253  0.4067
 5696TIP3    H238580   1.499   4.065   1.233 -1.4230 -0.4038 -1.4466
 5697TIP3   OH238581   2.773   3.298  16.380  0.1507  0.4304  0.7723
 5697TIP3    H138582   2.835   3.229  16.404  0.6993  0.6448 -0.0248
 5697TIP3    H238583   2.824   3.359  16.327 -1.0491  0.0065 -0.8849
 5698TIP3   OH238584   1.415   0.448   0.426 -0.4194 -0.0697 -0.0698
 5698TIP3    H138585   1.363   0.422   0.502 -2.1907  1.2121 -0.8124
 5698TIP3    H238586   1.437   0.540   0.442  3.8241 -1.2213  1.4307
 5699TIP3   OH238587   0.281   0.819  12.903 -0.0278 -0.1259  0.5925
 5699TIP3    H138588   0.322   0.891  12.855 -2.6144  0.7533 -0.3726
 5699TIP3    H238589   0.345   0.795  12.970  1.4694  2.1122  0.0127
 5700TIP3   OH238590   0.941   1.447   5.099 -0.0711  0.0560 -0.1266
 5700TIP3    H138591   0.880   1.516   5.125 -0.4887  0.2610 -1.6119
 5700TIP3    H238592   1.015   1.456   5.160 -0.6487  1.0481  0.4401
 5701TIP3   OH238593   4.058   4.036  15.719 -0.1564  0.3935 -0.0826
 5701TIP3    H138594   4.065   3.969  15.786  0.8474  0.6158  0.0439
 5701TIP3    H238595   4.144   4.036  15.676 -0.5458  0.7560 -0.8781
 5702TIP3   OH238596   5.220   4.576   1.465 -0.2419  0.1988  0.1636
 5702TIP3    H138597   5.231   4.528   1.547 -2.1011  1.2217  1.0311
 5702TIP3    H238598   5.146   4.634   1.480 -0.4090  0.6448 -2.1422
 5703TIP3   OH238599   0.148   3.941  15.139 -0.5163  0.0349 -0.8268
 5703TIP3    H138600   0.169   3.850  15.120 -0.5537  0.2404 -1.8873
 5703TIP3    H238601   0.170   3.988  15.058 -1.9482  0.7296 -0.8183
 5704TIP3   OH238602   1.210   6.294  11.508 -0.3848  0.7531  0.4520
 5704TIP3    H138603   1.189   6.293  11.415 -1.2012 -0.4690  0.6377
 5704TIP3    H238604   1.275   6.364  11.517  0.6457  0.0595 -1.2488
 5705TIP3   OH238605   6.449   6.537   1.182 -0.8060  0.0783  0.5615
 5705TIP3    H138606   6.467   6.622   1.222 -1.4837  0.7057 -0.4425
 5705TIP3    H238607   6.535   6.501   1.161 -0.3227 -1.1600  4.3460
 5706TIP3   OH238608   0.860   1.256  15.674 -0.1249  0.1225 -0.2883
 5706TIP3    H138609   0.857   1.219  15.762  1.3393 -0.5595 -0.5072
 5706TIP3    H238610   0.834   1.347  15.685 -0.7786 -0.1738  0.7180
 5707TIP3   OH238611   5.192   3.073  11.232  0.7566 -0.4494  0.3530
 5707TIP3    H138612   5.106   3.112  11.220  0.8627 -0.4521 -0.4340
 5707TIP3    H238613   5.215   3.093  11.323 -0.7919 -1.8743  1.0900
 5708TIP3   OH238614   1.089   6.394  12.980 -0.7459 -0.3999 -0.2409
 5708TIP3    H138615   1.112   6.487  12.975  1.3372 -0.8711  0.0861
 5708TIP3    H238616   1.173   6.348  12.977 -1.7420 -2.2808 -0.3408
 5709TIP3   OH238617   2.951   0.592   1.072  0.2992 -0.0467  0.3454
 5709TIP3    H138618   2.952   0.687   1.069 -1.1192 -0.0412 -0.0522
 5709TIP3    H238619   2.973   0.570   1.163  1.6480  0.6210  0.1979
 5710TIP3   OH238620   6.395   4.553   5.080  0.3790  0.1185  0.1394
 5710TIP3    H138621   6.457   4.620   5.053 -0.3742  0.1594 -1.6045
 5710TIP3    H238622   6.425   4.473   5.036 -1.5132  0.4276 -1.8369
 5711TIP3   OH238623   1.396   4.221   2.277 -1.0092  0.2799 -0.2302
 5711TIP3    H138624   1.334   4.283   2.238  1.0267  1.3124 -1.8803
 5711TIP3    H238625   1.395   4.242   2.370 -2.0329  1.2735 -0.4481
 5712TIP3   OH238626   4.532   5.215  15.286 -0.5374 -0.2495  0.6998
 5712TIP3    H138627   4.529   5.121  15.302  2.9023 -0.8594 -1.7177
 5712TIP3    H238628   4.571   5.251  15.366 -0.7898 -1.0138  1.1724
 5713TIP3   OH238629   1.562   4.255   1.637 -0.6510  0.3030  0.6382
 5713TIP3    H138630   1.518   4.309   1.570 -2.2557 -1.7286  0.0186
 5713TIP3    H238631   1.622   4.199   1.587  1.0783  1.5084  1.2937
 5714TIP3   OH238632   5.108   1.350   2.548 -0.5355 -0.2230  0.1761
 5714TIP3    H138633   5.091   1.269   2.594 -0.1515  0.3000  1.2496
 5714TIP3    H238634   5.064   1.340   2.464  0.5347 -2.0378 -0.1982
 5715TIP3   OH238635   0.528   2.493   2.985 -0.2898 -0.0655  0.1931
 5715TIP3    H138636   0.455   2.530   2.935 -1.8995 -0.3823  2.2172
 5715TIP3    H238637   0.492   2.414   3.026  1.3158 -0.4642  0.8874
 5716TIP3   OH238638   2.563   4.125  12.854 -0.1570  0.1081  0.2336
 5716TIP3    H138639   2.526   4.173  12.781 -1.5394 -0.9086  0.2470
 5716TIP3    H238640   2.530   4.036  12.843 -0.0476 -0.1460  1.8550
 5717TIP3   OH238641   2.144   0.757   0.960 -0.3357 -0.3427 -0.0981
 5717TIP3    H138642   2.077   0.814   0.923 -0.5853 -0.4963  0.1197
 5717TIP3    H238643   2.222   0.812   0.966 -0.9350  0.3554  1.3671
 5718TIP3   OH238644   4.623   1.135  16.673  0.3951 -0.3990 -0.3989
 5718TIP3    H138645   4.637   1.120  16.580  0.3601  1.8876 -0.7979
 5718TIP3    H238646   4.710   1.129  16.712  0.6024 -0.0043 -0.7970
 5719TIP3   OH238647   3.558   5.904  12.143  0.1952 -0.3066  0.6737
 5719TIP3    H138648   3.628   5.933  12.202  0.9232  1.6830 -1.1266
 5719TIP3    H238649   3.602   5.849  12.078 -0.3510 -1.1518  1.0017
 5720TIP3   OH238650   2.197   0.231  14.574 -0.2334  0.1979  0.6546
 5720TIP3    H138651   2.283   0.216  14.534 -0.1915  0.7509  0.5270
 5720TIP3    H238652   2.135   0.215  14.503 -0.2460 -0.3781  0.7958
 5721TIP3   OH238653   2.523   3.696   2.827  0.2634  0.4428  0.2456
 5721TIP3    H138654   2.558   3.620   2.872  0.0866 -0.1774 -0.6587
 5721TIP3    H238655   2.483   3.661   2.748 -1.6993  1.2144  0.8524
 5722TIP3   OH238656   2.034   1.790   1.410 -0.3602 -0.1023  0.0071
 5722TIP3    H138657   2.038   1.806   1.316 -0.1029 -0.4196 -0.0346
 5722TIP3    H238658   1.959   1.843   1.440  2.2010  3.5120  0.3430
 5723TIP3   OH238659   0.898   5.395   5.537 -0.1621 -0.0109 -0.2221
 5723TIP3    H138660   0.953   5.451   5.591  0.0431 -0.8076  0.4048
 5723TIP3    H238661   0.959   5.349   5.479 -0.0932 -1.1886  0.7409
 5724TIP3   OH238662   3.804   3.209  14.978 -0.2024 -0.3508  0.2922
 5724TIP3    H138663   3.763   3.294  14.967  0.4776  0.0080  0.5253
 5724TIP3    H238664   3.732   3.146  14.972 -0.6017  0.1935 -0.5733
 5725TIP3   OH238665   1.082   0.998  14.549 -0.0964  0.5055 -0.2815
 5725TIP3    H138666   1.128   1.056  14.609  0.9806 -2.2980  1.6640
 5725TIP3    H238667   1.001   0.974  14.596 -0.6569  0.6095 -1.1766
 5726TIP3   OH238668   6.608   2.401  15.165  0.0935  0.0158 -0.4461
 5726TIP3    H138669   6.602   2.453  15.245  1.1057  0.9521 -0.9547
 5726TIP3    H238670   6.546   2.330  15.177  1.9055 -1.2120  2.1845
 5727TIP3   OH238671   4.849   0.323  15.571 -0.2297  0.0978 -0.7561
 5727TIP3    H138672   4.941   0.297  15.569 -0.8130 -2.1884  0.1110
 5727TIP3    H238673   4.834   0.367  15.487  1.2975 -0.7838 -1.4984
 5728TIP3   OH238674   4.808   4.505  13.928  0.1544 -0.2664  1.2721
 5728TIP3    H138675   4.825   4.420  13.969 -0.4433 -0.5917  0.8563
 5728TIP3    H238676   4.893   4.548  13.926  0.4817 -0.8970  1.3878
 5729TIP3   OH238677   6.348   0.589   0.635 -0.1767 -0.4502 -0.1547
 5729TIP3    H138678   6.325   0.669   0.683  0.7896 -0.5359  0.4517
 5729TIP3    H238679   6.269   0.568   0.585 -1.0287 -0.0915  1.0155
 5730TIP3   OH238680   5.330   2.264   4.078  0.2389  0.2101  0.0580
 5730TIP3    H138681   5.372   2.319   4.012 -2.1044 -0.7088 -2.2866
 5730TIP3    H238682   5.358   2.175   4.056  0.3604 -0.0081  1.0448
 5731TIP3   OH238683   6.051   5.581  15.729 -0.0974  0.1875 -0.2851
 5731TIP3    H138684   6.047   5.665  15.773  0.0481  0.6694 -1.1692
 5731TIP3    H238685   6.067   5.517  15.799 -0.7653  0.8199  0.4511
 5732TIP3   OH238686   2.543   5.444   5.795  0.2442  0.3462 -0.5690
 5732TIP3    H138687   2.597   5.378   5.838 -0.7580 -0.2866 -0.2672
 5732TIP3    H238688   2.596   5.524   5.797  0.2054  0.3286  1.8526
 5733TIP3   OH238689   3.106   5.400   3.052 -0.0024 -0.1354  0.2437
 5733TIP3    H138690   3.151   5.482   3.032 -0.2772  0.2315  1.0842
 5733TIP3    H238691   3.142   5.336   2.990 -1.5770  1.1748 -2.0969
 5734TIP3   OH238692   3.130   0.600   3.403 -0.3540  0.0315 -0.2267
 5734TIP3    H138693   3.204   0.620   3.460 -0.9375  1.3314  0.0896
 5734TIP3    H238694   3.143   0.509   3.378  0.2130 -0.3754  1.5176
 5735TIP3   OH238695   0.129   6.495  15.795 -0.2101 -0.7577  0.1607
 5735TIP3    H138696   0.104   6.406  15.773 -0.5503 -0.6770  0.2194
 5735TIP3    H238697   0.180   6.488  15.875 -1.8944 -0.6983  1.2630
 5736TIP3   OH238698   0.806   5.677   0.587 -0.2817  0.2590 -0.0175
 5736TIP3    H138699   0.762   5.747   0.540 -0.7897  0.4910  0.7979
 5736TIP3    H238700   0.773   5.596   0.547 -0.0334  0.4730 -0.6558
 5737TIP3   OH238701   1.668   5.943  13.465  0.3734 -0.0315 -0.5206
 5737TIP3    H138702   1.654   5.882  13.393 -0.6186  1.9614 -2.0672
 5737TIP3    H238703   1.761   5.965  13.461 -0.1372  1.9235 -2.7648
 5738TIP3   OH238704   4.887   3.252  14.633  0.0352 -0.1264  0.1077
 5738TIP3    H138705   4.914   3.174  14.682  2.6206 -0.1442 -1.2532
 5738TIP3    H238706   4.968   3.285  14.594 -1.2071  2.6141 -0.2682
 5739TIP3   OH238707   6.219   2.844   0.756 -0.1475  0.2557 -0.4680
 5739TIP3    H138708   6.214   2.902   0.832 -2.0448 -0.1286 -0.2578
 5739TIP3    H238709   6.312   2.837   0.736  0.1866  2.2794  0.3303
 5740TIP3   OH238710   0.331   0.364  14.555 -0.2638  0.2489  0.8686
 5740TIP3    H138711   0.375   0.392  14.635  2.2344  2.4583 -1.1561
 5740TIP3    H238712   0.390   0.300  14.516 -1.5626 -0.9735  0.8736
 5741TIP3   OH238713   0.224   6.620   5.155  0.1029  0.7324 -0.3159
 5741TIP3    H138714   0.149   6.654   5.205  0.5229  0.7960  0.2722
 5741TIP3    H238715   0.233   6.681   5.081  1.0774  2.1245  0.9229
 5742TIP3   OH238716   5.520   3.318   2.078 -0.1147 -0.1725  0.6547
 5742TIP3    H138717   5.597   3.368   2.050 -0.0384 -0.8507 -0.3425
 5742TIP3    H238718   5.461   3.384   2.114  0.4598  0.4985  0.3821
 5743TIP3   OH238719   0.417   5.843  12.695 -0.0598  0.2428 -0.5108
 5743TIP3    H138720   0.396   5.930  12.661 -0.6413  0.2860 -0.0459
 5743TIP3    H238721   0.372   5.838  12.779  0.2914 -0.3615 -0.3535
 5744TIP3   OH238722   0.091   6.201   1.066 -0.3361 -0.2000 -0.5510
 5744TIP3    H138723   0.007   6.205   1.021 -0.0399 -3.7046 -1.5299
 5744TIP3    H238724   0.156   6.220   0.999 -0.1278 -1.8181 -0.8420
 5745TIP3   OH238725   6.660   2.031  16.135  0.3087 -0.2208 -0.2281
 5745TIP3    H138726   6.594   2.056  16.070 -1.9373 -0.1317  2.0045
 5745TIP3    H238727   6.673   2.110  16.187  0.9482 -0.7212  0.3773
 5746TIP3   OH238728   2.564   1.192   4.354  0.2945 -0.1551  0.1906
 5746TIP3    H138729   2.549   1.158   4.442 -1.0848 -1.2879 -0.4551
 5746TIP3    H238730   2.497   1.259   4.342 -0.1636 -0.6963 -0.3431
 5747TIP3   OH238731   4.761   2.838   3.768  0.0583 -0.7918 -0.7463
 5747TIP3    H138732   4.696   2.842   3.838  2.1846 -1.8721  1.4128
 5747TIP3    H238733   4.835   2.792   3.808  1.7350 -0.5219 -3.4241
 5748TIP3   OH238734   3.813   3.706   5.565 -0.7432 -0.0618  0.2507
 5748TIP3    H138735   3.718   3.711   5.559 -0.6474 -0.1554 -1.3482
 5748TIP3    H238736   3.829   3.668   5.652 -2.1289  0.7574  0.8869
 5749TIP3   OH238737   6.572   4.511   4.172  0.0229 -0.0269 -0.7938
 5749TIP3    H138738   6.568   4.572   4.099 -0.2193  2.7419  1.4209
 5749TIP3    H238739   6.485   4.470   4.174 -0.1032  0.1909 -1.8007
 5750TIP3   OH238740   6.340   2.894   3.912 -0.0591  1.0498 -0.3270
 5750TIP3    H138741   6.287   2.898   3.992  1.3664  0.4472  0.6552
 5750TIP3    H238742   6.403   2.825   3.929  0.9406  1.6551 -1.5604
 5751TIP3   OH238743   2.382   0.977   2.153 -0.1354 -0.0870 -0.7123
 5751TIP3    H138744   2.457   0.953   2.208  1.0142 -1.0741 -2.6523
 5751TIP3    H238745   2.376   1.072   2.162 -0.3297 -0.2983  1.5551
 5752TIP3   OH238746   6.042   2.516   2.666 -0.3104 -0.1239  0.0576
 5752TIP3    H138747   5.988   2.586   2.629  1.9390  2.5820  1.7614
 5752TIP3    H238748   6.110   2.502   2.600 -0.6093 -0.5796 -0.1630
 5753TIP3   OH238749   2.844   5.504   4.633 -0.1645 -0.8211 -0.3467
 5753TIP3    H138750   2.796   5.537   4.709  0.3410  0.3883 -0.5441
 5753TIP3    H238751   2.784   5.513   4.560  0.3687  0.7313 -0.6018
 5754TIP3   OH238752   2.628   0.634  10.524  0.1719 -0.2807 -0.0947
 5754TIP3    H138753   2.688   0.566  10.492  1.8053  1.2874 -0.4489
 5754TIP3    H238754   2.602   0.682  10.446 -1.2847 -0.7105  0.1100
 5755TIP3   OH238755   6.243   1.354   4.044  0.0433 -0.0744  0.5685
 5755TIP3    H138756   6.168   1.302   4.017 -0.7506  1.4076 -0.1264
 5755TIP3    H238757   6.296   1.294   4.097 -1.3148 -1.2970  0.5681
 5756TIP3   OH238758   2.129   5.928   5.096 -0.0539  0.4801  0.3524
 5756TIP3    H138759   2.056   5.907   5.037  0.4765  1.4374 -0.6681
 5756TIP3    H238760   2.088   5.967   5.173 -0.7227 -0.2868  0.3843
 5757TIP3   OH238761   2.791   6.408  13.370 -0.1735  0.4202 -0.3453
 5757TIP3    H138762   2.698   6.393  13.388  0.0370  0.1987  0.6104
 5757TIP3    H238763   2.832   6.322  13.378  0.4200  0.8299  1.2584
 5758TIP3   OH238764   1.885   1.595  15.032  0.1618 -0.0843 -0.0645
 5758TIP3    H138765   1.848   1.570  15.116 -0.5963 -0.9775 -0.6456
 5758TIP3    H238766   1.934   1.675  15.049 -0.1926 -0.1300  1.1666
 5759TIP3   OH238767   2.545   2.956  11.632 -0.0150 -0.2512  0.0403
 5759TIP3    H138768   2.467   2.958  11.577  1.6561 -1.2838 -2.4430
 5759TIP3    H238769   2.533   2.878  11.687  0.2988 -1.7031 -1.9215
 5760TIP3   OH238770   0.715   4.819   3.971  0.1718 -0.0222 -0.2620
 5760TIP3    H138771   0.694   4.910   3.955 -1.6334 -0.3696  0.0751
 5760TIP3    H238772   0.663   4.794   4.047  1.7993 -0.9237  0.6052
 5761TIP3   OH238773   3.852   0.920   5.138 -0.4259  0.0491 -0.2402
 5761TIP3    H138774   3.872   0.884   5.224  1.8281  0.5217 -0.5511
 5761TIP3    H238775   3.766   0.961   5.150 -0.4776 -0.5231  1.5834
 5762TIP3   OH238776   1.476   1.366   0.532  0.7963  0.2265 -0.3457
 5762TIP3    H138777   1.546   1.304   0.513  0.5672 -0.2795  0.4247
 5762TIP3    H238778   1.399   1.331   0.487  1.2286  1.2582 -1.9442
 5763TIP3   OH238779   3.285   4.634  12.751  0.1757  0.4759  0.0052
 5763TIP3    H138780   3.353   4.595  12.696  0.2872  1.0351 -0.2573
 5763TIP3    H238781   3.333   4.685  12.816  0.0127  0.7135 -0.0602
 5764TIP3   OH238782   0.674   0.648   4.884 -0.0300 -0.4230  0.1969
 5764TIP3    H138783   0.673   0.577   4.948  1.2716 -0.3137  0.3560
 5764TIP3    H238784   0.584   0.680   4.882 -0.3149 -1.1484  1.1657
 5765TIP3   OH238785   4.711   6.264  14.728  0.2568 -0.8506  0.5816
 5765TIP3    H138786   4.724   6.332  14.661 -1.1821 -1.7075 -0.6077
 5765TIP3    H238787   4.706   6.313  14.810 -1.0938  0.5537 -0.2812
 5766TIP3   OH238788   0.569   0.632  12.406 -0.4698  0.1412 -0.1734
 5766TIP3    H138789   0.569   0.672  12.319  0.7272  2.9405  1.0782
 5766TIP3    H238790   0.661   0.619  12.427 -0.6817  1.0041  1.3602
 5767TIP3   OH238791   3.319   6.026  15.659 -0.2328  0.3914  0.1580
 5767TIP3    H138792   3.350   5.944  15.621 -1.2443  0.1883 -0.2667
 5767TIP3    H238793   3.238   6.002  15.705 -0.2256  1.0466  0.5239
 5768TIP3   OH238794   0.494   4.221   3.380  0.2120 -0.2052  0.1952
 5768TIP3    H138795   0.468   4.286   3.315  1.9291 -0.5756 -0.8996
 5768TIP3    H238796   0.529   4.273   3.452 -2.0970  0.2264  1.0440
 5769TIP3   OH238797   3.105   2.308   5.059  0.1955  0.0638  0.7633
 5769TIP3    H138798   3.086   2.393   5.020 -0.4086  0.5617  2.0971
 5769TIP3    H238799   3.050   2.246   5.010 -0.0842  0.5856  0.4157
 5770TIP3   OH238800   5.799   1.829   6.188  0.2025 -0.4494 -0.5888
 5770TIP3    H138801   5.712   1.795   6.208  0.5176  0.4000  2.4553
 5770TIP3    H238802   5.784   1.920   6.163  0.2549 -0.1724  0.3819
 5771TIP3   OH238803   6.320   1.169   4.812  0.5515 -0.1276  0.2272
 5771TIP3    H138804   6.316   1.251   4.763  0.0078  0.3727  1.1083
 5771TIP3    H238805   6.284   1.190   4.898 -0.6598 -1.5525  0.0943
 5772TIP3   OH238806   6.567   6.637   5.299 -0.4223 -0.3233 -0.8607
 5772TIP3    H138807   6.503   6.693   5.342 -0.0398  0.0293 -0.7519
 5772TIP3    H238808   6.582   6.565   5.361  1.6041  1.1905  0.4982
 5773TIP3   OH238809   4.791   1.585  16.713  0.4781  0.2113 -0.0669
 5773TIP3    H138810   4.722   1.526  16.682 -0.8183  2.3672 -1.4947
 5773TIP3    H238811   4.871   1.533  16.710 -0.1785 -0.7252 -3.7770
 5774TIP3   OH238812   2.820   3.276   2.448  0.1111 -0.1083 -0.1775
 5774TIP3    H138813   2.754   3.345   2.448  1.0290  0.8051  1.2562
 5774TIP3    H238814   2.903   3.323   2.456  0.8615 -1.2959 -0.9717
 5775TIP3   OH238815   0.344   1.678  16.825 -0.3692  0.0956  0.2379
 5775TIP3    H138816   0.290   1.650  16.899 -0.2695  0.7942  0.5859
 5775TIP3    H238817   0.399   1.748  16.861 -1.2867  1.3907 -0.8360
 5776TIP3   OH238818   5.453   5.788  15.339 -0.1074 -0.8698 -0.7452
 5776TIP3    H138819   5.489   5.865  15.294 -1.0210 -0.2069 -0.3360
 5776TIP3    H238820   5.408   5.823  15.415 -0.8691 -1.7847 -0.7716
 5777TIP3   OH238821   6.158   4.367  16.711 -0.5432  0.7302 -0.2542
 5777TIP3    H138822   6.149   4.414  16.793 -1.5255 -0.1774  0.1633
 5777TIP3    H238823   6.253   4.354  16.701 -0.4193  0.8770  0.7141
 5778TIP3   OH238824   3.184   0.496   2.456 -0.8404 -0.0926 -0.3682
 5778TIP3    H138825   3.118   0.494   2.525 -0.2654  2.3054  0.2964
 5778TIP3    H238826   3.245   0.426   2.479 -0.3612  1.0293  1.9099
 5779TIP3   OH238827   6.430   4.915   5.910  0.0715  0.3308  0.3848
 5779TIP3    H138828   6.469   4.937   5.826 -0.9998  1.1907  0.1015
 5779TIP3    H238829   6.372   4.841   5.890 -1.3023  1.4687  0.0614
 5780TIP3   OH238830   3.752   1.840  14.311  0.8853  0.1591  0.3155
 5780TIP3    H138831   3.715   1.926  14.291  2.1123  0.6633  0.1658
 5780TIP3    H238832   3.826   1.858  14.369  1.3614 -0.7625  0.0167
 5781TIP3   OH238833   6.593   0.672  12.897 -0.1744 -0.1464 -0.6788
 5781TIP3    H138834   6.510   0.719  12.910 -1.5343 -2.0291 -2.3786
 5781TIP3    H238835   6.648   0.734  12.849 -0.6620  1.0393  0.2691
 5782TIP3   OH238836   4.521   1.969  15.962 -0.2350  0.5939  0.0454
 5782TIP3    H138837   4.600   1.916  15.973 -0.1681  0.7881  0.5536
 5782TIP3    H238838   4.546   2.038  15.901 -0.2429  0.2021 -0.4020
 5783TIP3   OH238839   0.586   3.010  13.364 -0.3067 -0.0493 -0.0503
 5783TIP3    H138840   0.570   2.972  13.450 -0.0057  1.2433  0.5933
 5783TIP3    H238841   0.681   3.020  13.359 -0.4141  1.1142  0.0319
 5784TIP3   OH238842   0.045   0.787   3.145 -0.0692 -0.5099 -0.5074
 5784TIP3    H138843   0.106   0.859   3.128  0.5435 -1.0039 -0.3989
 5784TIP3    H238844  -0.033   0.809   3.093  0.2839  0.0017 -0.8236
 5785TIP3   OH238845   6.491   4.019   2.587  0.5769  0.3439 -0.4983
 5785TIP3    H138846   6.564   4.073   2.555 -0.7918  2.0573 -0.7841
 5785TIP3    H238847   6.451   4.072   2.656 -0.8194 -0.2925 -0.8180
 5786TIP3   OH238848   0.206   6.447   5.776 -0.2247  0.3118 -0.0493
 5786TIP3    H138849   0.119   6.409   5.761 -0.6189  0.0095  2.7304
 5786TIP3    H238850   0.266   6.377   5.752 -0.7887  0.0357 -0.6854
 5787TIP3   OH238851   1.796   4.829   4.354 -0.4140  0.3170  0.4934
 5787TIP3    H138852   1.840   4.850   4.272  0.1326  0.2698  0.7734
 5787TIP3    H238853   1.779   4.735   4.349  0.9545  0.0246  1.0651
 5788TIP3   OH238854   1.626   4.612  15.559  0.3076  0.0570  0.3437
 5788TIP3    H138855   1.590   4.700  15.547 -0.2411 -0.1568  0.4402
 5788TIP3    H238856   1.610   4.592  15.652 -1.4336 -0.9805 -0.1569
 5789TIP3   OH238857   2.270   2.645  12.075  0.5860  0.3315  0.0679
 5789TIP3    H138858   2.241   2.586  12.144 -1.6022  2.3545  0.9320
 5789TIP3    H238859   2.236   2.607  11.995  2.8648 -1.8612  0.0932
 5790TIP3   OH238860   6.309   4.027   0.656 -0.2093  0.1353  0.5962
 5790TIP3    H138861   6.316   3.994   0.746 -2.9292 -1.9454  0.1372
 5790TIP3    H238862   6.295   4.121   0.666 -0.9621 -0.1397  2.4161
 5791TIP3   OH238863   5.802   4.183  14.812  0.0517 -0.1161 -0.2061
 5791TIP3    H138864   5.891   4.173  14.845  0.3013 -0.5909 -1.0078
 5791TIP3    H238865   5.761   4.098  14.827  0.8572 -1.0700 -3.1156
 5792TIP3   OH238866   6.538   2.246  14.767 -0.2608 -0.6128 -0.7826
 5792TIP3    H138867   6.458   2.260  14.819  0.0519 -1.5270 -0.0496
 5792TIP3    H238868   6.562   2.334  14.738  0.5265  0.1944  2.0963
 5793TIP3   OH238869   2.556   6.418  10.477  0.1013 -0.1802  0.2975
 5793TIP3    H138870   2.476   6.391  10.431 -1.7388  0.2418  3.1388
 5793TIP3    H238871   2.564   6.356  10.549  1.3766  0.8390  1.0428
 5794TIP3   OH238872   2.250   4.040   3.398 -0.2408  0.7864 -0.0157
 5794TIP3    H138873   2.193   3.995   3.460  0.4149 -0.3920 -0.2374
 5794TIP3    H238874   2.197   4.112   3.364 -2.2341 -1.3208 -1.5405
 5795TIP3   OH238875   3.446   3.227  16.894  0.4494  0.0806  0.2510
 5795TIP3    H138876   3.449   3.155  16.832  0.2220  1.1553 -1.0160
 5795TIP3    H238877   3.367   3.211  16.945  0.4891 -0.6525  0.0869
 5796TIP3   OH238878   0.612   5.355   6.181 -0.1400  0.3695  0.1897
 5796TIP3    H138879   0.520   5.336   6.161 -0.1924 -0.3629  1.0931
 5796TIP3    H238880   0.620   5.449   6.167 -0.3061 -0.0070 -2.6696
 5797TIP3   OH238881   5.069   1.256   5.208  0.2240  0.6258  0.4343
 5797TIP3    H138882   5.107   1.241   5.294 -0.3582  0.5305  0.6795
 5797TIP3    H238883   4.983   1.293   5.226 -0.5099 -0.7753 -0.0661
 5798TIP3   OH238884   5.172   3.992   0.791  0.0533  0.0847  0.2071
 5798TIP3    H138885   5.214   4.022   0.711  1.8916 -0.2993  1.0073
 5798TIP3    H238886   5.157   4.072   0.842  2.7331 -0.0699  1.2892
 5799TIP3   OH238887   4.082   4.401   3.054 -0.4897 -0.0294  0.6252
 5799TIP3    H138888   3.987   4.388   3.051 -0.4793 -0.3691  1.5709
 5799TIP3    H238889   4.117   4.312   3.056 -0.0923  0.0755 -1.1387
 5800TIP3   OH238890   3.975   1.897  16.710  0.9875 -0.3561  0.2057
 5800TIP3    H138891   3.932   1.833  16.653  1.0786 -0.3988  0.1822
 5800TIP3    H238892   4.035   1.944  16.652 -0.9566  1.5483 -0.3371
 5801TIP3   OH238893   5.677   0.159   4.651 -0.6305 -0.0026  0.1751
 5801TIP3    H138894   5.756   0.173   4.598 -1.2000 -1.1801 -1.0249
 5801TIP3    H238895   5.606   0.153   4.586 -1.4598 -0.6785  1.1316
 5802TIP3   OH238896   0.798   4.417   4.860 -0.6078  0.0310  0.6094
 5802TIP3    H138897   0.832   4.486   4.916 -0.8497 -0.9321  1.9707
 5802TIP3    H238898   0.780   4.344   4.919  0.7232 -1.6087 -0.9291
 5803TIP3   OH238899   5.280   3.970   3.873 -0.1221  0.0422 -0.4157
 5803TIP3    H138900   5.231   4.028   3.930 -1.5668 -1.5775  0.0454
 5803TIP3    H238901   5.324   4.028   3.811 -1.9344  1.5839 -0.2915
 5804TIP3   OH238902   5.959   4.766  12.728  0.2820 -0.4239  0.3392
 5804TIP3    H138903   6.042   4.813  12.719  0.5433 -0.9495 -0.0108
 5804TIP3    H238904   5.892   4.832  12.710  0.6823 -0.4771 -1.4049
 5805TIP3   OH238905   3.558   0.568  15.084 -0.6127  0.3249 -0.9063
 5805TIP3    H138906   3.643   0.565  15.128 -0.1597 -1.1315 -1.8142
 5805TIP3    H238907   3.546   0.660  15.061 -0.6796  1.0435  1.8633
 5806TIP3   OH238908   0.930   4.666   2.028  0.0437  0.2623  0.3008
 5806TIP3    H138909   0.958   4.577   2.051 -1.3878 -0.0571  0.8609
 5806TIP3    H238910   0.964   4.721   2.098 -0.0831 -0.0078  0.5743
 5807TIP3   OH238911   2.145   5.180  16.270 -0.2570 -0.4221 -0.0781
 5807TIP3    H138912   2.220   5.226  16.230  0.6504 -2.2399 -0.5135
 5807TIP3    H238913   2.071   5.204  16.214  0.1184  0.8149 -0.0778
 5808TIP3   OH238914   4.557   0.602   2.121 -0.0553  0.6247  0.0358
 5808TIP3    H138915   4.612   0.670   2.160  0.7544 -0.0200  0.0378
 5808TIP3    H238916   4.476   0.604   2.172  0.4727  0.6948  0.8708
 5809TIP3   OH238917   1.904   5.470  15.462  0.0162 -0.1142 -0.3589
 5809TIP3    H138918   1.947   5.484  15.378 -0.8445 -0.5042 -0.8721
 5809TIP3    H238919   1.827   5.416  15.441 -0.1742 -0.2573  0.6794
 5810TIP3   OH238920   0.307   3.538  14.847 -0.4469  0.3649 -0.0852
 5810TIP3    H138921   0.282   3.615  14.796  0.5779  1.2947  0.8009
 5810TIP3    H238922   0.302   3.566  14.938 -1.4984 -1.0626  0.3112
 5811TIP3   OH238923   5.153   3.067   3.130 -0.0134 -1.1125  0.5972
 5811TIP3    H138924   5.067   3.110   3.129 -0.0237 -1.1350 -0.4954
 5811TIP3    H238925   5.215   3.139   3.116  0.0483 -1.2654  0.0380
 5812TIP3   OH238926   1.414   5.526   1.632 -0.1954 -0.2132 -0.0328
 5812TIP3    H138927   1.481   5.593   1.621 -1.9871  1.4384 -1.1950
 5812TIP3    H238928   1.333   5.575   1.644 -1.5526 -2.1699 -0.9828
 5813TIP3   OH238929   1.207   5.580   3.569 -0.2472  0.0436  0.2197
 5813TIP3    H138930   1.201   5.582   3.664 -0.5470  1.0936  0.1833
 5813TIP3    H238931   1.122   5.613   3.539 -0.9299 -2.1874 -0.4358
 5814TIP3   OH238932   1.650   2.621  12.265 -0.3232 -0.3116 -0.2609
 5814TIP3    H138933   1.632   2.635  12.172 -0.0824 -0.6084 -0.3539
 5814TIP3    H238934   1.677   2.707  12.298 -0.4389 -0.2003 -0.4589
 5815TIP3   OH238935   1.467   6.295  11.850 -0.4066 -0.0808  0.0613
 5815TIP3    H138936   1.444   6.382  11.816  0.5939  0.7197  1.3947
 5815TIP3    H238937   1.437   6.296  11.941  0.8900 -0.6181  0.5029
 5816TIP3   OH238938   4.332   3.725  16.971  0.2622 -0.2418 -0.8647
 5816TIP3    H138939   4.324   3.640  17.013  0.9953  0.2264  0.2427
 5816TIP3    H238940   4.301   3.711  16.881  0.2875 -1.6382 -0.6581
 5817TIP3   OH238941   3.468   0.494  12.527 -0.1287  0.5373 -0.0331
 5817TIP3    H138942   3.374   0.478  12.535  0.3191 -1.0293  2.5997
 5817TIP3    H238943   3.506   0.407  12.514  0.9777  1.1531 -1.0229
 5818TIP3   OH238944   3.777   3.739  13.262  0.5055  0.2252  0.6543
 5818TIP3    H138945   3.839   3.807  13.288  1.2149 -0.1296 -0.1115
 5818TIP3    H238946   3.727   3.779  13.191  0.0911  0.3869  1.0372
 5819TIP3   OH238947   5.179   4.541   5.478 -0.2900 -0.1124 -0.4239
 5819TIP3    H138948   5.261   4.548   5.429  0.2797  0.7871  0.6313
 5819TIP3    H238949   5.181   4.454   5.516  1.1200  0.6078  1.2118
 5820TIP3   OH238950   2.348   3.988  10.338  0.1094 -0.1696 -0.1248
 5820TIP3    H138951   2.265   4.034  10.326  0.1491 -0.3294 -1.1059
 5820TIP3    H238952   2.413   4.057  10.346 -0.2056 -0.0372  1.3718
 5821TIP3   OH238953   3.452   1.946   5.059  0.2673  0.4378  0.4745
 5821TIP3    H138954   3.436   1.921   4.968  4.5958  0.0253 -0.2703
 5821TIP3    H238955   3.442   2.041   5.060 -0.4416  0.3751 -0.2766
 5822TIP3   OH238956   3.304   6.254  13.189  0.3382 -0.6008 -0.3168
 5822TIP3    H138957   3.399   6.248  13.194  0.5907  2.0545 -1.3068
 5822TIP3    H238958   3.282   6.231  13.099  0.2698  0.9904 -0.7249
 5823TIP3   OH238959   6.563   0.754  11.236 -0.0558 -0.3054  0.7658
 5823TIP3    H138960   6.532   0.844  11.233 -0.0240 -0.2929  0.8023
 5823TIP3    H238961   6.486   0.701  11.216 -0.1386 -0.2813  1.0176
 5824TIP3   OH238962   0.357   0.881  12.306  0.3300  0.3877  0.6665
 5824TIP3    H138963   0.313   0.846  12.229 -0.1335  0.4015  0.9222
 5824TIP3    H238964   0.391   0.803  12.351  1.7508  0.4792 -0.2391
 5825TIP3   OH238965   5.463   2.557  11.812  0.2641  0.6135 -0.2824
 5825TIP3    H138966   5.384   2.612  11.806 -0.3649  0.0167  1.9703
 5825TIP3    H238967   5.530   2.616  11.847  0.7006  0.9921 -1.7322
 5826TIP3   OH238968   3.277   3.699   2.346 -0.1146  0.2061 -0.0245
 5826TIP3    H138969   3.345   3.735   2.403  0.9950 -0.5767 -0.8255
 5826TIP3    H238970   3.323   3.634   2.292 -1.1517  0.8773 -1.7611
 5827TIP3   OH238971   0.999   1.300  11.462  0.2906 -0.0567  0.7343
 5827TIP3    H138972   0.994   1.288  11.557 -1.2936 -1.8117  0.4624
 5827TIP3    H238973   1.012   1.211  11.428 -2.0355  0.1690 -0.8438
 5828TIP3   OH238974   4.860   1.368  12.019 -0.0382 -0.7690 -0.0400
 5828TIP3    H138975   4.885   1.279  12.044  2.6180 -0.6821 -2.1704
 5828TIP3    H238976   4.898   1.380  11.932 -0.0257  2.5992  0.3784
 5829TIP3   OH238977   6.396   0.421  12.400  0.1502 -0.1005  0.4010
 5829TIP3    H138978   6.332   0.395  12.466  0.3147 -0.6084  0.3588
 5829TIP3    H238979   6.347   0.425  12.318  0.4008 -1.5312  0.1777
 5830TIP3   OH238980   5.532   4.230  14.768 -0.1533  0.7095  0.1593
 5830TIP3    H138981   5.614   4.208  14.811 -0.1337  0.9092  0.2215
 5830TIP3    H238982   5.553   4.305  14.713  0.3630 -0.8449 -1.8582
 5831TIP3   OH238983   4.331   1.936  10.639  0.6060  0.3103 -0.2521
 5831TIP3    H138984   4.344   1.977  10.553 -2.8269  0.2054 -0.9168
 5831TIP3    H238985   4.319   2.010  10.699  2.7401  0.3782  0.1218
 5832TIP3   OH238986   4.904   3.884  13.076 -0.5615  0.4034  0.1784
 5832TIP3    H138987   4.998   3.865  13.075 -0.9230 -1.5554  1.3362
 5832TIP3    H238988   4.868   3.831  13.005 -0.8674  0.8747 -0.0256
 5833TIP3   OH238989   2.309   0.659   5.549  0.3333 -0.0569  0.1943
 5833TIP3    H138990   2.378   0.663   5.483  1.3567 -0.7456  1.2115
 5833TIP3    H238991   2.339   0.717   5.619  0.1549 -0.7999  0.8936
 5834TIP3   OH238992   0.184   1.656  16.404  0.0339  0.1610 -0.4808
 5834TIP3    H138993   0.256   1.698  16.356  0.9059 -0.6353  0.1121
 5834TIP3    H238994   0.132   1.613  16.336  0.0437  0.8449 -0.9307
 5835TIP3   OH238995   6.311   3.221   5.708 -0.7102  0.0418 -0.5704
 5835TIP3    H138996   6.249   3.151   5.726  0.0488 -0.3087  0.7150
 5835TIP3    H238997   6.314   3.273   5.788  0.7446 -0.0098 -0.5788
 5836TIP3   OH238998   0.181   6.355  16.756  0.0683  0.0293  0.5849
 5836TIP3    H138999   0.273   6.336  16.775  0.5831  0.2381 -1.5663
 5836TIP3    H239000   0.161   6.301  16.680 -1.4250  0.4167  0.6947
 5837TIP3   OH239001   6.812   2.834  12.802  0.2532 -0.1918 -1.1145
 5837TIP3    H139002   6.809   2.930  12.805 -1.3367 -0.2536 -0.1405
 5837TIP3    H239003   6.787   2.813  12.712 -0.7809  0.2813 -0.9485
 5838TIP3   OH239004   0.754   6.538   3.571 -0.3461 -0.3799  0.3169
 5838TIP3    H139005   0.834   6.486   3.579  0.4161  0.7415  0.0273
 5838TIP3    H239006   0.684   6.476   3.590  0.5417 -1.5578 -0.1556
 5839TIP3   OH239007   0.449   1.878   3.454 -0.1366 -0.5831  0.4429
 5839TIP3    H139008   0.389   1.842   3.389 -0.2162 -0.3882  0.4073
 5839TIP3    H239009   0.526   1.904   3.404 -0.4085  0.0519  0.3487
 5840TIP3   OH239010   3.679   0.265   1.425  0.2774  0.1203  0.0490
 5840TIP3    H139011   3.688   0.197   1.358  1.4968  1.1364 -0.8263
 5840TIP3    H239012   3.601   0.239   1.474 -0.6834 -0.6017 -1.8070
 5841TIP3   OH239013   4.139   6.698   5.727 -0.0199 -0.4463  0.3685
 5841TIP3    H139014   4.160   6.668   5.639 -1.1133 -0.7183  0.1941
 5841TIP3    H239015   4.090   6.625   5.767 -1.1835  0.3982  0.5336
 5842TIP3   OH239016   0.427   1.673   1.069 -0.3149 -0.4054  0.0213
 5842TIP3    H139017   0.505   1.713   1.029 -0.5211 -0.9496 -0.9526
 5842TIP3    H239018   0.448   1.667   1.162 -1.4528  4.7011  0.7624
 5843TIP3   OH239019   4.565   5.557   2.564 -0.4822 -0.7743 -0.3108
 5843TIP3    H139020   4.607   5.484   2.519  0.0751 -0.0420 -0.9828
 5843TIP3    H239021   4.488   5.576   2.510  2.0260  2.3736 -2.9902
 5844TIP3   OH239022   6.115   1.246   0.583 -0.5632 -0.3210 -0.4835
 5844TIP3    H139023   6.169   1.321   0.555  2.2657 -2.2861 -0.5152
 5844TIP3    H239024   6.058   1.229   0.509  1.7059 -0.8148 -2.1573
 5845TIP3   OH239025   0.210   1.108  14.030  0.1551  0.2292  1.1210
 5845TIP3    H139026   0.300   1.077  14.030  0.2804  0.4049 -2.2395
 5845TIP3    H239027   0.206   1.173  13.960 -2.4461  0.6553  1.5788
 5846TIP3   OH239028   2.426   5.293  13.950 -0.0244 -0.2220  0.1162
 5846TIP3    H139029   2.347   5.346  13.957  0.6241  1.1554 -2.3851
 5846TIP3    H239030   2.409   5.216  14.005 -1.9357  1.4037  1.8738
 5847TIP3   OH239031   3.900   2.132   1.171  0.1935 -0.2441  0.5145
 5847TIP3    H139032   3.908   2.196   1.242 -0.5476  0.4502 -0.0257
 5847TIP3    H239033   3.920   2.181   1.091  2.7829 -1.4249  0.3749
 5848TIP3   OH239034   0.419   1.547  17.148  0.3345 -0.0065  0.2250
 5848TIP3    H139035   0.440   1.525  17.238  2.0959  1.4905  0.2187
 5848TIP3    H239036   0.427   1.643  17.144  1.4783 -0.1418 -1.7638
 5849TIP3   OH239037   6.700   5.247  15.294 -0.7288 -0.0914 -0.1869
 5849TIP3    H139038   6.751   5.238  15.374 -1.3249  0.3449  0.2476
 5849TIP3    H239039   6.671   5.338  15.295  1.3721  0.6679 -2.1680
 5850TIP3   OH239040   3.204   5.398  15.007  0.0170  0.0713 -0.4313
 5850TIP3    H139041   3.275   5.435  15.059  0.2628  1.7602 -1.9336
 5850TIP3    H239042   3.154   5.474  14.977 -1.2995 -0.9938 -0.9966
 5851TIP3   OH239043   2.289   6.558  15.346  0.8264 -0.4774 -0.3118
 5851TIP3    H139044   2.275   6.487  15.408 -0.3015 -1.6333 -1.8563
 5851TIP3    H239045   2.217   6.619  15.362  1.3482 -0.0592  0.4753
 5852TIP3   OH239046   5.995   0.114  12.688 -0.3313 -0.2107  0.1561
 5852TIP3    H139047   6.027   0.089  12.775  0.2777  1.4444  0.4341
 5852TIP3    H239048   5.900   0.101  12.693 -0.3265  0.0756  1.1457
 5853TIP3   OH239049   0.228   6.405   2.585  0.0015 -0.2093  0.0257
 5853TIP3    H139050   0.298   6.384   2.647 -0.9296 -0.1561  1.0859
 5853TIP3    H239051   0.175   6.325   2.581 -0.8062  0.3011  0.4510
 5854TIP3   OH239052   2.942   5.194  15.394  0.8216 -0.1348  0.1386
 5854TIP3    H139053   3.035   5.175  15.404  1.3411  1.7639 -0.8889
 5854TIP3    H239054   2.939   5.285  15.367 -1.2908 -0.6192 -1.3545
 5855TIP3   OH239055   1.913   0.629   0.592  0.0625 -0.1077  0.0955
 5855TIP3    H139056   1.921   0.534   0.601  1.5526  0.1819  1.9984
 5855TIP3    H239057   1.859   0.656   0.666 -0.6833  0.5069 -0.6558
 5856TIP3   OH239058   3.088   4.536  15.501  0.2895  0.3637  0.0708
 5856TIP3    H139059   3.072   4.504  15.589  0.4401 -0.1874 -0.1006
 5856TIP3    H239060   3.007   4.519  15.454  0.4709 -0.0347 -0.0994
 5857TIP3   OH239061   4.579   5.595  12.287  0.0152 -0.2384  0.0213
 5857TIP3    H139062   4.567   5.671  12.230 -0.7401 -0.2779  0.1231
 5857TIP3    H239063   4.518   5.609  12.359 -0.7710 -1.3741 -0.4092
 5858TIP3   OH239064   1.886   3.798   4.057  0.0472  0.1198  0.2053
 5858TIP3    H139065   1.792   3.780   4.048 -0.0557  0.4053  0.6546
 5858TIP3    H239066   1.911   3.837   3.973  0.2637 -2.0159 -0.7454
 5859TIP3   OH239067   3.816   1.171  14.860  0.0049  0.4984  1.3007
 5859TIP3    H139068   3.723   1.172  14.840  0.5001 -0.1746 -1.2191
 5859TIP3    H239069   3.840   1.079  14.865  0.8546  0.6410  0.2178
 5860TIP3   OH239070   5.719   1.970  14.832 -0.0884 -0.1267 -0.5546
 5860TIP3    H139071   5.766   1.991  14.751 -1.4245 -0.2287 -1.3742
 5860TIP3    H239072   5.632   2.010  14.820 -0.9094 -1.6873  0.0479
 5861TIP3   OH239073   3.229   5.190  13.885 -0.0067  0.2337 -0.0274
 5861TIP3    H139074   3.210   5.211  13.977 -1.7732  1.1113 -0.5830
 5861TIP3    H239075   3.156   5.135  13.857  0.1196  0.6292 -1.1520
 5862TIP3   OH239076   5.341   0.777   0.622  0.0002  0.1648 -0.5535
 5862TIP3    H139077   5.340   0.789   0.717 -2.9551 -0.3416 -0.4734
 5862TIP3    H239078   5.410   0.713   0.606 -0.8872 -1.3547  1.4803
 5863TIP3   OH239079   2.773   3.007  15.547  0.2624  0.0463  0.1358
 5863TIP3    H139080   2.735   3.034  15.463 -0.0388 -0.2610  0.1708
 5863TIP3    H239081   2.851   3.061  15.556  0.6160 -0.3231 -0.6245
 5864TIP3   OH239082   0.748   4.842   4.526 -0.2815 -0.2675 -0.0060
 5864TIP3    H139083   0.777   4.920   4.477 -0.6094  0.6060  1.1821
 5864TIP3    H239084   0.655   4.834   4.504  0.3543 -1.8924 -2.2243
 5865TIP3   OH239085   2.831   5.893   0.192  0.0780 -0.0105  0.2165
 5865TIP3    H139086   2.772   5.967   0.211  0.2170  0.7311 -2.0557
 5865TIP3    H239087   2.913   5.916   0.235  0.2507  1.3956 -0.8074
 5866TIP3   OH239088   0.605   5.594  15.237 -0.1326  0.3116  0.4584
 5866TIP3    H139089   0.699   5.594  15.255  0.2880  0.5463 -1.5404
 5866TIP3    H239090   0.598   5.555  15.149 -1.9602 -0.3230  0.8714
 5867TIP3   OH239091   5.511   5.794   1.451  0.1749  0.0899  0.5499
 5867TIP3    H139092   5.486   5.857   1.519 -1.9982 -0.2016  0.0486
 5867TIP3    H239093   5.515   5.845   1.371  0.1903 -0.0594  0.4549
 5868TIP3   OH239094   4.346   2.651  15.962  0.4084 -0.0225  0.1351
 5868TIP3    H139095   4.323   2.564  15.931 -0.5715  0.7881 -1.4638
 5868TIP3    H239096   4.386   2.694  15.886 -1.2682  1.7189  0.2132
 5869TIP3   OH239097   2.431   5.425   4.470 -0.0135  0.1804 -0.4259
 5869TIP3    H139098   2.414   5.330   4.474 -2.7469  0.6361  0.0581
 5869TIP3    H239099   2.525   5.432   4.453  0.3806 -2.6123  0.2930
 5870TIP3   OH239100   6.360   2.021   5.409  0.0022  0.1257 -0.2725
 5870TIP3    H139101   6.398   2.102   5.443 -0.3362 -0.4976  1.6676
 5870TIP3    H239102   6.268   2.044   5.392 -0.0054  0.2468 -0.0742
 5871TIP3   OH239103   5.945   6.622   2.064 -0.3374 -0.3853  0.3207
 5871TIP3    H139104   5.893   6.631   2.144 -0.5236 -0.5850  0.2222
 5871TIP3    H239105   5.917   6.695   2.009  1.5403  1.2164  1.4018
 5872TIP3   OH239106   4.179   0.002   2.438 -0.0679 -0.3221 -0.1356
 5872TIP3    H139107   4.184  -0.066   2.504 -0.7533 -0.2366  0.0106
 5872TIP3    H239108   4.197   0.083   2.485  0.9410 -0.4158 -0.3465
 5873TIP3   OH239109   4.576   4.859  13.231 -0.2839  0.0426 -0.2834
 5873TIP3    H139110   4.519   4.786  13.254 -1.1032  0.5841 -0.5582
 5873TIP3    H239111   4.524   4.911  13.169  1.0245 -0.1825 -1.6010
 5874TIP3   OH239112   0.686   1.945  13.087 -0.2070 -0.2009  0.3472
 5874TIP3    H139113   0.687   1.891  13.166  2.1766 -0.0015  0.4799
 5874TIP3    H239114   0.705   1.884  13.016 -0.4358 -0.0471  0.1511
 5875TIP3   OH239115   0.887   1.932  15.027 -0.2679 -0.2837 -0.0434
 5875TIP3    H139116   0.829   2.008  15.022 -0.0499 -0.0105  1.4232
 5875TIP3    H239117   0.832   1.858  15.001 -0.9670  0.1392  0.2190
 5876TIP3   OH239118   1.998   6.391   4.433  0.0827 -0.4009 -0.1345
 5876TIP3    H139119   1.932   6.447   4.474  1.3034  1.6505 -0.8744
 5876TIP3    H239120   2.013   6.321   4.496 -1.1244  0.3898  1.0591
 5877TIP3   OH239121   4.733   5.387  15.849 -0.3317 -0.8579  0.1893
 5877TIP3    H139122   4.823   5.412  15.825 -0.2332  0.3261  1.6775
 5877TIP3    H239123   4.741   5.301  15.890  0.0635 -0.9320 -0.0446
 5878TIP3   OH239124   5.332   6.003  17.284  0.7187 -0.5379  0.7284
 5878TIP3    H139125   5.366   5.967  17.202 -0.7691  0.7684 -0.5003
 5878TIP3    H239126   5.291   6.086  17.259  1.0515  0.3460  2.9449
 5879TIP3   OH239127   4.143   1.865   6.516  0.4765  0.0264  0.1181
 5879TIP3    H139128   4.089   1.794   6.479  1.5921 -0.0708 -1.3700
 5879TIP3    H239129   4.105   1.945   6.479 -0.3067  0.1563  1.1938
 5880TIP3   OH239130   6.298   1.737  16.577 -0.8565 -0.3394 -0.1716
 5880TIP3    H139131   6.205   1.741  16.555 -0.5376 -1.0383 -1.7351
 5880TIP3    H239132   6.342   1.791  16.511 -0.1778  0.1630  0.6792
 5881TIP3   OH239133   5.193   3.192   2.459 -0.9608  0.4394 -0.3626
 5881TIP3    H139134   5.287   3.177   2.455 -1.1891 -0.8035 -1.4005
 5881TIP3    H239135   5.162   3.173   2.371 -2.0423  1.9264 -0.3271
 5882TIP3   OH239136   1.288   5.538  14.700  0.4975  0.3080 -0.0834
 5882TIP3    H139137   1.360   5.577  14.750  0.6218 -0.8253  0.6426
 5882TIP3    H239138   1.247   5.476  14.761  1.3951 -1.9851 -1.7361
 5883TIP3   OH239139   1.843   0.965   3.394 -0.4417 -0.6062 -0.5670
 5883TIP3    H139140   1.811   0.943   3.482 -1.7446  0.1610 -0.8523
 5883TIP3    H239141   1.879   1.053   3.404 -0.2994 -0.6463 -0.7331
 5884TIP3   OH239142   3.566   3.140  13.020  0.3082 -1.0134 -0.5083
 5884TIP3    H139143   3.631   3.119  12.952 -0.8920 -4.4580 -0.7373
 5884TIP3    H239144   3.563   3.061  13.074 -1.4782  0.2755  1.3137
 5885TIP3   OH239145   2.319   3.101   2.908  0.2372 -0.4510 -0.1668
 5885TIP3    H139146   2.275   3.158   2.845 -1.2087 -1.0702  0.2662
 5885TIP3    H239147   2.409   3.097   2.877  0.2032  1.4969 -0.6139
 5886TIP3   OH239148   0.777   1.431  12.253  0.7239 -0.2410  0.6706
 5886TIP3    H139149   0.781   1.362  12.320 -0.6724  0.1490  1.1690
 5886TIP3    H239150   0.858   1.480  12.266  1.8520 -1.9079  0.1563
 5887TIP3   OH239151   1.404   2.139   3.363  0.0598  0.6549  0.2012
 5887TIP3    H139152   1.338   2.202   3.335 -0.0920  0.4819  0.1718
 5887TIP3    H239153   1.405   2.147   3.459 -1.0865 -0.4297  0.3152
 5888TIP3   OH239154   4.458   3.331  11.494  0.2780  0.3142 -0.1468
 5888TIP3    H139155   4.485   3.336  11.402 -1.2927  1.3624 -0.5669
 5888TIP3    H239156   4.364   3.316  11.490  0.0029  1.6186  1.3120
 5889TIP3   OH239157   0.757   4.897  16.015  0.1431  0.1376 -0.3285
 5889TIP3    H139158   0.667   4.864  16.009 -0.0141  0.5124 -0.0652
 5889TIP3    H239159   0.757   4.952  16.094  0.6316  0.0558 -0.2752
 5890TIP3   OH239160   3.823   3.163   3.113  0.5929 -0.0624 -0.7886
 5890TIP3    H139161   3.801   3.141   3.204 -0.4488 -2.6472 -1.6399
 5890TIP3    H239162   3.758   3.230   3.088 -0.9408 -1.4345 -0.5420
 5891TIP3   OH239163   1.075   5.402   0.079 -0.5673  0.0580 -0.2446
 5891TIP3    H139164   1.129   5.326   0.057 -1.9458 -0.7223 -1.0279
 5891TIP3    H239165   1.022   5.373   0.153  0.7075  1.1158  1.0970
 5892TIP3   OH239166   0.726   0.396  13.507  0.6866  0.2316 -0.3456
 5892TIP3    H139167   0.767   0.474  13.545  0.9087  0.5090 -1.1475
 5892TIP3    H239168   0.644   0.386  13.556  1.1483  0.3691  0.4504
 5893TIP3   OH239169   0.392   6.741   2.235 -0.6429 -0.3754 -0.0782
 5893TIP3    H139170   0.477   6.781   2.250 -0.4686 -0.8123  0.1121
 5893TIP3    H239171   0.393   6.661   2.288 -1.4601  0.0088  0.5236
 5894TIP3   OH239172   4.778   2.211  13.411  0.1705  0.3201  1.0817
 5894TIP3    H139173   4.846   2.173  13.354  0.5394  0.9436  1.0962
 5894TIP3    H239174   4.705   2.229  13.352 -0.5024 -1.5814  1.2960
 5895TIP3   OH239175   1.259   5.855   5.651 -0.0803 -0.4729  0.5930
 5895TIP3    H139176   1.209   5.912   5.709  0.4911 -0.5251  1.1337
 5895TIP3    H239177   1.344   5.846   5.693  0.8769  0.7624 -1.0389
 5896TIP3   OH239178   0.049   3.919   0.015  0.3264 -0.5778 -0.0512
 5896TIP3    H139179   0.035   4.005  -0.025  1.2831  0.2890  1.4082
 5896TIP3    H239180   0.131   3.929   0.064 -0.4424 -1.7761  1.5339
 5897TIP3   OH239181   5.812   5.372  13.405 -0.5255 -0.2617 -0.0886
 5897TIP3    H139182   5.868   5.313  13.456 -0.3848  0.9157  1.1179
 5897TIP3    H239183   5.867   5.400  13.332 -0.0848 -0.4226  0.1798
 5898TIP3   OH239184   0.353   1.189   3.186  0.6688 -0.2543 -0.6165
 5898TIP3    H139185   0.344   1.220   3.096 -0.0359  0.0670 -0.4367
 5898TIP3    H239186   0.329   1.264   3.240  0.9619 -0.4851 -0.1611
 5899TIP3   OH239187   5.929   6.485  15.091 -0.4685 -0.3220 -0.1341
 5899TIP3    H139188   5.918   6.499  15.185 -0.7039  0.9010 -0.3303
 5899TIP3    H239189   5.840   6.472  15.058 -0.4333 -0.2340 -0.2636
 5900TIP3   OH239190   2.545   2.990  16.904 -0.3051  0.0312 -0.4070
 5900TIP3    H139191   2.556   2.940  16.985  0.1780 -3.6946 -2.6232
 5900TIP3    H239192   2.635   3.006  16.873 -0.4762  1.7792 -0.0355
 5901TIP3   OH239193   4.051   6.730  13.783 -0.6552  0.2412 -0.1215
 5901TIP3    H139194   4.141   6.718  13.750 -1.2355 -1.5514 -1.1366
 5901TIP3    H239195   4.029   6.646  13.824 -2.4250  0.1045 -1.2919
 5902TIP3   OH239196   0.345   1.011  12.703  0.0128  0.0359 -0.2722
 5902TIP3    H139197   0.305   1.092  12.736  3.7026  2.0289 -0.4400
 5902TIP3    H239198   0.378   1.034  12.616  2.3768 -1.2138  0.2598
 5903TIP3   OH239199   5.008   6.678  13.761  0.1676 -0.1814 -0.4380
 5903TIP3    H139200   4.971   6.601  13.717 -0.9637 -0.3401  0.7607
 5903TIP3    H239201   5.078   6.643  13.816  1.1446 -0.0632 -1.5878
 5904TIP3   OH239202   4.536   2.096  14.277 -0.1953 -0.5212  0.1863
 5904TIP3    H139203   4.463   2.033  14.269 -0.4723  0.1353 -2.9765
 5904TIP3    H239204   4.523   2.157  14.205  1.6947  1.5424  1.5387
 5905TIP3   OH239205   6.024   6.222   3.913  0.7180 -0.4131  0.6878
 5905TIP3    H139206   5.986   6.307   3.935 -0.8956 -0.9445  0.0199
 5905TIP3    H239207   5.970   6.159   3.960  0.7038 -1.2039 -0.3795
 5906TIP3   OH239208   3.627   1.866  15.002 -0.2895 -0.0511  0.1883
 5906TIP3    H139209   3.660   1.802  15.066  0.9914 -1.2114 -1.5563
 5906TIP3    H239210   3.597   1.812  14.929  0.3211  1.3217 -1.0924
 5907TIP3   OH239211   4.304   2.985  14.338  0.1673  0.2529  0.0388
 5907TIP3    H139212   4.374   3.050  14.335 -0.0318  0.4416 -0.5998
 5907TIP3    H239213   4.338   2.910  14.290  0.1063  0.1748  0.1177
 5908TIP3   OH239214   4.659   5.955   2.108 -0.1021  0.5731 -0.3550
 5908TIP3    H139215   4.729   6.019   2.122  1.0147 -0.9791  1.3730
 5908TIP3    H239216   4.646   5.954   2.013  0.9244  2.2177 -0.5342
 5909TIP3   OH239217   6.703   4.970   2.128  0.2197  0.3674  0.0613
 5909TIP3    H139218   6.761   5.018   2.069  1.8522 -0.6703  0.7768
 5909TIP3    H239219   6.693   4.884   2.088 -0.3748  0.3477  0.2384
 5910TIP3   OH239220   3.537   5.930  16.716  0.2979 -0.2321 -0.3433
 5910TIP3    H139221   3.505   5.895  16.799  1.9395  0.2920  0.5333
 5910TIP3    H239222   3.622   5.887  16.703  1.4117  1.8910 -0.2540
 5911TIP3   OH239223   2.766   2.398  13.405  0.2512  0.0867 -0.5269
 5911TIP3    H139224   2.767   2.484  13.447 -0.4566  0.2066 -0.7458
 5911TIP3    H239225   2.692   2.402  13.344 -0.9756 -1.2979  0.8063
 5912TIP3   OH239226   0.997   6.387  12.732 -0.2117  0.5496 -0.0939
 5912TIP3    H139227   0.930   6.455  12.734 -1.2550 -0.5165  1.1179
 5912TIP3    H239228   1.025   6.378  12.823  0.8436  0.2397 -0.4374
 5913TIP3   OH239229   5.078   4.959   3.061  0.2028  0.6698  0.5875
 5913TIP3    H139230   5.156   5.013   3.062  0.8381 -0.2392  1.7571
 5913TIP3    H239231   5.089   4.899   3.134 -0.0585 -1.6291 -1.1865
 5914TIP3   OH239232   1.455   2.796  12.786 -0.0939 -0.2649 -0.2292
 5914TIP3    H139233   1.499   2.728  12.837  0.2237 -0.9545 -1.4027
 5914TIP3    H239234   1.518   2.868  12.785  0.1046 -0.4332 -0.0781
 5915TIP3   OH239235   4.620   4.433  11.817 -0.5928 -0.3529  0.5627
 5915TIP3    H139236   4.655   4.370  11.879  1.3992  1.0349  0.8842
 5915TIP3    H239237   4.556   4.483  11.868 -1.0877 -1.1167  0.6979
 5916TIP3   OH239238   3.595   4.734  16.990 -0.4873 -0.5241 -0.6455
 5916TIP3    H139239   3.576   4.798  16.921 -0.7925  1.0677  0.9090
 5916TIP3    H239240   3.678   4.762  17.028 -2.6477  1.4549  2.8483
 5917TIP3   OH239241   0.042   5.526  15.160 -0.8023 -0.3102 -0.0035
 5917TIP3    H139242   0.138   5.534  15.159 -0.7900 -0.4621 -2.2114
 5917TIP3    H239243   0.012   5.614  15.184 -0.1413  0.5303 -2.0966
 5918TIP3   OH239244   6.122   4.198   4.280  0.0628 -0.5853 -0.1745
 5918TIP3    H139245   6.048   4.217   4.339  0.0906 -0.5163 -0.1611
 5918TIP3    H239246   6.094   4.233   4.195  0.2241 -0.2413 -0.0877
 5919TIP3   OH239247   0.112   5.539   3.983 -0.4501 -0.4185  0.9166
 5919TIP3    H139248   0.101   5.447   4.008  1.8417 -1.0553 -0.3049
 5919TIP3    H239249   0.026   5.565   3.951 -0.5670 -2.8307 -0.8722
 5920TIP3   OH239250   1.863   1.858  13.242 -0.3378 -0.4737 -0.4596
 5920TIP3    H139251   1.854   1.912  13.164 -0.9465 -0.4472 -0.3735
 5920TIP3    H239252   1.807   1.900  13.307 -0.3291 -0.8567 -0.2019
 5921TIP3   OH239253   3.274   0.185   1.777 -0.6336  0.0355  0.5003
 5921TIP3    H139254   3.328   0.126   1.831  1.2160  2.2140  1.1080
 5921TIP3    H239255   3.202   0.209   1.834  0.8627  1.6511  1.7739
 5922TIP3   OH239256   6.057   5.734   1.457  0.0278  0.5166 -0.1631
 5922TIP3    H139257   6.059   5.775   1.371  0.8689 -0.1918 -0.4843
 5922TIP3    H239258   6.134   5.677   1.459 -0.1542  0.2879  0.9363
 5923TIP3   OH239259   3.724   4.161  13.493  0.1535 -0.4148  0.0284
 5923TIP3    H139260   3.659   4.091  13.494 -0.1659 -0.1289 -0.3303
 5923TIP3    H239261   3.747   4.171  13.400 -0.2770  0.3797 -0.0070
 5924TIP3   OH239262   6.723   1.339   5.807  0.5070  0.2571  0.9182
 5924TIP3    H139263   6.724   1.249   5.838  0.5474  0.6757  2.1934
 5924TIP3    H239264   6.657   1.382   5.862 -1.2538  0.4548 -1.2737
 5925TIP3   OH239265   4.004   6.257   1.045 -0.1229 -0.2504  0.1600
 5925TIP3    H139266   3.996   6.327   0.981 -2.0068  1.3942  2.1065
 5925TIP3    H239267   4.077   6.204   1.014 -0.5296  0.8953 -2.9324
 5926TIP3   OH239268   5.472   4.333   4.905  0.0715 -0.0009  0.2084
 5926TIP3    H139269   5.434   4.264   4.958 -0.7343 -1.1307 -1.7691
 5926TIP3    H239270   5.398   4.370   4.856  0.5583  1.9829  0.9130
 5927TIP3   OH239271   4.658   6.650   0.667  0.1684 -1.0712  0.0093
 5927TIP3    H139272   4.591   6.588   0.696 -2.7192  1.0734 -1.8193
 5927TIP3    H239273   4.703   6.605   0.596 -0.8167 -1.7335 -0.2175
 5928TIP3   OH239274   1.855   2.673  12.858  0.3842 -0.1058 -0.1152
 5928TIP3    H139275   1.807   2.668  12.941  0.4931  0.8702  0.0102
 5928TIP3    H239276   1.828   2.756  12.820 -0.4445 -1.0069 -1.5540
 5929TIP3   OH239277   3.800   6.757  11.902 -0.0720  0.5953 -0.3711
 5929TIP3    H139278   3.879   6.781  11.950 -0.2098  2.8445 -1.2189
 5929TIP3    H239279   3.766   6.681  11.948  0.9278  1.4491  1.8227
 5930TIP3   OH239280   3.737   5.203   3.482  0.0348  0.0343 -0.5383
 5930TIP3    H139281   3.651   5.209   3.440 -0.5232 -3.9125 -0.1472
 5930TIP3    H239282   3.718   5.202   3.576  0.8188  2.6255 -0.3198
 5931TIP3   OH239283   1.159   1.831   1.103 -0.4403 -0.4067  0.5691
 5931TIP3    H139284   1.253   1.837   1.086 -0.1911  0.5565  2.1450
 5931TIP3    H239285   1.144   1.894   1.174 -2.4237  0.0399 -0.2336
 5932TIP3   OH239286   0.048   6.070  14.119  0.2355  0.2860 -0.0070
 5932TIP3    H139287   0.021   5.996  14.064  0.1852 -1.5523  2.4130
 5932TIP3    H239288  -0.034   6.111  14.146  0.2582  1.1515 -1.1886
 5933TIP3   OH239289   1.155   0.061  16.041  0.6394  0.5668  0.5857
 5933TIP3    H139290   1.079   0.079  16.096 -0.2902 -1.0058 -0.1606
 5933TIP3    H239291   1.136  -0.023  16.000  3.0868 -0.1850  0.9032
 5934TIP3   OH239292   5.053   4.048   2.983 -0.1401  0.7209 -0.1173
 5934TIP3    H139293   5.071   3.957   3.008  0.6979  0.8075 -0.3836
 5934TIP3    H239294   4.957   4.054   2.983 -0.3115 -0.9281 -2.8125
 5935TIP3   OH239295   1.584   2.256  13.692  0.2247  0.4360  0.1697
 5935TIP3    H139296   1.554   2.341  13.660  0.3931  0.2006 -0.6226
 5935TIP3    H239297   1.669   2.243  13.650  0.5691  0.2344  0.9124
 5936TIP3   OH239298   5.681   1.882  16.518  0.2155 -0.1623 -0.2081
 5936TIP3    H139299   5.702   1.860  16.427 -1.0685 -1.5288 -0.1993
 5936TIP3    H239300   5.585   1.892  16.518  0.0187 -1.8168  1.3173
 5937TIP3   OH239301   4.902   4.471   5.397 -0.7585  0.2932 -0.4067
 5937TIP3    H139302   4.855   4.547   5.361 -2.5006  0.0317  1.2154
 5937TIP3    H239303   4.993   4.501   5.406 -1.2185  1.8303 -0.7655
 5938TIP3   OH239304   4.346   3.134   2.239  0.0925  0.4042  0.6242
 5938TIP3    H139305   4.271   3.177   2.197 -0.2131  0.1813  0.9385
 5938TIP3    H239306   4.320   3.124   2.331  0.6800  0.7149  0.8331
 5939TIP3   OH239307   6.159   0.395  14.404 -0.4969  0.1625 -0.6667
 5939TIP3    H139308   6.093   0.338  14.365 -0.8071  0.2620 -0.2928
 5939TIP3    H239309   6.166   0.364  14.494  0.3213 -0.1640 -0.8391
 5940TIP3   OH239310   4.661   0.396   2.652 -0.0379 -0.1183  0.1782
 5940TIP3    H139311   4.733   0.347   2.691 -0.5970 -1.0634  0.0450
 5940TIP3    H239312   4.584   0.339   2.665 -1.0369  1.5079  1.6597
 5941TIP3   OH239313   5.617   5.463   5.420  0.4271 -0.1287 -0.1754
 5941TIP3    H139314   5.576   5.399   5.362 -0.5544 -1.3981  1.8932
 5941TIP3    H239315   5.708   5.436   5.426  0.2724 -0.6504 -0.2026
 5942TIP3   OH239316   3.956   3.837   1.974  0.0198  0.7494 -0.4098
 5942TIP3    H139317   3.959   3.819   1.880  0.6124 -1.0841 -0.0626
 5942TIP3    H239318   3.913   3.761   2.011  1.2408  0.7240  0.9796
 5943TIP3   OH239319   2.286   1.702  13.841  0.3882  0.1245  0.0391
 5943TIP3    H139320   2.282   1.752  13.759 -0.1284 -0.8900 -0.5701
 5943TIP3    H239321   2.304   1.768  13.909  1.5758  0.8828 -0.9748
 5944TIP3   OH239322   0.842   0.597   5.889 -0.3688  0.1415 -0.0993
 5944TIP3    H139323   0.874   0.597   5.980 -0.5821 -0.2593 -0.0265
 5944TIP3    H239324   0.747   0.607   5.897 -0.1339  2.9320 -0.3570
 5945TIP3   OH239325   3.216   0.063  16.240 -0.4711  0.6058 -0.0095
 5945TIP3    H139326   3.244  -0.005  16.301 -0.7691  0.8743  0.4264
 5945TIP3    H239327   3.294   0.116  16.225 -0.0861 -0.1733 -0.8008
 5946TIP3   OH239328   5.816   4.909   6.113 -0.3928 -0.4928 -0.0613
 5946TIP3    H139329   5.757   4.934   6.184  1.7037 -1.2123  2.0072
 5946TIP3    H239330   5.818   4.813   6.116  0.3358 -0.4968 -0.5507
 5947TIP3   OH239331   1.866   4.583   3.057  0.3200 -0.0807 -0.2111
 5947TIP3    H139332   1.950   4.587   3.012 -0.7167 -1.2376 -2.3301
 5947TIP3    H239333   1.807   4.637   3.003 -0.3597  0.5102  1.1076
 5948TIP3   OH239334   0.642   2.697   0.858  0.0779 -0.1875 -0.3852
 5948TIP3    H139335   0.577   2.700   0.928 -1.0500  0.4919 -1.4318
 5948TIP3    H239336   0.703   2.628   0.885 -1.5045 -1.3748  0.2628
 5949TIP3   OH239337   1.601   0.052  12.335 -0.3821  0.3910 -0.6683
 5949TIP3    H139338   1.576  -0.040  12.334 -0.9530  0.5434 -0.9081
 5949TIP3    H239339   1.683   0.055  12.286 -1.9223  0.4247 -3.3702
 5950TIP3   OH239340   1.704   2.511  11.147 -0.0579  0.2868  0.1440
 5950TIP3    H139341   1.653   2.506  11.066 -0.9369  0.1534  0.6923
 5950TIP3    H239342   1.767   2.581  11.132 -0.5288  0.5761 -0.4880
 5951TIP3   OH239343   5.493   2.303  11.931 -0.1115 -0.6935  0.0929
 5951TIP3    H139344   5.419   2.285  11.988 -0.0621 -0.2315  0.3053
 5951TIP3    H239345   5.460   2.367  11.868  0.7908  1.4543  1.7264
 5952TIP3   OH239346   1.285   4.975   2.968 -0.4226  0.1394  0.1471
 5952TIP3    H139347   1.240   5.059   2.959  2.8597  2.0940  1.0131
 5952TIP3    H239348   1.352   4.991   3.035  1.5493 -2.5938 -1.0716
 5953TIP3   OH239349   1.364   2.564   5.395  0.0005  0.9626 -0.0236
 5953TIP3    H139350   1.423   2.490   5.406 -0.4721  0.6377  0.3400
 5953TIP3    H239351   1.317   2.545   5.313 -1.0421  0.2150  0.7377
 5954TIP3   OH239352   5.830   3.580  12.396  0.2704 -0.7389 -0.3793
 5954TIP3    H139353   5.900   3.563  12.459  0.3764  1.6468  0.2295
 5954TIP3    H239354   5.873   3.583  12.311  0.8257  0.0181 -0.0825
 5955TIP3   OH239355   2.501   2.104  11.111  0.7158  0.6936  0.1305
 5955TIP3    H139356   2.561   2.030  11.120  1.6467  1.4502  0.1292
 5955TIP3    H239357   2.548   2.167  11.057  0.4961  1.9060  1.3427
 5956TIP3   OH239358   1.114   0.156  13.766 -0.2196  0.0420  0.3503
 5956TIP3    H139359   1.201   0.186  13.790  0.3654 -0.0902 -1.5727
 5956TIP3    H239360   1.100   0.078  13.820  0.6583  0.3425  1.0166
 5957TIP3   OH239361   0.776   6.638  11.069  0.7270  0.1810  0.1525
 5957TIP3    H139362   0.734   6.587  11.000  0.1265 -1.9388  2.0036
 5957TIP3    H239363   0.863   6.599  11.077  0.0671 -0.9760  1.9681
 5958TIP3   OH239364   0.036   0.515  12.760  0.0048  0.0224 -0.4243
 5958TIP3    H139365  -0.004   0.445  12.811 -0.4871  0.3738 -0.3227
 5958TIP3    H239366  -0.039   0.559  12.719  0.2801  0.7921 -0.0931
 5959TIP3   OH239367   6.230   4.224   3.909  0.0048 -0.5900 -0.3271
 5959TIP3    H139368   6.250   4.155   3.973 -1.2090 -1.8360 -1.2750
 5959TIP3    H239369   6.218   4.303   3.962 -0.7559 -1.5594  0.9683
 5960TIP3   OH239370   5.692   1.029  15.629 -0.2503 -0.2551  0.6697
 5960TIP3    H139371   5.674   0.967  15.699 -1.8155 -0.0630  0.4749
 5960TIP3    H239372   5.717   0.975  15.554  0.5087 -0.5144  1.1076
 5961TIP3   OH239373   3.144   5.680  13.683 -0.4218  0.0169  0.4737
 5961TIP3    H139374   3.151   5.615  13.753 -0.3617 -1.3327 -0.7770
 5961TIP3    H239375   3.213   5.657  13.621 -0.9329  0.7718 -0.3963
 5962TIP3   OH239376   2.563   4.376  13.153 -0.0209 -0.3004 -0.0483
 5962TIP3    H139377   2.640   4.399  13.102  0.2454 -0.6543  0.1955
 5962TIP3    H239378   2.490   4.420  13.108 -0.0663 -2.1322 -1.7947
 5963TIP3   OH239379   5.331   5.607   0.925 -0.2257 -0.7776 -0.2727
 5963TIP3    H139380   5.392   5.535   0.940 -0.1451 -0.6740 -0.0854
 5963TIP3    H239381   5.247   5.565   0.909 -0.7106 -0.8824  2.2337
 5964TIP3   OH239382   0.755   5.864   2.049  0.1708  0.0485 -0.1938
 5964TIP3    H139383   0.676   5.886   2.098 -1.3620 -1.7870 -1.7214
 5964TIP3    H239384   0.768   5.939   1.990 -0.0474  0.6620  0.5397
 5965TIP3   OH239385   6.738   3.684  14.446  0.1679  0.2459  0.2511
 5965TIP3    H139386   6.660   3.687  14.502 -0.4472 -0.0633 -0.5817
 5965TIP3    H239387   6.703   3.684  14.357  1.1714  1.5697 -0.1538
 5966TIP3   OH239388   6.095   3.884   0.572  0.0524  0.7208 -0.6569
 5966TIP3    H139389   6.173   3.939   0.584  0.3816  0.2062 -0.3947
 5966TIP3    H239390   6.115   3.830   0.496  0.1185  0.3077 -0.3487
 5967TIP3   OH239391   3.787   1.708  15.620  0.1288  0.2283 -0.2412
 5967TIP3    H139392   3.840   1.651  15.564  1.5394 -0.6760  1.9121
 5967TIP3    H239393   3.851   1.757  15.671 -1.1066  2.2321 -0.5659
 5968TIP3   OH239394   4.484   3.946   1.577 -0.2531 -0.5004 -0.2945
 5968TIP3    H139395   4.439   3.892   1.642 -0.5057 -0.2349 -0.2505
 5968TIP3    H239396   4.426   4.020   1.562 -0.3860 -0.7772 -1.1439
 5969TIP3   OH239397   4.013   6.478  15.945  0.2025 -0.2388  0.7065
 5969TIP3    H139398   4.078   6.445  16.007 -0.6455 -1.6033  0.8993
 5969TIP3    H239399   4.029   6.572  15.941  1.6626 -0.4468  1.3547
 5970TIP3   OH239400   6.429   3.145   0.535  0.4519  0.3928 -0.3556
 5970TIP3    H139401   6.490   3.173   0.604 -0.8256  1.0682  0.5143
 5970TIP3    H239402   6.358   3.209   0.538  0.2722  0.3004 -2.1703
 5971TIP3   OH239403   2.853   2.951   1.018  0.3674  0.6864 -0.4089
 5971TIP3    H139404   2.795   2.976   1.090 -0.8219 -0.6177 -0.8980
 5971TIP3    H239405   2.933   3.001   1.034 -0.1757  1.0304  1.3652
 5972TIP3   OH239406   0.088   1.289  14.643  0.0465 -0.4389  0.0506
 5972TIP3    H139407   0.063   1.327  14.727  0.7467  1.4493 -0.5876
 5972TIP3    H239408   0.005   1.265  14.602 -0.3248 -0.8231  1.0170
 5973TIP3   OH239409   4.143   0.409   2.351  0.2745 -0.0882 -0.2158
 5973TIP3    H139410   4.079   0.403   2.423  0.4559 -0.1161 -0.0569
 5973TIP3    H239411   4.098   0.369   2.276  0.2670 -0.5102  0.0081
 5974TIP3   OH239412   6.380   4.653  16.008 -0.4923  0.2360 -0.1334
 5974TIP3    H139413   6.370   4.562  16.036 -1.7298  0.4280  0.0597
 5974TIP3    H239414   6.303   4.698  16.042  0.2261  1.4154 -0.0324
 5975TIP3   OH239415   4.646   2.508   4.458  0.5867  0.3143  0.0623
 5975TIP3    H139416   4.710   2.539   4.394 -0.2771 -0.7670 -1.3457
 5975TIP3    H239417   4.586   2.453   4.408 -0.6347  0.1722  1.6300
 5976TIP3   OH239418   0.931   5.935   3.560  0.4229  0.3612  0.2540
 5976TIP3    H139419   0.936   5.965   3.651  0.0005 -1.0371  0.7422
 5976TIP3    H239420   1.022   5.920   3.535  0.5525  0.8915  0.3837
 5977TIP3   OH239421   2.771   2.193  11.796  0.3394 -0.8676  0.0739
 5977TIP3    H139422   2.759   2.127  11.727 -1.0634 -1.3255  0.7395
 5977TIP3    H239423   2.792   2.274  11.749 -0.6065 -1.1701 -0.8855
 5978TIP3   OH239424   3.583   5.038  13.077  0.3319  0.1988 -0.1013
 5978TIP3    H139425   3.561   5.021  12.986  1.1936 -0.1852 -0.2487
 5978TIP3    H239426   3.504   5.018  13.126 -0.7179  2.1644 -0.9303
 5979TIP3   OH239427   3.774   2.004   0.579 -0.1912 -0.3482 -0.0597
 5979TIP3    H139428   3.718   2.022   0.654 -1.2566 -0.4729 -0.8159
 5979TIP3    H239429   3.746   1.918   0.548  0.2769 -0.3197 -0.5669
 5980TIP3   OH239430   5.745   5.510  12.083 -0.3426 -0.4005 -0.1444
 5980TIP3    H139431   5.799   5.506  12.004 -0.5619  1.5468 -0.4385
 5980TIP3    H239432   5.681   5.579  12.064 -0.0446  0.4828  1.9436
 5981TIP3   OH239433   4.863   6.216  14.408 -0.2082  0.7399 -0.3105
 5981TIP3    H139434   4.834   6.144  14.465  0.5597  1.4806  1.0360
 5981TIP3    H239435   4.882   6.288  14.468  1.1949  1.3452 -1.4441
 5982TIP3   OH239436   3.500   0.309   1.947  0.4588  0.5148  0.0773
 5982TIP3    H139437   3.583   0.264   1.966 -0.0227  0.0228  1.0315
 5982TIP3    H239438   3.437   0.239   1.931 -0.1008  0.8463  0.7679
 5983TIP3   OH239439   4.889   3.481  12.748 -0.0688  0.1865  0.0823
 5983TIP3    H139440   4.865   3.431  12.826  1.7681 -0.3718  0.3249
 5983TIP3    H239441   4.985   3.488  12.753 -0.2108  3.0388 -0.3823
 5984TIP3   OH239442   3.546   3.398   3.987 -0.3863 -0.2891 -0.5376
 5984TIP3    H139443   3.541   3.360   3.900 -0.9019 -0.2219 -0.5377
 5984TIP3    H239444   3.475   3.356   4.036 -0.1641 -0.2522 -0.1809
 5985TIP3   OH239445   4.067   6.667  12.766  0.1080  0.3449 -0.0458
 5985TIP3    H139446   4.067   6.754  12.806  1.9733  0.3295  0.0325
 5985TIP3    H239447   4.012   6.614  12.824 -1.0903  1.4784 -0.1283
 5986TIP3   OH239448   0.362   2.145  12.851  0.4126  0.0539  0.5030
 5986TIP3    H139449   0.454   2.161  12.829  0.2122 -1.4862 -1.5658
 5986TIP3    H239450   0.363   2.127  12.945  2.0307  1.4128  0.7731
 5987TIP3   OH239451   3.909   2.936   0.866 -0.4832 -0.1592 -0.0733
 5987TIP3    H139452   3.879   2.930   0.775 -0.0997  0.7051 -0.2637
 5987TIP3    H239453   3.973   2.865   0.875  0.3464  0.4721 -0.8289
 5988TIP3   OH239454   0.771   6.462   3.989  0.3254  0.5312 -0.3747
 5988TIP3    H139455   0.731   6.543   4.022 -0.7227 -0.3469  0.5459
 5988TIP3    H239456   0.864   6.483   3.979  0.0961  1.7795  0.0619
 5989TIP3   OH239457   3.191   1.963   0.907 -0.2421 -0.3053  0.1981
 5989TIP3    H139458   3.223   2.053   0.905 -3.9340  1.0515 -1.1707
 5989TIP3    H239459   3.214   1.931   0.995 -0.2418  2.4984  1.2682
 5990TIP3   OH239460   0.688   4.154   1.168  0.3805  0.1375  0.1983
 5990TIP3    H139461   0.708   4.075   1.219  2.7734  0.1280 -0.6715
 5990TIP3    H239462   0.728   4.137   1.083 -1.4423  1.1796 -0.8764
 5991TIP3   OH239463   2.306   3.262  12.995  0.4380 -0.4722 -0.9291
 5991TIP3    H139464   2.254   3.183  13.010  0.7467 -0.3868  0.6384
 5991TIP3    H239465   2.355   3.274  13.076 -0.0128  1.6468 -0.9538
 5992TIP3   OH239466   3.245   5.913   1.669 -0.0844  0.0900  0.1298
 5992TIP3    H139467   3.324   5.964   1.685 -0.2258  0.8055 -1.2789
 5992TIP3    H239468   3.179   5.978   1.645 -0.7748 -0.6015  0.1133
 5993TIP3   OH239469   5.055   0.795  13.672 -0.0133 -0.0958  0.3247
 5993TIP3    H139470   4.989   0.847  13.628  0.6486 -0.4954 -1.1571
 5993TIP3    H239471   5.137   0.842  13.656  0.3012 -0.5105  0.7075
 5994TIP3   OH239472   3.009   4.143   5.011 -0.1614 -0.3931 -0.1219
 5994TIP3    H139473   2.928   4.149   5.062  1.5602  0.3074  2.6337
 5994TIP3    H239474   3.075   4.115   5.074  1.6992 -1.2879 -2.4039
 5995TIP3   OH239475   0.139   6.656  16.642  0.4395  0.0113 -0.0984
 5995TIP3    H139476   0.206   6.590  16.660  0.2189 -0.2062 -0.0650
 5995TIP3    H239477   0.084   6.656  16.720 -0.2508 -0.6058 -0.5724
 5996TIP3   OH239478   3.686   2.561  13.131 -0.1117  0.0566 -0.1119
 5996TIP3    H139479   3.695   2.519  13.046 -1.9906 -0.7391  0.0557
 5996TIP3    H239480   3.729   2.501  13.193  0.9322  0.4600 -0.4378
 5997TIP3   OH239481   0.758   5.658   4.423 -0.0654  0.6027 -0.0857
 5997TIP3    H139482   0.772   5.566   4.401 -0.0213  0.5027  0.3493
 5997TIP3    H239483   0.671   5.678   4.390  0.2094  0.6026 -0.8143
 5998TIP3   OH239484   1.831   3.596  17.162  0.0693  0.2806 -0.2302
 5998TIP3    H139485   1.815   3.689  17.172  1.7510  0.5592  0.0141
 5998TIP3    H239486   1.910   3.591  17.108 -0.0633 -1.0050 -0.3264
 5999TIP3   OH239487   3.602   5.201  14.357  0.4402  0.4399 -0.3793
 5999TIP3    H139488   3.657   5.177  14.431  4.7000  0.7689 -3.2580
 5999TIP3    H239489   3.583   5.117  14.313 -0.7424  0.4074  0.1843
 6000TIP3   OH239490   2.662   3.174  12.769 -0.0324 -0.1468  0.3726
 6000TIP3    H139491   2.604   3.111  12.813  0.9385 -0.1996  1.6090
 6000TIP3    H239492   2.612   3.204  12.693 -1.8362  0.0671  1.5989
 6001TIP3   OH239493   5.717   0.804  13.357 -0.7013 -0.0603  0.0107
 6001TIP3    H139494   5.717   0.733  13.294 -1.1658 -0.5739  0.5855
 6001TIP3    H239495   5.809   0.820  13.375 -0.5847 -0.2471 -0.4145
 6002TIP3   OH239496   2.497   6.608   3.700 -0.4112 -0.0929 -0.4483
 6002TIP3    H139497   2.424   6.556   3.667  1.3517 -2.6454 -0.4263
 6002TIP3    H239498   2.512   6.674   3.631 -3.2788  1.0829 -0.0194
 6003TIP3   OH239499   6.286   1.570   3.263  0.1613 -0.0334 -0.3490
 6003TIP3    H139500   6.191   1.561   3.274  0.0285  0.1676 -1.2354
 6003TIP3    H239501   6.322   1.554   3.350 -0.8918  2.8263  0.6682
 6004TIP3   OH239502   4.755   0.686   0.757  0.0868  0.1206 -0.4264
 6004TIP3    H139503   4.790   0.731   0.834 -0.7055  1.5365 -0.8809
 6004TIP3    H239504   4.750   0.594   0.784 -0.7427  0.6834  1.4279
 6005TIP3   OH239505   0.215   1.800  15.944  0.4703  0.3395 -0.2991
 6005TIP3    H139506   0.263   1.843  16.015  1.9629 -1.0392 -0.4397
 6005TIP3    H239507   0.214   1.707  15.968  0.8060 -0.1170 -1.9575
 6006TIP3   OH239508   3.915   2.382  14.597  0.5425  0.6024 -0.4766
 6006TIP3    H139509   3.954   2.392  14.684  1.3730  2.8851 -1.0707
 6006TIP3    H239510   3.867   2.464  14.584 -0.0735  0.0201 -1.9246
 6007TIP3   OH239511   3.588   4.498  16.539 -0.1404  0.0030 -0.0421
 6007TIP3    H139512   3.650   4.554  16.493 -0.1691  0.6797  0.7168
 6007TIP3    H239513   3.641   4.450  16.603  0.2208 -2.4554 -2.1198
 6008TIP3   OH239514   2.510   1.933  12.342  0.6567  0.1655  0.0321
 6008TIP3    H139515   2.530   2.023  12.367  2.6244  0.4889 -2.4760
 6008TIP3    H239516   2.444   1.904  12.405 -0.4764  3.5709  0.4948
 6009TIP3   OH239517   4.324   1.409  17.025 -0.2937 -0.6745  0.3423
 6009TIP3    H139518   4.236   1.387  16.994 -1.0717 -0.4282  2.3028
 6009TIP3    H239519   4.325   1.505  17.027 -0.2507 -0.6872  1.0334
 6010TIP3   OH239520   5.668   3.998   3.249  0.4227 -0.1645 -0.2524
 6010TIP3    H139521   5.694   3.908   3.272  0.2729 -0.5673 -1.6404
 6010TIP3    H239522   5.585   3.988   3.203  0.6780  0.6458 -0.8946
 6011TIP3   OH239523   3.415   1.169   4.795  0.0562 -0.2313  0.2416
 6011TIP3    H139524   3.334   1.129   4.765 -0.4521  0.4028  0.7643
 6011TIP3    H239525   3.402   1.182   4.889  0.4846  0.5212  0.2010
 6012TIP3   OH239526   4.013   1.508   5.080  0.2024  0.7045 -0.2288
 6012TIP3    H139527   4.024   1.415   5.063 -1.3038  0.3724  0.5267
 6012TIP3    H239528   4.101   1.541   5.095  0.7864 -0.4967 -0.9834
 6013TIP3   OH239529   4.230   3.213   3.694  0.2562  0.0808 -0.7359
 6013TIP3    H139530   4.153   3.192   3.643  0.9999 -2.0016 -1.0457
 6013TIP3    H239531   4.289   3.138   3.682  1.5531  0.7726  0.9815
 6014TIP3   OH239532   6.198   3.125  16.794  0.4463 -0.2024 -0.1538
 6014TIP3    H139533   6.265   3.165  16.850  0.7529 -0.3874 -0.3946
 6014TIP3    H239534   6.174   3.044  16.840 -1.7338  1.2913  1.4574
 6015TIP3   OH239535   3.108   0.127   5.895  0.3101 -0.3941 -0.3915
 6015TIP3    H139536   3.103   0.194   5.827 -1.0899 -0.2067 -0.1138
 6015TIP3    H239537   3.198   0.132   5.928  0.4011  0.8897 -0.8410
 6016TIP3   OH239538   1.968   3.735  13.717  0.1588 -0.0076  0.0470
 6016TIP3    H139539   1.980   3.805  13.653 -0.1853  0.1106  0.1097
 6016TIP3    H239540   2.019   3.662  13.682  0.6036  0.3061  0.0355
 6017TIP3   OH239541   2.257   4.348   5.541  0.0953 -0.3325 -0.4890
 6017TIP3    H139542   2.317   4.410   5.583  0.2037 -0.4005 -0.5426
 6017TIP3    H239543   2.287   4.344   5.450  0.0258 -0.3857 -0.5088
 6018TIP3   OH239544   6.237   4.316  14.581 -0.4559  0.0960  0.0207
 6018TIP3    H139545   6.224   4.391  14.523 -1.4059 -1.9514 -2.5247
 6018TIP3    H239546   6.157   4.264  14.572  0.0019 -1.0367  2.0731
 6019TIP3   OH239547   2.892   4.085  15.380 -0.0638 -0.3474 -0.3671
 6019TIP3    H139548   2.891   4.145  15.306 -1.2666 -1.1324 -1.0013
 6019TIP3    H239549   2.911   4.000  15.342  0.9862 -0.4897  0.4478
 6020TIP3   OH239550   0.567   5.560  16.956  0.3312 -0.0360 -0.6619
 6020TIP3    H139551   0.537   5.645  16.986 -1.6432 -0.5987 -0.9890
 6020TIP3    H239552   0.662   5.566  16.958  0.2097  1.6489  0.7782
 6021TIP3   OH239553   6.159   2.804  10.724 -0.1571 -0.5501  0.1904
 6021TIP3    H139554   6.218   2.770  10.791  0.1496  1.0205  0.7474
 6021TIP3    H239555   6.115   2.727  10.689 -0.4512 -1.3776  2.3283
 6022TIP3   OH239556   1.041   6.175   1.012  0.2425 -0.4407  0.0212
 6022TIP3    H139557   1.121   6.136   1.049  0.7270 -0.6916 -1.2634
 6022TIP3    H239558   1.011   6.110   0.948 -1.4618 -0.7291  1.0612
 6023TIP3   OH239559   4.343   0.811  11.077  0.2190 -0.1126 -0.4771
 6023TIP3    H139560   4.302   0.800  11.163 -0.1496 -0.0363 -0.6414
 6023TIP3    H239561   4.437   0.806  11.094  0.2323  2.1738  0.2623
 6024TIP3   OH239562   1.497   2.211   5.051 -0.4272 -0.1472  0.4006
 6024TIP3    H139563   1.504   2.172   5.138  1.0853  0.4637  0.5675
 6024TIP3    H239564   1.585   2.202   5.014 -0.4292  1.8000 -0.1085
 6025TIP3   OH239565   6.758   3.015  12.538 -0.3084  0.0660  0.3843
 6025TIP3    H139566   6.850   3.043  12.534 -0.5595  0.8349 -0.1385
 6025TIP3    H239567   6.757   2.928  12.499  0.5575 -0.8872  2.3811
 6026TIP3   OH239568   6.583   4.424  16.194 -0.3795 -0.1897 -0.1601
 6026TIP3    H139569   6.666   4.419  16.241 -1.1867  0.9200  1.4353
 6026TIP3    H239570   6.607   4.414  16.102  1.5140  0.0397  0.2870
 6027TIP3   OH239571   4.841   4.318  11.416 -0.1649  0.7080 -0.0791
 6027TIP3    H139572   4.795   4.254  11.361 -0.6514  1.8679 -1.0675
 6027TIP3    H239573   4.843   4.278  11.503 -0.8634 -0.4460 -0.5724
 6028TIP3   OH239574   5.985   2.415  14.306 -0.2896 -0.4498 -0.4922
 6028TIP3    H139575   5.930   2.492  14.321  1.9121  0.9668  0.6039
 6028TIP3    H239576   5.980   2.399  14.212  1.5059  2.8571 -1.2330
 6029TIP3   OH239577   0.150   2.141  13.759  0.2790 -0.2874 -0.1489
 6029TIP3    H139578   0.072   2.170  13.806  0.9115  0.1542  0.6415
 6029TIP3    H239579   0.116   2.096  13.682 -0.7433  0.5530 -0.2018
 6030TIP3   OH239580   4.691   3.675   4.619  0.4018  0.0639  0.3804
 6030TIP3    H139581   4.630   3.656   4.547  1.9704 -2.8589 -0.2694
 6030TIP3    H239582   4.757   3.732   4.580  0.5952 -0.5394 -0.1943
 6031TIP3   OH239583   1.905   2.594  15.144 -0.1240 -0.1828 -0.2039
 6031TIP3    H139584   1.824   2.629  15.180  0.4457  1.2549 -0.3026
 6031TIP3    H239585   1.922   2.515  15.196 -1.2576 -0.1627  0.2106
 6032TIP3   OH239586   1.363   3.373  14.085 -0.2510  0.7097 -0.0303
 6032TIP3    H139587   1.312   3.454  14.087  1.2539  1.6464  0.7750
 6032TIP3    H239588   1.366   3.344  14.176 -1.1571 -0.5163 -0.3669
 6033TIP3   OH239589   4.676   6.470   5.538  0.1003 -0.0356 -0.9072
 6033TIP3    H139590   4.731   6.518   5.476  0.4004  0.5012 -0.2386
 6033TIP3    H239591   4.697   6.378   5.523  0.8074  0.1401 -1.0148
 6034TIP3   OH239592   5.507   0.928   4.834  0.1047 -0.2464  0.2631
 6034TIP3    H139593   5.540   0.876   4.760  0.4101 -2.0874  1.6516
 6034TIP3    H239594   5.412   0.932   4.820  0.1154 -0.9295 -0.0271
 6035TIP3   OH239595   3.507   4.604   4.434  0.2913 -0.0694 -0.6691
 6035TIP3    H139596   3.434   4.551   4.403  0.9547 -1.4344  0.0009
 6035TIP3    H239597   3.584   4.548   4.420  1.0793  0.9612 -0.4928
 6036TIP3   OH239598   5.735   5.429   2.979  0.1143  0.6623  0.2482
 6036TIP3    H139599   5.799   5.396   3.042  0.2271  2.1340  0.9192
 6036TIP3    H239600   5.780   5.426   2.895 -0.2735 -1.9796  0.0908
 6037TIP3   OH239601   6.293   3.847  14.456  0.1584 -0.4474  0.7530
 6037TIP3    H139602   6.280   3.926  14.508 -1.7418  0.1771 -0.5903
 6037TIP3    H239603   6.312   3.778  14.520  0.3931  0.8045  2.0462
 6038TIP3   OH239604   6.576   5.175   0.100  0.0177  0.1631 -0.0613
 6038TIP3    H139605   6.608   5.230   0.172 -2.5049  3.3767 -1.2562
 6038TIP3    H239606   6.651   5.123   0.074  1.9295  1.4788  2.6087
 6039TIP3   OH239607   3.115   3.373  11.795 -0.1311 -0.5214  0.2220
 6039TIP3    H139608   3.149   3.418  11.872 -0.6688 -1.4209  1.0033
 6039TIP3    H239609   3.082   3.443  11.739 -0.4276  0.0974  1.1513
 6040TIP3   OH239610   0.865   6.503  13.103  0.2985  0.1471  0.1724
 6040TIP3    H139611   0.943   6.488  13.049  0.5687  0.6282  0.4220
 6040TIP3    H239612   0.871   6.596  13.127  0.1395 -0.0511  0.9686
 6041TIP3   OH239613   3.619   3.165   1.818  0.3436 -0.5543 -0.4452
 6041TIP3    H139614   3.531   3.173   1.856  0.5258 -1.3871  0.1845
 6041TIP3    H239615   3.635   3.249   1.775 -1.5186 -1.0899 -2.2225
 6042TIP3   OH239616   1.160   0.313  14.910  0.1182 -0.1984  0.1832
 6042TIP3    H139617   1.095   0.377  14.882  0.6361  0.1025 -0.3513
 6042TIP3    H239618   1.111   0.251  14.964 -0.3507  0.7495  0.8589
 6043TIP3   OH239619   3.173   2.865  14.324 -0.0379 -0.1532 -0.4849
 6043TIP3    H139620   3.119   2.876  14.401  0.8308  0.5563  0.0302
 6043TIP3    H239621   3.198   2.772  14.325  0.4993  0.0031  0.4308
 6044TIP3   OH239622   0.489   2.861   2.995  0.0395  0.1534 -0.7190
 6044TIP3    H139623   0.423   2.925   3.024  0.1165  1.1902 -2.7712
 6044TIP3    H239624   0.458   2.832   2.910  0.9867 -1.1837 -0.6126
 6045TIP3   OH239625   0.236   5.859  16.898 -0.1587 -0.1212 -0.0830
 6045TIP3    H139626   0.314   5.813  16.866 -0.5324  0.0908 -1.3345
 6045TIP3    H239627   0.163   5.804  16.870 -0.4878 -0.1240  0.7593
 6046TIP3   OH239628   6.516   5.482   1.909 -0.4454  0.3344  0.2369
 6046TIP3    H139629   6.509   5.462   2.002  0.6966 -0.4310  0.1746
 6046TIP3    H239630   6.457   5.556   1.895 -1.0929  0.0465  1.4384
 6047TIP3   OH239631   4.736   3.291   5.319  0.0587  0.0093 -0.1837
 6047TIP3    H139632   4.800   3.328   5.259  0.7614  0.1606  0.6439
 6047TIP3    H239633   4.786   3.273   5.399 -0.9074  0.0256  0.4288
 6048TIP3   OH239634   1.477   2.911  13.115  0.7372 -0.9978  0.1384
 6048TIP3    H139635   1.482   2.966  13.037 -1.2269 -0.4820  0.3544
 6048TIP3    H239636   1.508   2.825  13.086 -0.7222 -1.0212 -1.4298
 6049TIP3   OH239637   5.127   1.383   0.986  0.2212 -0.8269  0.3734
 6049TIP3    H139638   5.159   1.308   0.935 -0.0990 -0.2755 -0.6589
 6049TIP3    H239639   5.174   1.458   0.950 -0.8514 -0.2712  0.1153
 6050TIP3   OH239640   4.225   2.451   1.030  0.2546  0.3185 -0.5000
 6050TIP3    H139641   4.301   2.508   1.039  0.0149  0.4863  0.4891
 6050TIP3    H239642   4.260   2.369   0.994  0.5972  1.0687 -1.8863
 6051TIP3   OH239643   2.080   4.373   4.826 -0.1319 -0.1180  0.1873
 6051TIP3    H139644   2.025   4.412   4.758  0.1575 -0.6529 -0.3544
 6051TIP3    H239645   2.020   4.355   4.898  0.2958  4.7604  1.9795
 6052TIP3   OH239646   6.228   5.970   2.181 -0.2427 -0.0499 -0.1126
 6052TIP3    H139647   6.279   6.043   2.147  0.5460 -0.4359  0.2341
 6052TIP3    H239648   6.151   6.011   2.221  0.7382  0.6737  1.0524
 6053TIP3   OH239649   0.343   6.413  15.585  0.6664 -0.1288  0.1270
 6053TIP3    H139650   0.427   6.368  15.582  0.9933  0.5400 -1.1322
 6053TIP3    H239651   0.284   6.359  15.534  0.6948  0.1223 -0.1755
 6054TIP3   OH239652   3.928   0.598   1.380 -0.0489  0.1067 -0.2682
 6054TIP3    H139653   3.922   0.512   1.422 -1.4111  0.1035 -0.4485
 6054TIP3    H239654   3.993   0.645   1.431 -2.9689  0.7495  3.0430
 6055TIP3   OH239655   5.968   2.044  17.232 -0.0855  0.1340  0.0558
 6055TIP3    H139656   5.950   1.966  17.179  2.7213 -1.2257  1.0216
 6055TIP3    H239657   5.909   2.035  17.307 -1.4698  0.1922 -0.9944
 6056TIP3   OH239658   6.465   0.877  15.425  0.3965 -0.2922 -0.1714
 6056TIP3    H139659   6.478   0.911  15.513  1.0798 -0.4066 -0.2230
 6056TIP3    H239660   6.432   0.952  15.375  0.1581 -0.1872  0.1465
 6057TIP3   OH239661   3.809   2.964   3.819 -0.1445  0.2475 -0.1661
 6057TIP3    H139662   3.806   2.888   3.877 -0.4261  2.0514  2.2778
 6057TIP3    H239663   3.717   2.984   3.801 -0.1164  0.7123  0.1833
 6058TIP3   OH239664   1.349   4.741   0.125  0.1319 -0.3729 -0.7286
 6058TIP3    H139665   1.282   4.674   0.115  1.2167 -1.3110 -1.9588
 6058TIP3    H239666   1.421   4.696   0.170  0.0352  0.5489  0.3571
 6059TIP3   OH239667   5.773   1.790  16.275 -0.4327  0.0789 -0.5100
 6059TIP3    H139668   5.794   1.728  16.205  1.9223  1.0181 -0.6839
 6059TIP3    H239669   5.770   1.876  16.231 -0.4414  0.4900  0.2903
 6060TIP3   OH239670   5.668   6.007   3.832  0.1038 -0.4587  0.4828
 6060TIP3    H139671   5.613   6.079   3.800  0.0535 -1.4253 -1.7059
 6060TIP3    H239672   5.608   5.952   3.882 -1.1980 -1.9096 -2.5128
 6061TIP3   OH239673   4.923   5.265  15.493 -0.4913 -0.4870 -0.4379
 6061TIP3    H139674   4.886   5.180  15.514 -0.0427 -0.2970  1.2083
 6061TIP3    H239675   4.972   5.290  15.571  1.3785  0.2035 -1.7894
 6062TIP3   OH239676   4.330   4.495  13.548  0.2979 -0.3683 -0.1495
 6062TIP3    H139677   4.406   4.515  13.603  0.0227 -0.5940  0.3144
 6062TIP3    H239678   4.326   4.568  13.486  2.0324 -1.3000 -1.4238
 6063TIP3   OH239679   5.525   5.051  15.465  0.3952 -0.3588 -0.0103
 6063TIP3    H139680   5.478   5.069  15.384  0.2035 -0.6023  0.0444
 6063TIP3    H239681   5.475   5.097  15.533  0.0590 -0.8676  0.0901
 6064TIP3   OH239682   4.153   3.413   0.419  0.6395 -0.0207 -0.1560
 6064TIP3    H139683   4.074   3.369   0.450  0.8805  0.1148  0.6469
 6064TIP3    H239684   4.225   3.358   0.451  0.8454 -0.8305 -1.9410
 6065TIP3   OH239685   3.821   3.095  14.644  0.2955  0.2390  0.2427
 6065TIP3    H139686   3.891   3.055  14.593 -0.0125 -1.0169  0.7951
 6065TIP3    H239687   3.836   3.189  14.636  1.0763  0.0155 -0.9879
 6066TIP3   OH239688   3.039   5.580   2.281  0.3237  0.1185  0.0949
 6066TIP3    H139689   2.975   5.518   2.318  0.4003 -0.4021 -0.6462
 6066TIP3    H239690   3.031   5.658   2.336 -0.4244 -0.2163  0.4668
 6067TIP3   OH239691   5.521   0.555  13.400  0.2744 -0.5173  0.5356
 6067TIP3    H139692   5.427   0.563  13.381 -0.1802  0.0115  2.8409
 6067TIP3    H239693   5.524   0.535  13.494  2.5064  0.3283  0.6558
 6068TIP3   OH239694   4.791   1.311  12.387  0.6834  0.5383  0.5144
 6068TIP3    H139695   4.724   1.281  12.448  0.2518  0.2606 -0.0875
 6068TIP3    H239696   4.746   1.374  12.331  1.0151  0.6175  0.3333
 6069TIP3   OH239697   5.604   0.746   4.334  0.6163  0.1136  0.9139
 6069TIP3    H139698   5.694   0.734   4.366  0.5761 -3.1332 -0.0154
 6069TIP3    H239699   5.612   0.739   4.239 -0.3566  2.0632  0.6571
 6070TIP3   OH239700   2.943   3.495  16.234  0.0552 -0.3965 -0.2892
 6070TIP3    H139701   2.990   3.575  16.259 -1.4720  1.0146 -1.7521
 6070TIP3    H239702   3.010   3.440  16.192  0.4901  1.5274 -2.2344
 6071TIP3   OH239703   2.733   2.279  13.066 -0.1264  0.1391  0.3567
 6071TIP3    H139704   2.671   2.211  13.043 -0.1111  0.6435 -1.2178
 6071TIP3    H239705   2.690   2.361  13.040  1.4124  0.4531 -1.2868
 6072TIP3   OH239706   3.129   2.042  14.037  0.3715  0.5300 -0.6675
 6072TIP3    H139707   3.119   2.117  13.978  1.1272  1.0628 -0.1167
 6072TIP3    H239708   3.041   2.005  14.043  0.7222 -1.1079 -4.1817
 6073TIP3   OH239709   3.227   6.151   6.257 -0.4852 -0.7402 -0.3189
 6073TIP3    H139710   3.302   6.210   6.262 -1.1155  0.2611 -2.2714
 6073TIP3    H239711   3.207   6.131   6.349  0.4167  1.2258  0.3463
 6074TIP3   OH239712   4.902   4.597   4.470 -0.4389  0.4688  0.6479
 6074TIP3    H139713   4.890   4.573   4.378 -0.3637  1.2660  0.4202
 6074TIP3    H239714   4.816   4.629   4.498 -0.9307 -1.4294  1.3754
 6075TIP3   OH239715   6.804   3.966   4.453  0.0635  0.3932  0.1168
 6075TIP3    H139716   6.879   4.020   4.428  0.8227 -1.0756 -0.8124
 6075TIP3    H239717   6.777   4.002   4.538  1.8530  0.9003  0.4994
 6076TIP3   OH239718   5.888   3.593  15.568 -0.0902 -0.3252  0.0120
 6076TIP3    H139719   5.920   3.640  15.645  0.7009  0.1394 -0.5953
 6076TIP3    H239720   5.950   3.521  15.557  2.0197  1.7934 -2.4125
 6077TIP3   OH239721   1.046   0.552   0.382  0.3789  0.1665  0.6312
 6077TIP3    H139722   0.951   0.544   0.369 -0.1109  0.1931  3.7063
 6077TIP3    H239723   1.080   0.464   0.364 -0.3608 -0.0979  0.4853
 6078TIP3   OH239724   4.790   0.874   3.626  0.0647 -0.2565  0.0574
 6078TIP3    H139725   4.817   0.964   3.605  3.2122 -0.8068  1.4087
 6078TIP3    H239726   4.764   0.878   3.718  1.4514 -0.9490  0.4943
 6079TIP3   OH239727   0.052   0.158  14.667  0.0151  0.3854 -0.1433
 6079TIP3    H139728   0.064   0.253  14.670  0.0379  0.3434  1.3790
 6079TIP3    H239729  -0.015   0.140  14.732  0.9529 -0.7821  0.5143
 6080TIP3   OH239730   0.061   4.833  16.482 -0.2939  0.1008 -0.4577
 6080TIP3    H139731   0.069   4.912  16.429  1.4013  0.4015  0.2031
 6080TIP3    H239732   0.143   4.786  16.469  0.5231  0.5711  2.4387
 6081TIP3   OH239733   0.122   1.248  16.495  0.6284  0.0957  0.1223
 6081TIP3    H139734   0.059   1.177  16.511 -0.2538  0.8809  0.2300
 6081TIP3    H239735   0.206   1.204  16.483 -0.4423 -1.2182 -3.0349
 6082TIP3   OH239736   1.894   0.138  14.207 -0.1183 -0.2658 -0.3598
 6082TIP3    H139737   1.922   0.121  14.117  0.1818 -1.6619 -0.0110
 6082TIP3    H239738   1.973   0.124  14.260 -0.8289 -1.6587  0.3508
 6083TIP3   OH239739   1.878   1.784   4.359  0.3902 -0.5620 -0.2103
 6083TIP3    H139740   1.951   1.733   4.392  2.1278  2.6693  1.1902
 6083TIP3    H239741   1.908   1.820   4.276  0.7678  1.4072  0.7325
 6084TIP3   OH239742   6.578   2.754  11.300 -0.0371  0.7885 -0.3837
 6084TIP3    H139743   6.666   2.785  11.281  0.0818 -0.3231 -1.7065
 6084TIP3    H239744   6.553   2.703  11.223  0.0525 -2.9520  1.9620
 6085TIP3   OH239745   5.076   6.017  16.851 -0.2625 -0.4632 -0.5652
 6085TIP3    H139746   5.013   5.979  16.912 -0.6623 -1.3427 -1.5221
 6085TIP3    H239747   5.150   5.955  16.850  0.5715  0.4888  0.4440
 6086TIP3   OH239748   5.433   5.086  13.069  0.1786  0.2452  0.2777
 6086TIP3    H139749   5.430   5.176  13.035 -1.3051  0.2836  0.4547
 6086TIP3    H239750   5.523   5.058  13.055  0.7341  1.8687  0.4804
 6087TIP3   OH239751   5.174   1.528   5.212 -0.1100 -0.1947 -0.0974
 6087TIP3    H139752   5.198   1.438   5.234 -0.6636 -0.2713  0.1958
 6087TIP3    H239753   5.104   1.520   5.148  0.6314  0.0331 -0.9613
 6088TIP3   OH239754   2.076   4.393  12.247 -0.2436 -0.0491  0.1433
 6088TIP3    H139755   2.154   4.396  12.192  0.0817  0.7652  0.6453
 6088TIP3    H239756   2.005   4.420  12.189 -0.0192  0.0713 -0.0777
 6089TIP3   OH239757   3.977   4.794  15.677 -0.3287 -0.3983  0.4221
 6089TIP3    H139758   4.054   4.785  15.734 -1.0030 -1.6106  1.1547
 6089TIP3    H239759   3.949   4.705  15.660 -1.6764  0.0424  0.2948
 6090TIP3   OH239760   1.974   6.596  14.336 -0.1883  0.1611 -0.1518
 6090TIP3    H139761   1.971   6.522  14.396  1.6279  1.0913  1.1666
 6090TIP3    H239762   2.030   6.567  14.264 -1.1746 -0.4530 -0.6764
 6091TIP3   OH239763   1.436   2.810  13.382 -0.1609  0.7523  0.8877
 6091TIP3    H139764   1.453   2.830  13.473 -0.9110 -2.1860  1.7406
 6091TIP3    H239765   1.511   2.758  13.353 -1.2472 -0.8049  0.7404
 6092TIP3   OH239766   1.880   5.839  16.104 -0.0240  0.2376 -0.2605
 6092TIP3    H139767   1.933   5.919  16.102  0.7009 -0.2303  0.0752
 6092TIP3    H239768   1.885   5.809  16.195  0.9143 -0.9867 -0.7072
 6093TIP3   OH239769   4.415   2.995  16.139  0.6414 -0.2586 -0.4969
 6093TIP3    H139770   4.458   2.912  16.160  0.6554 -0.4800 -1.3739
 6093TIP3    H239771   4.454   3.058  16.200  1.0780 -0.7704 -0.2405
 6094TIP3   OH239772   6.575   3.796   2.727 -0.4083  0.6155  0.6170
 6094TIP3    H139773   6.619   3.876   2.754  1.1090  0.2614 -0.7327
 6094TIP3    H239774   6.618   3.727   2.777  0.2120  0.3365 -0.2817
 6095TIP3   OH239775   6.123   3.428  15.644 -0.4954 -0.1372  0.1186
 6095TIP3    H139776   6.182   3.369  15.690 -1.7645 -1.9197 -0.4712
 6095TIP3    H239777   6.062   3.369  15.598 -1.2209  1.6232 -1.2181
 6096TIP3   OH239778   1.483   0.839   4.591  0.4939 -0.0202  0.0045
 6096TIP3    H139779   1.441   0.923   4.612 -1.7971 -1.0408 -0.4389
 6096TIP3    H239780   1.491   0.839   4.496  0.9068 -0.1301  0.0374
 6097TIP3   OH239781   0.462   5.889   1.301  0.2691 -0.7718  0.1701
 6097TIP3    H139782   0.545   5.899   1.254 -0.9788 -0.2985 -2.0175
 6097TIP3    H239783   0.447   5.975   1.341  0.9647 -0.9428  0.8006
 6098TIP3   OH239784   5.953   2.828   5.937 -0.7900 -0.2449 -0.5215
 6098TIP3    H139785   6.037   2.783   5.946 -0.2666  0.4885 -1.6317
 6098TIP3    H239786   5.899   2.769   5.885 -1.3597 -1.2277  1.1563
 6099TIP3   OH239787   3.315   6.016   6.555 -0.3662  0.3863 -1.2689
 6099TIP3    H139788   3.316   5.974   6.641  1.7031 -0.0991 -1.4938
 6099TIP3    H239789   3.227   5.999   6.520 -1.2162  0.5984  0.7510
 6100TIP3   OH239790   1.146   6.308   3.048 -0.4947  0.2901 -0.6496
 6100TIP3    H139791   1.118   6.400   3.052  0.8255  0.7144 -0.9192
 6100TIP3    H239792   1.081   6.266   2.992 -0.5004  1.2968 -1.4094
 6101TIP3   OH239793   3.829   2.787  15.332  0.1929 -0.3123  0.1324
 6101TIP3    H139794   3.761   2.807  15.268 -0.1974  1.3393  1.0217
 6101TIP3    H239795   3.782   2.782  15.416  1.0070 -0.1815  0.6047
 6102TIP3   OH239796   6.802   2.919  13.722  0.3927  0.5705  0.1151
 6102TIP3    H139797   6.763   2.832  13.721 -0.6112  1.0179  0.1557
 6102TIP3    H239798   6.893   2.904  13.749  0.4033 -0.5311 -0.4907
 6103TIP3   OH239799   3.175   3.386   3.444 -0.1273 -0.4832  0.0479
 6103TIP3    H139800   3.131   3.466   3.415  0.4703 -0.1470  0.0499
 6103TIP3    H239801   3.176   3.330   3.366  1.5291  0.4443 -0.6464
 6104TIP3   OH239802   1.202   2.977   6.078  0.0409 -0.1124  0.3421
 6104TIP3    H139803   1.263   3.043   6.111 -0.1080  1.5334 -2.4635
 6104TIP3    H239804   1.143   2.960   6.151 -0.6232  3.7799  0.8219
 6105TIP3   OH239805   5.429   4.614  14.376 -0.0549  0.5414  0.3985
 6105TIP3    H139806   5.340   4.590  14.348  0.4592  0.2077 -1.0203
 6105TIP3    H239807   5.423   4.708  14.395 -0.8648  0.3837  0.9713
 6106TIP3   OH239808   6.694   5.502   0.826  0.3187 -0.0172 -0.2110
 6106TIP3    H139809   6.745   5.535   0.753  1.9031 -0.2717  0.7536
 6106TIP3    H239810   6.667   5.414   0.800  0.2906  0.1608 -0.7755
 6107TIP3   OH239811   6.720   5.339   2.385  0.2632  0.0476  0.0253
 6107TIP3    H139812   6.762   5.351   2.300 -0.6823 -1.6718 -0.7016
 6107TIP3    H239813   6.792   5.347   2.448  1.0982  0.5627 -0.9818
 6108TIP3   OH239814   1.510   5.511  14.857  0.1415 -0.4203 -0.1971
 6108TIP3    H139815   1.486   5.585  14.913 -0.4605  0.3389 -1.4527
 6108TIP3    H239816   1.495   5.434  14.912 -0.5220  0.3041  0.6533
 6109TIP3   OH239817   1.834   3.653   1.735  0.3132  0.3470  0.5934
 6109TIP3    H139818   1.924   3.652   1.702  0.5494  0.4579  1.2347
 6109TIP3    H239819   1.828   3.576   1.791  0.2408  0.7858  1.1844
 6110TIP3   OH239820   1.004   1.311   2.663 -0.3613  0.4409  0.0368
 6110TIP3    H139821   1.024   1.309   2.570 -0.0368  0.1141  0.1105
 6110TIP3    H239822   0.951   1.232   2.678 -1.3275  1.0648 -0.0730
 6111TIP3   OH239823   4.511   0.764  11.643 -0.1636 -0.1843 -0.2016
 6111TIP3    H139824   4.558   0.682  11.625  0.9540  0.0974  1.2815
 6111TIP3    H239825   4.580   0.824  11.671 -1.3482  0.4122  1.4787
 6112TIP3   OH239826   1.322   2.235   4.302  0.7991  0.1842  0.2291
 6112TIP3    H139827   1.248   2.183   4.271  1.8892 -0.3074 -1.5891
 6112TIP3    H239828   1.360   2.181   4.372 -0.2131  0.1934  0.8097
 6113TIP3   OH239829   3.848   1.860   2.815  0.3453  0.5372 -0.5839
 6113TIP3    H139830   3.908   1.867   2.741  0.6868  0.6165 -0.3037
 6113TIP3    H239831   3.884   1.920   2.881  0.8994 -0.6515  0.2135
 6114TIP3   OH239832   5.683   4.772  12.834  0.5086 -0.7418  0.2219
 6114TIP3    H139833   5.662   4.807  12.920  2.5328  1.2631 -0.0445
 6114TIP3    H239834   5.759   4.715  12.849  0.1810 -1.2621 -0.0696
 6115TIP3   OH239835   5.803   4.799  12.005  0.1473  0.2909 -1.1572
 6115TIP3    H139836   5.791   4.835  11.917  1.3535 -1.9751 -2.2794
 6115TIP3    H239837   5.842   4.871  12.054  0.7997  1.1410 -2.8600
 6116TIP3   OH239838   3.979   2.157  15.154  0.3375  0.3968  0.5945
 6116TIP3    H139839   3.887   2.182  15.150  0.1496 -0.6725 -2.7376
 6116TIP3    H239840   4.024   2.221  15.098  1.3262 -0.3624  0.5123
 6117TIP3   OH239841   2.526   3.426  11.686  0.3570  0.3799  0.2008
 6117TIP3    H139842   2.553   3.345  11.730 -0.1053 -0.0291 -0.2748
 6117TIP3    H239843   2.608   3.473  11.671  0.8433 -0.9674 -1.4553
 6118TIP3   OH239844   0.220   4.566   3.616  0.0903 -0.0695  0.7306
 6118TIP3    H139845   0.251   4.635   3.557  0.9929 -0.3343  0.9024
 6118TIP3    H239846   0.298   4.532   3.658 -0.1083 -2.4680 -0.7181
 6119TIP3   OH239847   1.535   1.149  15.210  0.1439  0.3331 -0.3212
 6119TIP3    H139848   1.481   1.076  15.180  0.3117  0.2876 -0.5113
 6119TIP3    H239849   1.510   1.222  15.152 -1.2774  0.8986  0.9708
 6120TIP3   OH239850   3.570   3.791   5.081  0.5250  0.7526 -0.3491
 6120TIP3    H139851   3.661   3.763   5.067  1.3141  2.2530  1.6152
 6120TIP3    H239852   3.557   3.861   5.017  0.2960 -0.3225 -1.5188
 6121TIP3   OH239853   4.494   5.006  12.328  0.4097  0.1100 -0.0301
 6121TIP3    H139854   4.490   5.000  12.424 -0.6074  0.4530 -0.0480
 6121TIP3    H239855   4.458   5.092  12.308  2.3480  0.7988 -0.6213
 6122TIP3   OH239856   1.556   5.713  11.405 -0.1444  0.5154  0.8107
 6122TIP3    H139857   1.460   5.710  11.406 -0.1185 -0.4191  2.2833
 6122TIP3    H239858   1.579   5.696  11.314 -1.3870  1.4114  0.3096
 6123TIP3   OH239859   1.421   2.855   4.078 -0.0484 -0.4407 -0.2169
 6123TIP3    H139860   1.450   2.874   3.988  0.9167 -0.0818  0.1557
 6123TIP3    H239861   1.351   2.791   4.068  0.7983 -1.2460 -1.1753
 6124TIP3   OH239862   3.820   0.647  15.112 -0.7049 -0.3185 -0.2920
 6124TIP3    H139863   3.800   0.737  15.139  1.7141  0.1272  0.0979
 6124TIP3    H239864   3.846   0.603  15.193  0.4260 -0.7052 -0.8521
 6125TIP3   OH239865   2.798   2.281  16.094  0.1743 -0.1032 -0.1426
 6125TIP3    H139866   2.839   2.289  16.008  0.9839  0.0130  0.2544
 6125TIP3    H239867   2.841   2.206  16.135 -0.6707 -0.5647 -0.0915
 6126TIP3   OH239868   2.879   6.055   3.902  0.3747 -0.1150  0.3100
 6126TIP3    H139869   2.852   6.016   3.819 -1.7604  0.5175  0.6760
 6126TIP3    H239870   2.807   6.035   3.962  0.7326  1.6246  1.3438
 6127TIP3   OH239871   0.602   3.373   1.500 -0.1386  0.2551 -0.0545
 6127TIP3    H139872   0.645   3.435   1.441 -0.2617 -0.4741 -0.9065
 6127TIP3    H239873   0.541   3.325   1.445  1.0114 -1.6493  0.3096
 6128TIP3   OH239874   3.693   5.104   2.391  0.1109 -0.1656 -0.6646
 6128TIP3    H139875   3.673   5.086   2.483  2.0364  0.1021 -0.1782
 6128TIP3    H239876   3.662   5.194   2.377 -0.4897 -0.3234 -0.3747
 6129TIP3   OH239877   4.183   6.687  16.134 -0.0311 -0.2769  0.3603
 6129TIP3    H139878   4.157   6.742  16.061  0.7687 -2.6171 -1.7739
 6129TIP3    H239879   4.276   6.706  16.148 -0.1117 -0.0399  0.5693
 6130TIP3   OH239880   5.186   5.379  13.984 -0.6201 -0.2291  0.2069
 6130TIP3    H139881   5.249   5.436  13.942  0.7909 -1.8103  0.1177
 6130TIP3    H239882   5.103   5.427  13.979  0.5298  1.8082  0.2105
 6131TIP3   OH239883   4.000   4.476   3.703  0.2071 -0.3801 -0.0076
 6131TIP3    H139884   4.065   4.494   3.771 -1.5897  1.5386  1.3034
 6131TIP3    H239885   4.027   4.528   3.628  2.2727 -2.6016 -0.8572
 6132TIP3   OH239886   3.390   5.656  17.142  0.1206  0.1933  0.0868
 6132TIP3    H139887   3.319   5.705  17.184  1.2441  1.5148  0.4344
 6132TIP3    H239888   3.399   5.578  17.197 -2.2385 -0.8821 -0.9497
 6133TIP3   OH239889   6.617   1.244  11.193  0.2713  0.1296 -0.0786
 6133TIP3    H139890   6.668   1.218  11.116 -1.4393  2.6654 -2.1712
 6133TIP3    H239891   6.626   1.340  11.196 -2.1567  0.3539  1.0721
 6134TIP3   OH239892   6.200   0.747  13.624 -0.2676 -0.1872  0.3200
 6134TIP3    H139893   6.277   0.737  13.567  0.3755 -1.1434  1.3533
 6134TIP3    H239894   6.182   0.841  13.623  0.7930  0.0170 -0.0780
 6135TIP3   OH239895   0.036   6.360   3.770 -0.0630 -0.9152 -0.3310
 6135TIP3    H139896  -0.006   6.419   3.833  0.3615 -0.4170 -0.5096
 6135TIP3    H239897   0.123   6.398   3.757  0.3202 -1.7487 -0.2195
 6136TIP3   OH239898   5.228   0.944  11.580 -0.3489 -0.0093  0.1786
 6136TIP3    H139899   5.250   0.858  11.544  0.2327  0.3112 -0.2617
 6136TIP3    H239900   5.313   0.981  11.606 -0.4774  0.8347 -0.5767
 6137TIP3   OH239901   3.184   5.573   0.038  0.3515 -0.8542  0.1106
 6137TIP3    H139902   3.120   5.614   0.097  0.8370 -0.7063  0.5388
 6137TIP3    H239903   3.140   5.570  -0.047 -0.1823 -0.6492  0.3736
 6138TIP3   OH239904   0.214   5.341   1.132 -0.3164 -0.1492 -0.1627
 6138TIP3    H139905   0.306   5.353   1.154 -0.7830 -0.0652  1.7919
 6138TIP3    H239906   0.209   5.251   1.099  0.2676 -0.5549  0.8239
 6139TIP3   OH239907   3.019   2.423   0.092 -0.2226  0.3227  0.3265
 6139TIP3    H139908   3.011   2.507   0.046 -0.9643  1.0934  1.8292
 6139TIP3    H239909   3.101   2.386   0.059  0.1762  1.6798 -0.2775
 6140TIP3   OH239910   0.105   1.153   5.479  0.3070 -0.1296 -0.3271
 6140TIP3    H139911   0.044   1.112   5.417 -0.1127  0.8660 -0.5842
 6140TIP3    H239912   0.124   1.084   5.543 -1.3458 -0.3689 -0.0673
 6141TIP3   OH239913   3.972   2.939   3.009 -0.2379 -0.1528 -0.1812
 6141TIP3    H139914   3.940   3.022   3.043 -0.3512 -0.4112  0.3440
 6141TIP3    H239915   3.893   2.886   2.998 -0.5137  0.7461 -3.1453
 6142TIP3   OH239916   6.089   5.409   4.385 -0.0726  0.4916 -0.5734
 6142TIP3    H139917   6.051   5.322   4.403 -2.2974  1.4462 -0.4401
 6142TIP3    H239918   6.146   5.426   4.460 -0.8147 -0.2137  0.1639
 6143TIP3   OH239919   3.783   1.869  12.084 -0.4482  0.0792 -0.5697
 6143TIP3    H139920   3.687   1.871  12.089 -0.3342  1.9184  4.7689
 6143TIP3    H239921   3.806   1.778  12.098 -1.4405  0.1106  1.5311
 6144TIP3   OH239922   1.134   0.346   5.940 -0.1402 -0.0383  0.2865
 6144TIP3    H139923   1.196   0.407   5.981 -0.1868 -1.5081  2.6139
 6144TIP3    H239924   1.167   0.259   5.963 -1.3174 -0.8899 -1.1418
 6145TIP3   OH239925   6.778   0.178   5.143 -0.0129 -0.8702  0.2988
 6145TIP3    H139926   6.735   0.262   5.153 -0.1979 -1.1305  1.6825
 6145TIP3    H239927   6.865   0.199   5.109  0.2822 -0.0505  1.5398
 6146TIP3   OH239928   6.557   5.029  16.473  0.4422 -0.2962 -0.1456
 6146TIP3    H139929   6.465   5.002  16.467 -1.4252  4.8508  2.2754
 6146TIP3    H239930   6.572   5.081  16.395  0.9873 -0.2172  0.0117
 6147TIP3   OH239931   4.213   2.902  11.841 -0.1002  0.0962 -0.0573
 6147TIP3    H139932   4.259   2.978  11.875 -0.0804 -0.1043  0.3577
 6147TIP3    H239933   4.223   2.835  11.908  1.3944 -0.8548 -1.1911
 6148TIP3   OH239934   6.750   0.011   0.537  0.3009  0.1463  0.2973
 6148TIP3    H139935   6.787   0.094   0.508  0.2236  0.0109 -0.2009
 6148TIP3    H239936   6.808  -0.056   0.499 -0.3501 -0.0597 -0.3453
 6149TIP3   OH239937   6.499   4.385   3.043 -0.4460 -0.4738 -0.1167
 6149TIP3    H139938   6.489   4.291   3.058 -0.4606 -0.4263  0.1707
 6149TIP3    H239939   6.569   4.391   2.978 -1.1673 -0.7387 -0.9373
 6150TIP3   OH239940   2.778   4.238  12.600  0.1167  0.4738 -0.4226
 6150TIP3    H139941   2.784   4.153  12.643  0.6076  0.3553 -0.7305
 6150TIP3    H239942   2.836   4.232  12.524  0.8060  1.3555  0.0204
 6151TIP3   OH239943   2.607   4.910  15.468 -0.1054 -0.1674 -0.7487
 6151TIP3    H139944   2.621   4.920  15.562 -1.9125  1.0946 -0.5951
 6151TIP3    H239945   2.690   4.876  15.435  0.8762  0.3339  1.1480
 6152TIP3   OH239946   3.213   1.803  10.920 -0.3495 -0.2693  0.4113
 6152TIP3    H139947   3.153   1.729  10.915  0.3396 -0.7710 -0.6362
 6152TIP3    H239948   3.187   1.860  10.848 -0.2176 -0.0056  0.5720
 6153TIP3   OH239949   6.763   5.944  12.953  0.2092 -0.0878  0.0127
 6153TIP3    H139950   6.707   5.987  12.888 -0.1022  1.3834  1.2164
 6153TIP3    H239951   6.846   5.991  12.948 -0.2506  0.9239  1.5963
 6154TIP3   OH239952   4.875   5.014   0.641 -0.3700 -0.3353  0.5793
 6154TIP3    H139953   4.940   4.946   0.625 -1.0607 -0.5636 -1.2689
 6154TIP3    H239954   4.796   4.966   0.664 -0.7833 -0.1584 -0.4590
 6155TIP3   OH239955   3.493   0.361  12.017 -0.5523 -0.2942 -0.1968
 6155TIP3    H139956   3.419   0.315  12.056  1.1394 -1.9017  1.2757
 6155TIP3    H239957   3.557   0.293  12.000  0.9831  1.1768 -0.4942
 6156TIP3   OH239958   3.745   0.471  13.713  0.0463  0.7950 -0.6301
 6156TIP3    H139959   3.816   0.413  13.739 -0.5021  0.0817 -0.6927
 6156TIP3    H239960   3.667   0.415  13.711 -0.6196  1.6782 -0.0290
 6157TIP3   OH239961   5.670   2.334   6.393 -0.1786 -0.6726 -0.4287
 6157TIP3    H139962   5.683   2.245   6.361 -1.6473 -0.4775 -1.6173
 6157TIP3    H239963   5.583   2.359   6.361 -0.8210  0.3023  1.9557
 6158TIP3   OH239964   5.595   4.627  12.393  0.2484 -0.5831  0.1761
 6158TIP3    H139965   5.552   4.642  12.310 -0.7667 -1.1254  0.5919
 6158TIP3    H239966   5.639   4.709  12.413  0.7446 -0.5465 -1.0316
 6159TIP3   OH239967   2.241   4.195  13.621 -0.1781  0.0179  0.4279
 6159TIP3    H139968   2.173   4.243  13.575 -0.7104 -1.2138 -0.1008
 6159TIP3    H239969   2.204   4.178  13.708 -0.0941  0.3411  0.5251
 6160TIP3   OH239970   4.954   1.389   5.831  0.1809  0.5365 -0.0675
 6160TIP3    H139971   5.049   1.386   5.819  0.5846 -0.9932  2.9392
 6160TIP3    H239972   4.941   1.445   5.908 -1.2991  0.2420 -0.0870
 6161TIP3   OH239973   0.178   5.084  15.351  0.3362  0.1523 -0.1156
 6161TIP3    H139974   0.100   5.033  15.373 -1.8212  3.0246 -0.9317
 6161TIP3    H239975   0.215   5.108  15.436 -0.0359 -0.6467  0.2812
 6162TIP3   OH239976   1.650   2.602  13.344  0.0127 -0.4558 -0.5847
 6162TIP3    H139977   1.577   2.543  13.322  0.4066 -0.5455 -1.6463
 6162TIP3    H239978   1.694   2.558  13.417  0.0676 -1.2951 -1.1105
 6163TIP3   OH239979   4.433   2.473   3.382  0.0631  0.2107 -0.0719
 6163TIP3    H139980   4.390   2.554   3.354  0.7517  0.3443 -0.7760
 6163TIP3    H239981   4.389   2.404   3.331  1.2766  0.4485 -1.4553
 6164TIP3   OH239982   1.895   1.403  12.079  0.1594 -0.0284  0.4386
 6164TIP3    H139983   1.844   1.457  12.018  1.2389  0.4282 -0.0626
 6164TIP3    H239984   1.842   1.324  12.091 -0.9380  0.6917  0.3596
 6165TIP3   OH239985   5.570   4.060  17.011 -0.2695 -0.2612  0.7832
 6165TIP3    H139986   5.541   4.117  16.939  0.7354 -1.0425 -0.2796
 6165TIP3    H239987   5.558   4.112  17.090  0.6215  1.4483 -0.1680
 6166TIP3   OH239988   0.196   0.161  13.820  0.5234 -0.4325 -0.1219
 6166TIP3    H139989   0.194   0.084  13.877  0.1691 -1.6224 -1.6994
 6166TIP3    H239990   0.268   0.143  13.759 -0.3801 -0.1185 -1.2979
 6167TIP3   OH239991   3.657   4.069  14.351 -0.1541 -0.5431  0.6960
 6167TIP3    H139992   3.717   4.039  14.282 -0.3663  0.3913  0.0889
 6167TIP3    H239993   3.714   4.113  14.414 -0.2291  0.6025 -0.0269
 6168TIP3   OH239994   5.944   1.267   5.120  0.0554 -0.0672  0.3731
 6168TIP3    H139995   5.849   1.275   5.108  0.0222  0.4564  1.0070
 6168TIP3    H239996   5.954   1.227   5.206  0.3342 -3.1823 -1.0124
 6169TIP3   OH239997   4.223   2.123   5.034 -0.2152 -0.1753 -0.7638
 6169TIP3    H139998   4.167   2.193   5.067  1.3871  2.1278 -2.8255
 6169TIP3    H239999   4.290   2.112   5.101  0.8403  1.8530 -1.4692
 6170TIP3   OH240000   4.544   3.844   2.846 -0.4035 -0.1863  0.3671
 6170TIP3    H140001   4.566   3.874   2.934  1.1621  1.5830 -0.6034
 6170TIP3    H240002   4.628   3.842   2.800 -0.9032 -3.0909 -0.5242
 6171TIP3   OH240003   6.659   4.762  16.334 -0.0266  0.5130  0.3597
 6171TIP3    H140004   6.598   4.733  16.402 -0.2253  1.8618  0.7807
 6171TIP3    H240005   6.746   4.737  16.367 -0.2492 -0.2061  0.3956
 6172TIP3   OH240006   1.543   1.968   0.077 -0.0217 -0.1981  0.0440
 6172TIP3    H140007   1.464   1.923   0.105 -0.4885 -0.3287 -1.4284
 6172TIP3    H240008   1.528   1.988  -0.015  0.9553  1.3064  0.1851
 6173TIP3   OH240009   0.480   5.435  14.075 -0.8756 -0.2029  0.1930
 6173TIP3    H140010   0.449   5.511  14.025 -0.6729 -1.2850 -1.6468
 6173TIP3    H240011   0.411   5.418  14.139 -2.3603 -0.3213 -1.3949
 6174TIP3   OH240012   2.745   4.803  15.121  0.2051  0.0575 -0.0346
 6174TIP3    H140013   2.826   4.784  15.074 -0.0698 -1.7547  0.1952
 6174TIP3    H240014   2.762   4.887  15.165  2.6677 -1.2121  1.5593
 6175TIP3   OH240015   6.757   0.755  14.971 -0.1116  0.0440  0.3540
 6175TIP3    H140016   6.735   0.770  15.063  0.0266  0.2900  0.3476
 6175TIP3    H240017   6.728   0.835  14.927  0.4463  0.2054  0.2864
 6176TIP3   OH240018   3.214   3.854  14.384  0.0662  0.5697  0.3414
 6176TIP3    H140019   3.142   3.896  14.337  0.4596  0.3713 -0.4572
 6176TIP3    H240020   3.212   3.763  14.356  0.0184  0.3421  1.0759
 6177TIP3   OH240021   0.635   2.544   5.009  0.7645 -0.1065  0.1545
 6177TIP3    H140022   0.696   2.611   4.978 -0.3626  0.7648 -0.2511
 6177TIP3    H240023   0.661   2.464   4.964  0.6755  0.5987 -1.1644
 6178TIP3   OH240024   5.048   2.931  15.881 -0.1741  0.3521  0.1324
 6178TIP3    H140025   5.017   3.022  15.876  2.2204  1.1658 -0.4807
 6178TIP3    H240026   5.098   2.927  15.962 -0.6232 -0.5643  0.3746
 6179TIP3   OH240027   3.539   2.320   1.025  0.0295  0.1058  0.2782
 6179TIP3    H140028   3.568   2.298   1.114  0.0573  1.0508  0.5150
 6179TIP3    H240029   3.544   2.416   1.022 -1.1775  0.1596 -0.3349
 6180TIP3   OH240030   4.070   0.820   1.465  0.2793  0.4143 -0.0660
 6180TIP3    H140031   4.164   0.804   1.461  0.5872  1.4619  2.1822
 6180TIP3    H240032   4.056   0.856   1.553 -2.1863  0.4528 -0.4546
 6181TIP3   OH240033   0.914   0.128  16.168 -0.3380 -0.7759  0.5367
 6181TIP3    H140034   0.935   0.107  16.259  0.2215 -1.6253  0.2215
 6181TIP3    H240035   0.844   0.192  16.174  0.7367  0.3361  1.5973
 6182TIP3   OH240036   5.909   2.582  12.979 -0.6235  0.4034 -0.4263
 6182TIP3    H140037   5.868   2.652  12.928 -0.9186  0.3917 -0.2036
 6182TIP3    H240038   5.881   2.501  12.935 -0.7688  0.4000 -0.3311
 6183TIP3   OH240039   6.108   1.399  15.632 -0.0502  0.9701  0.2121
 6183TIP3    H140040   6.095   1.467  15.698 -1.5485 -1.3948  2.4455
 6183TIP3    H240041   6.019   1.374  15.607  0.4834 -0.6926 -0.0320
 6184TIP3   OH240042   2.533   5.225  15.588 -0.0253 -0.0930 -0.5642
 6184TIP3    H140043   2.557   5.142  15.627 -0.7708  0.8127  1.9422
 6184TIP3    H240044   2.441   5.237  15.613  0.2143  1.6822 -0.4660
 6185TIP3   OH240045   4.220   6.189  11.589  0.2343 -0.1420  0.6839
 6185TIP3    H140046   4.218   6.213  11.497 -0.4125 -1.9530  0.2075
 6185TIP3    H240047   4.310   6.157  11.603  0.2548 -0.1147  0.6135
 6186TIP3   OH240048   5.620   0.528  12.179 -0.5717  0.3916 -0.0689
 6186TIP3    H140049   5.645   0.468  12.108 -1.5366 -0.3804  0.2484
 6186TIP3    H240050   5.685   0.512  12.247  0.4925  1.2918 -0.8555
 6187TIP3   OH240051   3.134   6.654  16.634 -0.3016 -0.1889  0.3586
 6187TIP3    H140052   3.087   6.599  16.571 -0.1046 -0.5934  0.5627
 6187TIP3    H240053   3.198   6.702  16.582  0.6189 -1.3506  0.4037
 6188TIP3   OH240054   0.022   6.614  15.280 -0.9368  0.8211 -0.3152
 6188TIP3    H140055   0.112   6.587  15.296  0.0525  2.8676 -2.2116
 6188TIP3    H240056  -0.026   6.585  15.357  1.3991  0.0002  0.8588
 6189TIP3   OH240057   2.417   0.156  10.909 -0.2158 -0.2086 -0.3672
 6189TIP3    H140058   2.470   0.160  10.830  0.6183  1.4548  0.2412
 6189TIP3    H240059   2.462   0.093  10.965 -0.4626 -0.9231 -0.9738
 6190TIP3   OH240060   6.690   0.946   5.713  0.5511  0.1591 -0.3393
 6190TIP3    H140061   6.611   0.991   5.684 -1.0615 -1.3432  1.6360
 6190TIP3    H240062   6.688   0.953   5.808  2.7214 -0.0548 -0.2596
 6191TIP3   OH240063   4.607   0.076   3.832  0.5061  0.3994 -0.0516
 6191TIP3    H140064   4.677   0.124   3.788  0.6677  0.7792  0.6080
 6191TIP3    H240065   4.571   0.139   3.894 -0.9143  0.4415 -0.9021
 6192TIP3   OH240066   6.790   3.026   5.568  0.3145  0.1639  0.0508
 6192TIP3    H140067   6.791   3.073   5.484  2.7694  1.5423  0.7951
 6192TIP3    H240068   6.726   2.956   5.556  0.6418  0.3266 -2.9782
 6193TIP3   OH240069   0.770   4.172  16.668  0.2320 -0.1219 -0.0809
 6193TIP3    H140070   0.704   4.120  16.713 -0.7482  1.2379  0.0620
 6193TIP3    H240071   0.758   4.261  16.702  2.7741 -0.0322  0.7017
 6194TIP3   OH240072   4.610   1.605   5.125  0.1510  0.4147  0.3054
 6194TIP3    H140073   4.554   1.590   5.201  1.0503  0.1751  0.9367
 6194TIP3    H240074   4.618   1.519   5.084  0.3688  0.3730  0.4356
 6195TIP3   OH240075   6.371   0.133  15.706  0.8329  0.3544  1.0964
 6195TIP3    H140076   6.384   0.227  15.700 -0.3206  0.4517 -0.0612
 6195TIP3    H240077   6.312   0.121  15.780  1.4124  0.4909  1.5864
 6196TIP3   OH240078   4.956   4.130  12.914  0.2357 -0.3319 -0.2830
 6196TIP3    H140079   4.951   4.052  12.969 -0.8927 -1.2560 -1.6848
 6196TIP3    H240080   5.025   4.109  12.850 -0.0582 -0.1797 -0.6501
 6197TIP3   OH240081   4.657   5.288  11.715  0.7522  0.2536 -0.4429
 6197TIP3    H140082   4.740   5.296  11.666  0.7304  0.2912 -0.4756
 6197TIP3    H240083   4.641   5.377  11.747  0.7391  0.2398 -0.4131
 6198TIP3   OH240084   1.724   1.351  13.056 -0.5144 -0.4552  0.1209
 6198TIP3    H140085   1.776   1.428  13.081  0.0794 -0.8231  0.0245
 6198TIP3    H240086   1.782   1.277  13.072 -0.2273 -0.7252 -2.0561
 6199TIP3   OH240087   2.641   2.064  16.575  0.1109 -0.1862  0.7559
 6199TIP3    H140088   2.546   2.075  16.565  0.2536  0.0579 -0.4215
 6199TIP3    H240089   2.663   1.992  16.516  0.6966 -0.0552  0.8141
 6200TIP3   OH240090   2.280   4.726  10.763  0.1351  0.4937 -0.1256
 6200TIP3    H140091   2.311   4.809  10.797  1.6878 -0.1774  0.1208
 6200TIP3    H240092   2.336   4.708  10.688 -1.4139  0.5705 -1.3431
 6201TIP3   OH240093   4.166   0.773  12.462  0.2655 -0.0319 -0.1598
 6201TIP3    H140094   4.077   0.744  12.481  0.2725  0.1837  0.1976
 6201TIP3    H240095   4.171   0.862  12.498  0.9057 -0.3825  0.6065
 6202TIP3   OH240096   3.121   3.953   0.812  0.1955 -0.0369 -0.4115
 6202TIP3    H140097   3.180   3.878   0.803 -1.2198 -0.8817 -3.5677
 6202TIP3    H240098   3.169   4.026   0.772  1.6629  0.8475  2.8594
 6203TIP3   OH240099   1.801   2.672  16.547  0.4625  0.3774  0.3045
 6203TIP3    H140100   1.764   2.693  16.632  0.7668  2.9711 -0.1617
 6203TIP3    H240101   1.784   2.578  16.535 -2.5221  0.6863  1.7476
 6204TIP3   OH240102   0.357   1.184  15.335  0.2894  0.4704 -0.1127
 6204TIP3    H140103   0.280   1.238  15.354  0.5892  0.4791  1.1091
 6204TIP3    H240104   0.427   1.221  15.389  0.1378 -2.0036  1.8746
 6205TIP3   OH240105   0.055   4.457  12.477  0.3431 -0.4204  0.4954
 6205TIP3    H140106   0.103   4.538  12.495  1.1770 -0.0399 -2.9704
 6205TIP3    H240107  -0.037   4.485  12.476  0.6109  0.4817 -0.4977
 6206TIP3   OH240108   6.464   2.051  15.426 -0.4414  0.2115  0.1763
 6206TIP3    H140109   6.380   2.006  15.416 -0.6424  0.7718 -0.7717
 6206TIP3    H240110   6.464   2.117  15.356  0.9896 -0.0825 -0.1160
 6207TIP3   OH240111   6.736   2.647  14.326 -0.7026 -0.1027 -0.2205
 6207TIP3    H140112   6.648   2.672  14.297 -1.6913 -1.3859  1.5167
 6207TIP3    H240113   6.727   2.555  14.351  1.1489 -0.2512 -0.0719
 6208TIP3   OH240114   0.878   2.439  14.903  0.0800 -0.5795  0.2302
 6208TIP3    H140115   0.861   2.415  14.812  0.8390 -0.0574 -0.0501
 6208TIP3    H240116   0.926   2.522  14.898  0.3529 -0.6778  1.0970
 6209TIP3   OH240117   0.653   6.394  12.950  0.1501 -0.5903  0.1062
 6209TIP3    H140118   0.721   6.417  13.013 -0.8256 -0.6938  1.1965
 6209TIP3    H240119   0.578   6.447  12.974 -0.6009 -1.4598 -0.2569
 6210TIP3   OH240120   2.985   1.811   3.566  0.1117 -0.2189  0.1243
 6210TIP3    H140121   2.924   1.744   3.598 -0.8881  0.6666  0.0923
 6210TIP3    H240122   3.070   1.784   3.600 -0.5333 -0.6657  1.4327
 6211TIP3   OH240123   5.137   4.904   1.675  0.2393  0.9611  0.8588
 6211TIP3    H140124   5.215   4.863   1.711 -0.9960  0.2219  2.8135
 6211TIP3    H240125   5.068   4.882   1.738 -1.7094  0.8659 -1.2511
 6212TIP3   OH240126   2.168   3.653   5.641  0.1487 -0.8555 -0.3860
 6212TIP3    H140127   2.091   3.628   5.589 -0.0525 -1.5863  0.2500
 6212TIP3    H240128   2.134   3.664   5.730  0.6228 -0.2920 -0.2721
 6213TIP3   OH240129   4.040   5.951  16.592 -0.2797 -0.7770  0.0953
 6213TIP3    H140130   4.044   5.930  16.685 -0.0817 -0.7535  0.0924
 6213TIP3    H240131   4.056   5.868  16.547  1.5355 -0.4353  0.0900
 6214TIP3   OH240132   3.707   5.748  13.152 -0.0889 -0.7270 -0.3988
 6214TIP3    H140133   3.676   5.822  13.100  1.1540 -1.1695 -1.8266
 6214TIP3    H240134   3.795   5.774  13.180 -0.2290 -1.0535  0.3669
 6215TIP3   OH240135   5.024   3.729   5.041 -0.0945  0.3003  0.2125
 6215TIP3    H140136   5.041   3.823   5.048 -0.7522  0.5123 -1.0030
 6215TIP3    H240137   4.932   3.723   5.016 -0.4483 -0.7110  1.7175
 6216TIP3   OH240138   0.885   0.188  11.703 -0.0162 -0.1672 -0.1840
 6216TIP3    H140139   0.847   0.276  11.703 -0.1497 -0.2259 -0.0356
 6216TIP3    H240140   0.903   0.170  11.611 -0.3465 -0.1414 -0.2536
 6217TIP3   OH240141   1.102   3.268  16.039 -0.0577 -0.2657  0.8752
 6217TIP3    H140142   1.169   3.236  16.099  0.8641  1.6289  0.8723
 6217TIP3    H240143   1.088   3.359  16.064 -0.6300  0.1538 -0.9083
 6218TIP3   OH240144   3.777   1.661   1.189 -0.5235 -0.7057 -0.1739
 6218TIP3    H140145   3.736   1.747   1.178  2.1967  0.5360 -0.9364
 6218TIP3    H240146   3.825   1.668   1.272 -1.4559 -2.0091  0.5010
 6219TIP3   OH240147   4.776   4.013   4.662 -0.2025 -0.0895  0.1012
 6219TIP3    H140148   4.834   4.064   4.719 -0.5323  2.8537 -2.0682
 6219TIP3    H240149   4.834   3.956   4.613  0.7239  1.6536 -0.8685
 6220TIP3   OH240150   4.545   6.113   0.466 -0.5897 -0.3617  0.1864
 6220TIP3    H140151   4.461   6.128   0.510 -1.6959 -0.6944 -1.7180
 6220TIP3    H240152   4.541   6.021   0.439  0.3119 -0.3225 -0.0687
 6221TIP3   OH240153   0.613   5.439   1.074 -0.3860 -0.0474  0.2562
 6221TIP3    H140154   0.555   5.503   1.034 -0.0037  0.1637  0.0423
 6221TIP3    H240155   0.571   5.418   1.158 -1.0409 -0.2854 -0.1290
 6222TIP3   OH240156   1.628   5.485  11.981  0.3636 -0.5957 -0.4319
 6222TIP3    H140157   1.718   5.466  12.009  1.0561  3.6204  0.6107
 6222TIP3    H240158   1.621   5.445  11.894  3.1654 -1.1773 -0.4528
 6223TIP3   OH240159   0.163   2.991  12.331 -0.5719 -0.0684  0.0901
 6223TIP3    H140160   0.243   2.940  12.341 -0.7867 -0.6709 -1.1674
 6223TIP3    H240161   0.193   3.078  12.304 -0.2796  0.0564  0.8224
 6224TIP3   OH240162   5.494   4.808   4.144 -0.5551  0.2429  0.1732
 6224TIP3    H140163   5.460   4.892   4.112  0.9277  0.8837  0.2696
 6224TIP3    H240164   5.529   4.827   4.231  3.5021  0.4636 -1.3984
 6225TIP3   OH240165   4.586   2.357  13.258  0.6073 -0.3932  0.5187
 6225TIP3    H140166   4.521   2.422  13.229  1.2950 -0.7140 -1.7863
 6225TIP3    H240167   4.667   2.382  13.214  1.0100 -2.5021  0.0078
 6226TIP3   OH240168   0.961   5.701   0.969  0.4855 -0.5123  0.6815
 6226TIP3    H140169   0.892   5.642   0.936 -0.5814  1.4299 -0.6504
 6226TIP3    H240170   1.042   5.653   0.953 -0.2671 -1.1888 -1.4190
 6227TIP3   OH240171   2.997   5.293   3.831 -0.2315  0.1006 -0.1725
 6227TIP3    H140172   3.034   5.205   3.840  0.4388  0.4311  0.3581
 6227TIP3    H240173   3.042   5.345   3.897 -2.3846  0.2849  1.2031
 6228TIP3   OH240174   2.056   5.515   1.944  0.1342 -0.1922 -0.0110
 6228TIP3    H140175   2.081   5.425   1.965  1.3987  0.3984  1.1184
 6228TIP3    H240176   2.082   5.527   1.853  0.6974 -0.7120  0.0814
 6229TIP3   OH240177   3.416   0.100   5.697 -0.2022  0.0214 -0.5092
 6229TIP3    H140178   3.425   0.010   5.727  1.1643  0.7766  1.4260
 6229TIP3    H240179   3.379   0.092   5.609  0.7621 -2.4605 -0.7393
 6230TIP3   OH240180   5.085   0.027   5.875  0.2932 -0.2310  0.1696
 6230TIP3    H140181   5.079   0.091   5.804  0.9717 -0.2160  0.1292
 6230TIP3    H240182   5.122   0.075   5.948 -1.2324 -0.0155  0.8217
 6231TIP3   OH240183   2.503   2.740  16.719 -0.7891  0.1289  0.1576
 6231TIP3    H140184   2.580   2.795  16.732 -2.8490  3.0762  0.4983
 6231TIP3    H240185   2.499   2.685  16.797 -0.4795  1.7931  1.3652
 6232TIP3   OH240186   6.319   6.634  13.639  0.3630 -0.5078  0.5856
 6232TIP3    H140187   6.356   6.722  13.649 -2.6200  0.7288  1.2304
 6232TIP3    H240188   6.322   6.597  13.727 -3.6434  1.2006  1.5481
 6233TIP3   OH240189   5.874   1.254   6.311 -0.0362  0.2382  0.2367
 6233TIP3    H140190   5.948   1.194   6.325  1.6430  1.6345 -2.3210
 6233TIP3    H240191   5.797   1.202   6.334  1.5271 -2.2172  0.1446
 6234TIP3   OH240192   0.994   1.992  11.766  0.0494  0.1531  0.5918
 6234TIP3    H140193   1.071   2.022  11.717 -0.6987  0.9320 -0.1215
 6234TIP3    H240194   0.927   1.978  11.698  0.0763 -2.1710  1.0141
 6235TIP3   OH240195   0.875   4.537  15.511 -0.1188  0.1243 -0.2380
 6235TIP3    H140196   0.835   4.512  15.594 -0.9488 -1.4842 -1.1070
 6235TIP3    H240197   0.807   4.585  15.464  0.7104  2.0385  0.4399
 6236TIP3   OH240198   4.726   0.630   4.778  0.2822  0.0271  0.8617
 6236TIP3    H140199   4.817   0.633   4.810  0.4832  0.1361  0.2780
 6236TIP3    H240200   4.700   0.539   4.788  1.0163 -0.3471 -0.5257
 6237TIP3   OH240201   5.638   4.229  14.419 -0.5842 -0.2022 -0.1163
 6237TIP3    H140202   5.547   4.217  14.448 -0.0650  0.0863  1.6654
 6237TIP3    H240203   5.676   4.141  14.426 -0.4076 -0.0971  0.2043
 6238TIP3   OH240204   5.993   6.790   3.714  0.0798  0.2754 -0.1106
 6238TIP3    H140205   5.982   6.882   3.688  0.1563  0.4143  0.3545
 6238TIP3    H240206   6.000   6.792   3.809 -3.3400 -0.5607  0.2331
 6239TIP3   OH240207   3.901   1.516  14.158  0.9780  0.1226  0.5028
 6239TIP3    H140208   3.826   1.457  14.161  0.2210  1.1379  1.8081
 6239TIP3    H240209   3.874   1.586  14.099  0.9947  0.3777  0.8027
 6240TIP3   OH240210   4.354   3.395   1.266 -0.6153 -0.1991 -0.4227
 6240TIP3    H140211   4.278   3.352   1.228 -1.9915  0.7183  1.2639
 6240TIP3    H240212   4.380   3.459   1.200 -1.6087 -0.1455 -0.7701
 6241TIP3   OH240213   1.691   6.805   6.612  0.1332 -0.5288 -0.3557
 6241TIP3    H140214   1.706   6.713   6.633 -0.7998 -1.3086 -2.9078
 6241TIP3    H240215   1.599   6.809   6.585 -0.2436  1.4284  1.1115
 6242TIP3   OH240216   0.560   3.247  14.132  0.2248  0.4629 -0.7591
 6242TIP3    H140217   0.534   3.265  14.041 -1.0428  1.3049 -0.2459
 6242TIP3    H240218   0.542   3.328  14.179  0.9375  0.0530  0.2436
 6243TIP3   OH240219   6.636   1.628  15.571 -0.7481 -0.0760  0.1194
 6243TIP3    H140220   6.697   1.635  15.645  1.4640 -1.7409 -1.4635
 6243TIP3    H240221   6.689   1.653  15.495 -2.3540 -0.5766 -1.1828
 6244TIP3   OH240222   1.452   5.914   4.247 -0.6359  0.1721  0.1980
 6244TIP3    H140223   1.482   5.823   4.246  0.4921  0.5279  0.9592
 6244TIP3    H240224   1.510   5.957   4.309 -2.0328  1.1260  0.8564
 6245TIP3   OH240225   1.944   6.736  10.628 -1.1860  0.0800 -0.1432
 6245TIP3    H140226   1.897   6.801  10.577  1.3853  1.5622 -0.7464
 6245TIP3    H240227   2.025   6.722  10.580  0.1846 -0.3599  2.1877
 6246TIP3   OH240228   0.660   0.024  14.718  0.2118 -0.0476  0.1877
 6246TIP3    H140229   0.603   0.100  14.707 -0.4056 -0.5972 -0.4596
 6246TIP3    H240230   0.741   0.060  14.754 -0.2198  0.8625  0.2624
 6247TIP3   OH240231   2.330   6.719  10.210 -0.1522  0.2154 -0.4646
 6247TIP3    H140232   2.319   6.638  10.261 -0.8821  0.1509 -0.7273
 6247TIP3    H240233   2.280   6.785  10.259  0.8676  0.6373  0.0373
 6248TIP3   OH240234   4.384   2.994  15.499  0.4840  0.4325  0.0669
 6248TIP3    H140235   4.383   2.996  15.404  1.2403 -1.3554  0.0227
 6248TIP3    H240236   4.440   3.067  15.524  0.6661  0.6115 -0.8516
 6249TIP3   OH240237   0.500   5.650  10.898 -0.3405  0.7730 -0.1942
 6249TIP3    H140238   0.583   5.646  10.945  0.1768 -0.1386 -1.1611
 6249TIP3    H240239   0.512   5.592  10.823 -2.4669 -0.8209  0.6441
 6250TIP3   OH240240   2.536   1.408   0.074 -0.0761  0.3642 -0.2883
 6250TIP3    H140241   2.553   1.434   0.164 -0.0594  1.2339 -0.5422
 6250TIP3    H240242   2.613   1.356   0.049  0.8883  1.8744 -0.4890
 6251TIP3   OH240243   3.286   1.424   0.566 -0.1485 -0.1967  0.6468
 6251TIP3    H140244   3.269   1.461   0.653  0.4784 -1.0428  1.1358
 6251TIP3    H240245   3.222   1.466   0.509 -0.1452  0.8493  1.3951
 6252TIP3   OH240246   1.156   4.596  11.606  0.7034 -0.2550  0.3215
 6252TIP3    H140247   1.238   4.615  11.560 -0.5803 -0.5745 -2.1667
 6252TIP3    H240248   1.100   4.671  11.586  0.2799 -0.1780  1.7676
 6253TIP3   OH240249   5.326   2.209  15.874 -0.0762  0.0116 -0.5554
 6253TIP3    H140250   5.392   2.145  15.847 -1.2032 -0.3813 -2.5099
 6253TIP3    H240251   5.374   2.292  15.881  1.2818 -0.9123  1.4723
 6254TIP3   OH240252   6.696   0.467  13.050  0.1475 -0.0673  0.6497
 6254TIP3    H140253   6.790   0.483  13.044  0.1254 -0.6121 -1.5983
 6254TIP3    H240254   6.657   0.542  13.005 -0.4221 -0.6877  0.1182
 6255TIP3   OH240255   2.767   4.645  13.565 -0.1148  0.4234 -0.4498
 6255TIP3    H140256   2.704   4.615  13.499  0.8109  0.0366 -1.1601
 6255TIP3    H240257   2.736   4.605  13.647 -1.9362  1.8357 -0.4113
 6256TIP3   OH240258   6.456   0.754   4.733  0.2074 -0.7037 -0.1050
 6256TIP3    H140259   6.498   0.701   4.665  1.2527  1.9198 -1.5930
 6256TIP3    H240260   6.367   0.767   4.701  1.1674  1.9309 -1.9292
 6257TIP3   OH240261   6.467   1.120   0.216 -0.0584 -0.0119 -0.2552
 6257TIP3    H140262   6.422   1.048   0.260 -0.7063  1.0101  0.7764
 6257TIP3    H240263   6.473   1.188   0.282  0.7581  0.8049 -1.1582
 6258TIP3   OH240264   3.328   4.175  10.735  0.4115 -0.0185 -0.4548
 6258TIP3    H140265   3.302   4.264  10.709  0.0840  0.6979  2.2092
 6258TIP3    H240266   3.404   4.156  10.680  1.1148  2.3163 -0.3607
 6259TIP3   OH240267   0.571   1.197  14.298  0.0288  0.3537 -0.5141
 6259TIP3    H140268   0.653   1.219  14.254  0.4060  0.7530  0.3872
 6259TIP3    H240269   0.592   1.198  14.391 -1.4358  2.2513 -0.1802
 6260TIP3   OH240270   1.016   5.280   1.907  0.1177 -0.0033  0.1129
 6260TIP3    H140271   1.105   5.273   1.873  1.1777  1.9272  2.3570
 6260TIP3    H240272   1.025   5.272   2.002 -1.8264  2.0898  0.5312
 6261TIP3   OH240273   5.919   5.499  16.625  0.4286  0.1206  0.0306
 6261TIP3    H140274   6.012   5.506  16.648  0.5471  0.3849 -0.5197
 6261TIP3    H240275   5.877   5.572  16.670  0.3336 -0.5603  1.0638
 6262TIP3   OH240276   1.650   0.034   1.586  0.5150  0.2575 -0.1683
 6262TIP3    H140277   1.586  -0.034   1.609  0.9634  0.4047  1.5981
 6262TIP3    H240278   1.597   0.102   1.543 -0.0599 -0.8291 -1.2229
 6263TIP3   OH240279   3.605   2.927   2.900  0.0598 -0.6927  0.0300
 6263TIP3    H140280   3.511   2.911   2.892 -0.1281  0.7818 -0.8063
 6263TIP3    H240281   3.627   2.897   2.988 -1.7683  1.6264  1.3219
 6264TIP3   OH240282   1.602   5.442   1.410  0.2887  0.6961  0.0890
 6264TIP3    H140283   1.559   5.459   1.493  1.1382  2.8595  0.1242
 6264TIP3    H240284   1.532   5.412   1.352 -0.5365  0.4605  1.1927
 6265TIP3   OH240285   2.753   0.745   5.239 -0.4195  0.2000  0.2837
 6265TIP3    H140286   2.683   0.798   5.201 -1.2353 -0.0110  1.4512
 6265TIP3    H240287   2.723   0.655   5.232  1.5972 -0.2770 -2.9800
 6266TIP3   OH240288   0.932   4.218  12.113 -0.4247  0.1390 -0.0803
 6266TIP3    H140289   0.839   4.237  12.096 -0.4756  0.2935  0.3623
 6266TIP3    H240290   0.962   4.171  12.035 -1.7274 -2.8957  1.1639
 6267TIP3   OH240291   3.348   3.808   1.315  0.0246 -0.0941  0.2128
 6267TIP3    H140292   3.266   3.767   1.342  0.3411 -1.6726 -1.1428
 6267TIP3    H240293   3.329   3.902   1.315 -1.7365 -0.4336  0.0484
 6268TIP3   OH240294   4.710   6.379  11.005 -0.4165  0.1273  0.0127
 6268TIP3    H140295   4.616   6.361  11.008 -0.1272 -1.7841 -1.2771
 6268TIP3    H240296   4.738   6.345  10.920  1.8146 -1.1510  1.2270
 6269TIP3   OH240297   3.678   3.182  12.248  0.0842 -0.5816  0.5420
 6269TIP3    H140298   3.761   3.229  12.239  0.4961 -1.2249  0.9280
 6269TIP3    H240299   3.650   3.165  12.158 -0.0988  0.4598  0.4045
 6270TIP3   OH240300   1.967   5.960  15.799 -0.1977  0.1371  0.2561
 6270TIP3    H140301   2.002   5.935  15.884  0.0258 -0.6095 -0.0486
 6270TIP3    H240302   2.040   5.949  15.739  0.0836  2.1378  0.2098
 6271TIP3   OH240303   2.628   3.867  13.160  0.4696 -0.7745  0.2252
 6271TIP3    H140304   2.606   3.950  13.117 -0.1918 -1.6158 -1.1192
 6271TIP3    H240305   2.642   3.890  13.251 -1.4995  0.5447  0.2214
 6272TIP3   OH240306   1.883   3.020  13.028 -0.0017  0.0329 -0.0203
 6272TIP3    H140307   1.852   2.983  12.945 -1.1485 -1.9664  1.2418
 6272TIP3    H240308   1.834   2.971  13.095  1.3944  1.1446  1.8492
 6273TIP3   OH240309   6.306   0.751   1.274  0.5835  0.0406  0.2363
 6273TIP3    H140310   6.268   0.806   1.205  0.9525  1.1295  0.8814
 6273TIP3    H240311   6.400   0.767   1.268  0.7905 -1.2530 -0.1708
 6274TIP3   OH240312   2.634   1.721   2.363 -0.3525 -0.3703 -0.0310
 6274TIP3    H140313   2.562   1.665   2.334 -1.0985  0.5089  0.0815
 6274TIP3    H240314   2.597   1.810   2.363  0.5403  0.0163  0.6433
 6275TIP3   OH240315   2.438   3.645  16.869 -0.5800  0.1020 -0.1348
 6275TIP3    H140316   2.456   3.556  16.900  1.2711  0.5056  0.0188
 6275TIP3    H240317   2.446   3.639  16.774 -0.8053  0.0463 -0.1519
 6276TIP3   OH240318   5.355   4.149   4.629  0.7649  0.3901  0.5857
 6276TIP3    H140319   5.358   4.243   4.642  0.7220  0.2143  1.9696
 6276TIP3    H240320   5.277   4.121   4.677 -0.1753 -0.1548 -1.1799
 6277TIP3   OH240321   6.282   5.482   0.800  0.6716  0.4887  0.5940
 6277TIP3    H140322   6.213   5.489   0.735  1.4011 -0.1713 -0.2795
 6277TIP3    H240323   6.331   5.404   0.774  1.1479  0.3809  1.7735
 6278TIP3   OH240324   5.297   2.648  12.418 -0.2208  0.0845  0.0015
 6278TIP3    H140325   5.361   2.659  12.489 -0.2859 -0.1930  0.1025
 6278TIP3    H240326   5.286   2.554  12.410  0.4836  0.0934 -1.0102
 6279TIP3   OH240327   5.230   6.289  14.742 -0.0556 -0.2668  0.1920
 6279TIP3    H140328   5.162   6.356  14.740  0.0693 -0.1596 -0.7537
 6279TIP3    H240329   5.306   6.333  14.782 -0.1622 -0.0239  0.1290
 6280TIP3   OH240330   2.338   3.062  16.764  0.0113 -0.6528  0.1941
 6280TIP3    H140331   2.407   3.028  16.822 -0.6511 -1.7784  0.3199
 6280TIP3    H240332   2.377   3.060  16.677  0.7031  0.2283  0.4641
 6281TIP3   OH240333   6.571   3.268  11.911  0.3525  0.1962 -0.3852
 6281TIP3    H140334   6.524   3.201  11.862  0.2261  0.2426 -0.3262
 6281TIP3    H240335   6.589   3.336  11.846  1.5337 -0.4286 -0.7161
 6282TIP3   OH240336   3.041   6.241   1.842  0.2803 -0.2267 -0.5542
 6282TIP3    H140337   3.050   6.305   1.771 -0.2279  0.6873  0.1856
 6282TIP3    H240338   2.996   6.167   1.802  0.0228  0.2705 -1.1969
 6283TIP3   OH240339   6.385   3.211  14.336  0.4955 -0.3111  0.2318
 6283TIP3    H140340   6.329   3.285  14.358 -0.0302 -1.2386  2.1593
 6283TIP3    H240341   6.464   3.225  14.389  0.7788 -0.6502 -0.0997
 6284TIP3   OH240342   1.200   6.773   5.137 -0.5095  0.5223  0.2863
 6284TIP3    H140343   1.190   6.694   5.190  2.5534 -0.5707 -0.6817
 6284TIP3    H240344   1.281   6.813   5.167  1.5959 -0.3874 -3.7932
 6285TIP3   OH240345   3.660   0.744  11.370 -0.6491 -0.3383  0.0492
 6285TIP3    H140346   3.710   0.816  11.407 -0.1686 -0.5732 -0.1494
 6285TIP3    H240347   3.725   0.677  11.349 -1.2088 -1.2624  1.2253
 6286TIP3   OH240348   1.983   5.570  14.783 -0.3765  0.0718  0.0659
 6286TIP3    H140349   1.916   5.512  14.745 -0.1814  0.3579 -0.7396
 6286TIP3    H240350   2.014   5.621  14.708  1.0697 -0.3815  0.3425
 6287TIP3   OH240351   6.663   6.814   4.912 -0.2452  0.2380 -0.3105
 6287TIP3    H140352   6.700   6.891   4.869 -0.7528  0.9887  0.5871
 6287TIP3    H240353   6.641   6.843   5.001 -2.0160 -0.4679 -0.4812
 6288TIP3   OH240354   6.605   0.489   6.412  0.2607  0.3789 -0.3704
 6288TIP3    H140355   6.591   0.410   6.361  1.5273  0.4004 -0.7591
 6288TIP3    H240356   6.688   0.476   6.456  0.0520  1.1232  0.2682
 6289TIP3   OH240357   0.077   1.570   3.010  0.1771 -0.1560  0.9464
 6289TIP3    H140358   0.074   1.566   2.914  0.7986 -1.2225  0.9590
 6289TIP3    H240359   0.170   1.579   3.030 -0.0197  0.8097  1.4304
 6290TIP3   OH240360   4.899   1.048  16.154 -0.4482  0.2033  0.5759
 6290TIP3    H140361   4.908   1.104  16.077  1.1126 -0.3698  0.3271
 6290TIP3    H240362   4.884   0.961  16.118  1.3393 -0.2395  0.9102
 6291TIP3   OH240363   5.304   3.756   6.470 -0.8651 -0.1406  0.0081
 6291TIP3    H140364   5.283   3.774   6.378 -4.9447 -3.7542  0.0510
 6291TIP3    H240365   5.225   3.781   6.518  1.4658  2.4182  2.7867
 6292TIP3   OH240366   1.932   5.992  17.236  0.1975  0.2164 -0.0566
 6292TIP3    H140367   1.979   6.070  17.207  0.2076  1.5982  3.3811
 6292TIP3    H240368   1.847   6.025  17.265  0.0971 -1.0886  1.1718
 6293TIP3   OH240369   2.049   1.914   0.637 -0.5581 -0.2807 -0.0407
 6293TIP3    H140370   2.057   1.843   0.574 -1.5014  0.4593 -1.0069
 6293TIP3    H240371   1.956   1.917   0.658 -0.6856  1.2821 -0.7514
 6294TIP3   OH240372   0.412   0.150  13.610  0.1169  0.0363 -0.4440
 6294TIP3    H140373   0.448   0.191  13.689  1.5782 -1.0271 -0.5347
 6294TIP3    H240374   0.489   0.117  13.564 -0.9969 -2.3848 -0.5954
 6295TIP3   OH240375   4.478   3.046   4.706  0.2811  0.0243  0.0184
 6295TIP3    H140376   4.422   3.119   4.731 -0.5997 -0.9164  0.8348
 6295TIP3    H240377   4.567   3.083   4.705 -0.3371  1.5259 -1.3262
 6296TIP3   OH240378   4.405   6.537  13.599 -0.3975 -1.1083  0.1976
 6296TIP3    H140379   4.310   6.522  13.603 -0.6563  0.7347  1.6331
 6296TIP3    H240380   4.436   6.515  13.686  0.2010  0.1431  0.3045
 6297TIP3   OH240381   2.683   1.915   1.076 -0.1911  0.0628  0.8686
 6297TIP3    H140382   2.773   1.894   1.104  0.4128  0.1529 -0.9316
 6297TIP3    H240383   2.646   1.830   1.052 -0.1393  0.1786  0.3709
 6298TIP3   OH240384   1.306   2.499   3.897  0.4541 -0.2541  0.3944
 6298TIP3    H140385   1.330   2.453   3.817  1.6657  0.4121  0.3678
 6298TIP3    H240386   1.307   2.432   3.965  2.4857 -0.2326  0.4111
 6299TIP3   OH240387   2.620   0.980   2.290 -0.0870 -0.1886  0.6776
 6299TIP3    H140388   2.645   1.060   2.245  0.6832 -0.9585 -0.2816
 6299TIP3    H240389   2.612   1.005   2.382 -2.0696  1.4939  0.0751
 6300TIP3   OH240390   0.306   1.122   6.196 -0.6695 -0.5201  0.1838
 6300TIP3    H140391   0.219   1.140   6.232 -0.3368  0.3170  0.5971
 6300TIP3    H240392   0.361   1.110   6.273 -0.0340  0.8704 -0.0293
 6301TIP3   OH240393   5.278   0.508   2.032  0.2076 -0.2824 -0.1682
 6301TIP3    H140394   5.352   0.501   1.972 -0.9655  1.4766 -1.8864
 6301TIP3    H240395   5.313   0.482   2.117  2.2863 -1.3655 -1.3261
 6302TIP3   OH240396   3.146   6.222   4.941 -0.4132 -0.4998  0.3578
 6302TIP3    H140397   3.098   6.304   4.945 -0.3632 -0.3177 -2.0853
 6302TIP3    H240398   3.118   6.181   4.859  2.4845 -1.0758 -0.4097
 6303TIP3   OH240399   1.615   4.551  12.632 -0.8196  0.4288  0.2178
 6303TIP3    H140400   1.560   4.621  12.597 -1.6308 -0.0044  0.6054
 6303TIP3    H240401   1.651   4.587  12.714  0.1783  1.0261 -0.4687
 6304TIP3   OH240402   1.502   6.705   2.133  0.0462 -0.5480 -0.1573
 6304TIP3    H140403   1.470   6.694   2.222 -0.2697 -0.2576 -0.2332
 6304TIP3    H240404   1.583   6.653   2.129  0.0508 -0.5717  0.2905
 6305TIP3   OH240405   6.656   5.773  15.145  0.3149  0.6373  0.5390
 6305TIP3    H140406   6.684   5.827  15.219 -1.2206  1.0389  0.8596
 6305TIP3    H240407   6.573   5.813  15.117 -0.7479 -1.4300  0.6611
 6306TIP3   OH240408   1.532   1.334  16.213  0.2263 -0.3396  0.1568
 6306TIP3    H140409   1.522   1.283  16.133 -0.1459  0.9980 -0.6751
 6306TIP3    H240410   1.456   1.393  16.213  0.2514 -0.2919  1.4626
 6307TIP3   OH240411   6.769   6.394  16.932  0.8394  0.2239 -0.0275
 6307TIP3    H140412   6.838   6.362  16.874  2.5395  0.4916  1.7594
 6307TIP3    H240413   6.802   6.478  16.965 -0.0904  0.1015  1.2791
 6308TIP3   OH240414   1.559   1.383  12.238  0.4308 -0.6209  0.1132
 6308TIP3    H140415   1.470   1.416  12.229  0.1921 -0.0779  3.9275
 6308TIP3    H240416   1.610   1.434  12.175 -1.7075 -0.1596 -1.3039
 6309TIP3   OH240417   6.005   5.901  11.344 -0.2260 -0.4363 -0.1200
 6309TIP3    H140418   6.052   5.893  11.261 -0.8153  3.5506 -0.9048
 6309TIP3    H240419   6.027   5.821  11.391  1.9732 -1.7174 -3.1652
 6310TIP3   OH240420   1.874   4.322   3.384  0.4745  0.6692 -0.1244
 6310TIP3    H140421   1.948   4.319   3.443  0.1308  0.1602  0.2818
 6310TIP3    H240422   1.842   4.232   3.380  0.2589  0.7699 -0.7798
 6311TIP3   OH240423   1.383   2.329  10.431  0.1351  0.2775 -0.5040
 6311TIP3    H140424   1.451   2.334  10.364 -2.1683  0.7767 -2.9184
 6311TIP3    H240425   1.301   2.338  10.382 -1.6173  1.1419  2.4716
 6312TIP3   OH240426   5.331   4.080  11.394 -0.0609  0.3568 -0.5411
 6312TIP3    H140427   5.282   4.002  11.366  0.5540 -0.0777 -0.4272
 6312TIP3    H240428   5.342   4.068  11.489 -2.2690  1.8904 -0.0524
 6313TIP3   OH240429   2.775   0.193  15.746 -0.4072  0.3409 -0.2810
 6313TIP3    H140430   2.702   0.178  15.806  1.3441 -4.2040  0.9021
 6313TIP3    H240431   2.737   0.179  15.659 -1.6708  1.5270  0.0448
 6314TIP3   OH240432   5.438   0.013   5.366  0.1965 -0.0116 -0.5050
 6314TIP3    H140433   5.488   0.091   5.340  0.8170 -0.5889 -1.0613
 6314TIP3    H240434   5.495  -0.060   5.342 -0.2592 -0.6286  0.2836
 6315TIP3   OH240435   4.253   0.863  10.250  0.0456 -0.3402 -0.5275
 6315TIP3    H140436   4.231   0.778  10.213 -0.6677  0.3905 -1.8264
 6315TIP3    H240437   4.169   0.900  10.279  0.2334  0.2767 -0.7525
 6316TIP3   OH240438   5.551   4.655   5.278  0.0264  1.3343 -1.2551
 6316TIP3    H140439   5.562   4.686   5.188  0.8416  0.8580 -1.3229
 6316TIP3    H240440   5.633   4.612   5.299 -0.6556  0.2660 -0.7379
 6317TIP3   OH240441   3.721   2.848   3.143 -0.1297  0.0493 -0.2976
 6317TIP3    H140442   3.728   2.928   3.195 -2.3533 -1.1407  1.8806
 6317TIP3    H240443   3.720   2.777   3.207  0.7710 -1.6930 -2.1579
 6318TIP3   OH240444   6.547   6.355   0.336  0.3591 -0.0357  0.4397
 6318TIP3    H140445   6.462   6.310   0.337  0.5535 -0.4223 -0.1495
 6318TIP3    H240446   6.533   6.433   0.282 -0.1341  0.9313  1.9461
 6319TIP3   OH240447   1.888   1.930  11.541  0.3977 -0.1708 -0.3726
 6319TIP3    H140448   1.951   1.992  11.577  0.8326  0.1558 -1.7107
 6319TIP3    H240449   1.935   1.886  11.471  0.4085 -2.6679  1.1264
 6320TIP3   OH240450   1.252   2.122  16.378  0.2685 -0.1237  0.1386
 6320TIP3    H140451   1.287   2.099  16.292  3.3306  0.8560  1.0695
 6320TIP3    H240452   1.192   2.050  16.400  3.7632 -3.3252 -0.3557
 6321TIP3   OH240453   3.357   1.266  12.237  0.2663  0.0762 -0.4842
 6321TIP3    H140454   3.366   1.360  12.222 -0.3290  0.0503 -1.0096
 6321TIP3    H240455   3.359   1.257  12.333 -0.8523  0.7434 -0.3973
 6322TIP3   OH240456   6.270   5.151   3.162 -0.0907  0.2389 -0.4927
 6322TIP3    H140457   6.298   5.060   3.170 -1.2412  0.0531  1.6698
 6322TIP3    H240458   6.306   5.179   3.078  1.8095 -1.6502 -0.3611
 6323TIP3   OH240459   2.295   0.263  16.539  0.2273  0.5420 -0.1475
 6323TIP3    H140460   2.233   0.239  16.470  0.7265 -1.0242 -0.0669
 6323TIP3    H240461   2.309   0.357  16.527  0.1388  0.3284 -2.0529
 6324TIP3   OH240462   6.016   0.285  16.043  0.1933  0.6374 -0.4613
 6324TIP3    H140463   5.975   0.208  16.003 -1.2331  0.5184  1.1221
 6324TIP3    H240464   5.943   0.345  16.059  0.8399  1.0664  1.0238
 6325TIP3   OH240465   0.476   1.915  13.869  0.2432  0.2047 -0.0786
 6325TIP3    H140466   0.460   1.827  13.902 -0.4534  0.3090 -0.1316
 6325TIP3    H240467   0.570   1.917  13.850  0.1448 -0.7154 -0.6584
 6326TIP3   OH240468   2.444   4.690  12.487 -0.0135  0.7635 -0.0241
 6326TIP3    H140469   2.351   4.670  12.498 -0.0574  0.7310 -0.4626
 6326TIP3    H240470   2.471   4.726  12.572  0.1607 -1.4852  0.9055
 6327TIP3   OH240471   4.307   1.969   2.174 -0.3337  0.5677  0.5086
 6327TIP3    H140472   4.371   1.900   2.158 -1.5572 -0.1632 -1.3541
 6327TIP3    H240473   4.358   2.040   2.212  1.1764 -0.8484  1.1986
 6328TIP3   OH240474   5.918   2.212   1.713  0.0184  0.4509 -0.1214
 6328TIP3    H140475   5.993   2.258   1.676  0.6897  0.1290  0.8048
 6328TIP3    H240476   5.901   2.257   1.796 -1.4392  1.1474 -0.7735
 6329TIP3   OH240477   6.729   1.671  13.391  0.1034  0.0570 -0.4948
 6329TIP3    H140478   6.665   1.602  13.380 -1.3954  0.9633  2.0556
 6329TIP3    H240479   6.696   1.744  13.338  0.9816 -0.6977 -2.1085
 6330TIP3   OH240480   2.242   0.173  10.381  0.1740 -0.1995  0.1517
 6330TIP3    H140481   2.329   0.204  10.356  0.1165 -0.0062  0.1860
 6330TIP3    H240482   2.194   0.253  10.402 -0.4007 -0.1989 -1.0899
 6331TIP3   OH240483   4.957   5.621   5.817  0.3328  0.3179  0.2199
 6331TIP3    H140484   4.890   5.649   5.754  0.5738 -1.5495 -0.9166
 6331TIP3    H240485   4.913   5.625   5.902  0.1349  3.2996  0.0423
 6332TIP3   OH240486   5.916   0.024   2.509  0.2024  0.2360  0.5740
 6332TIP3    H140487   5.837   0.002   2.559 -0.1909 -0.9072 -0.5463
 6332TIP3    H240488   5.963  -0.059   2.499  0.9049  0.6787  0.1185
 6333TIP3   OH240489   2.258   1.154  11.797  0.3979 -0.1213 -0.2626
 6333TIP3    H140490   2.238   1.113  11.881  1.0879  0.3913  0.1570
 6333TIP3    H240491   2.176   1.193  11.768 -0.2089 -1.6082 -0.5584
 6334TIP3   OH240492   5.747   4.827  16.591  0.1753 -0.3272 -0.4387
 6334TIP3    H140493   5.814   4.889  16.562  0.7292 -0.0989  1.2848
 6334TIP3    H240494   5.664   4.871  16.572  0.4978 -0.2666 -1.8200
 6335TIP3   OH240495   2.581   5.735   3.450  0.1313  0.3421 -0.6956
 6335TIP3    H140496   2.659   5.784   3.476  1.2565 -0.4887 -2.4122
 6335TIP3    H240497   2.523   5.740   3.526  1.7256  1.2353  0.4961
 6336TIP3   OH240498   3.198   4.521   0.087 -0.0569 -0.8395  0.1548
 6336TIP3    H140499   3.154   4.589   0.036 -0.1064 -0.2753  0.9576
 6336TIP3    H240500   3.161   4.528   0.175  1.3298 -0.6393  0.7320
 6337TIP3   OH240501   5.823   0.183  11.756 -0.1963 -0.7095  0.3717
 6337TIP3    H140502   5.733   0.153  11.742 -1.2986  1.7504  1.8095
 6337TIP3    H240503   5.848   0.223  11.672 -0.7353 -0.6881  0.2200
 6338TIP3   OH240504   5.640   0.632  15.640  0.3383  0.3122  0.2769
 6338TIP3    H140505   5.677   0.606  15.556 -0.2461 -0.9864  0.4067
 6338TIP3    H240506   5.575   0.564  15.660 -1.5575  2.1104  0.4391
 6339TIP3   OH240507   2.899   2.541   3.982 -0.5507 -0.8303 -0.2053
 6339TIP3    H140508   2.943   2.612   3.936  0.0538 -1.7206 -1.0161
 6339TIP3    H240509   2.929   2.549   4.073 -1.3992  0.6487 -0.0275
 6340TIP3   OH240510   3.381   1.658   1.316  0.7519 -0.5794 -0.2201
 6340TIP3    H140511   3.441   1.703   1.375  0.2097 -0.3337  0.1394
 6340TIP3    H240512   3.396   1.699   1.231  0.6087 -0.0564  0.0079
 6341TIP3   OH240513   5.291   5.282  11.087 -0.5554  0.1108  0.4969
 6341TIP3    H140514   5.289   5.283  10.991 -0.2360 -1.2225  0.4666
 6341TIP3    H240515   5.244   5.203  11.111 -0.9245  0.6237  1.4575
 6342TIP3   OH240516   5.093   3.783   3.854 -0.4931  0.6022  0.0909
 6342TIP3    H140517   5.172   3.821   3.815 -1.1870 -0.6900 -2.6205
 6342TIP3    H240518   5.047   3.858   3.892  1.1691  1.6032  0.1596
 6343TIP3   OH240519   5.799   5.911   2.833 -0.1517 -0.1043 -0.2227
 6343TIP3    H140520   5.848   5.839   2.793 -0.6940 -0.3128 -0.5221
 6343TIP3    H240521   5.835   5.990   2.793 -0.8266 -0.3264 -1.2731
 6344TIP3   OH240522   0.869   3.069  16.211  0.7260  0.3671  0.0140
 6344TIP3    H140523   0.915   3.146  16.242  2.5649 -1.0815  0.9607
 6344TIP3    H240524   0.856   3.085  16.117  0.7400  1.9678  0.2701
 6345TIP3   OH240525   3.464   4.319  14.526 -0.1107 -0.0401  0.0850
 6345TIP3    H140526   3.464   4.239  14.472  1.0086 -0.1258  0.2126
 6345TIP3    H240527   3.556   4.340  14.538 -0.4188  1.8062 -0.7057
 6346TIP3   OH240528   4.380   6.656   4.311  0.6088  0.3015 -0.0159
 6346TIP3    H140529   4.438   6.724   4.345 -0.8103  2.0336 -0.9750
 6346TIP3    H240530   4.426   6.574   4.328  2.3626  1.5059  1.1356
 6347TIP3   OH240531   5.294   0.682  14.162 -0.3150  0.3581 -0.3575
 6347TIP3    H140532   5.300   0.698  14.068  2.7427  1.7483  0.0305
 6347TIP3    H240533   5.379   0.645  14.186 -1.4320 -0.9678  1.6893
 6348TIP3   OH240534   6.214   1.663  14.309 -0.1745  0.2825  0.5648
 6348TIP3    H140535   6.286   1.617  14.352 -0.0271  2.1049  2.3411
 6348TIP3    H240536   6.229   1.755  14.328 -2.0424  0.8371 -0.4885
 6349TIP3   OH240537   6.242   5.211   0.397 -0.1876  0.2656 -0.2129
 6349TIP3    H140538   6.330   5.174   0.406 -0.3047 -0.2076 -0.9680
 6349TIP3    H240539   6.254   5.305   0.414  1.3333  1.0375 -4.7522
 6350TIP3   OH240540   2.684   3.953  11.401 -0.6281  0.4216 -0.1886
 6350TIP3    H140541   2.702   3.997  11.484 -2.1554 -0.6059  0.7123
 6350TIP3    H240542   2.622   4.011  11.357 -0.9468  0.2536  0.0358
 6351TIP3   OH240543   5.710   5.331  11.788 -0.3533  0.3772 -0.2467
 6351TIP3    H140544   5.704   5.293  11.701  1.3838  0.3551 -0.3693
 6351TIP3    H240545   5.653   5.408  11.785 -1.0613 -0.1777 -1.0912
 6352TIP3   OH240546   0.163   1.940   1.653 -0.6346  0.1426 -0.1666
 6352TIP3    H140547   0.094   1.922   1.717  0.6257  0.5306  1.3121
 6352TIP3    H240548   0.139   1.886   1.577 -1.3086 -1.5015  1.1784
 6353TIP3   OH240549   1.769   4.313  11.927  0.7432  0.0349  0.3555
 6353TIP3    H140550   1.788   4.296  11.835  1.8466  0.6534  0.4542
 6353TIP3    H240551   1.691   4.261  11.946 -0.6179  1.3633 -1.4286
 6354TIP3   OH240552   6.488   4.832   5.078  0.0797  0.1006 -0.4966
 6354TIP3    H140553   6.576   4.856   5.048  0.2594 -0.2533 -0.2589
 6354TIP3    H240554   6.480   4.873   5.164  1.4591 -2.9658  1.1724
 6355TIP3   OH240555   4.537   4.489  15.539  0.4600 -0.5164 -0.0859
 6355TIP3    H140556   4.474   4.450  15.601 -1.2953  0.5485 -1.1791
 6355TIP3    H240557   4.526   4.437  15.459 -0.3666  0.8494 -0.8681
 6356TIP3   OH240558   5.564   4.455   2.391 -0.4517  0.6960 -0.4599
 6356TIP3    H140559   5.489   4.486   2.341 -1.1714 -0.4504 -0.0950
 6356TIP3    H240560   5.571   4.517   2.464 -0.4361  1.3742 -1.0333
 6357TIP3   OH240561   2.971   6.321   4.220  0.2816  0.3129  0.7610
 6357TIP3    H140562   3.019   6.323   4.138 -2.2962  1.7435 -0.7679
 6357TIP3    H240563   2.879   6.313   4.194 -0.6976  2.2324  3.4515
 6358TIP3   OH240564   6.598   2.186  11.459  0.8004 -0.7275  0.2361
 6358TIP3    H140565   6.636   2.272  11.445  0.6366 -0.6591  0.2204
 6358TIP3    H240566   6.507   2.202  11.484  0.9629 -0.8614  0.9459
 6359TIP3   OH240567   4.663   5.358  14.691  0.0802 -0.4158 -0.2839
 6359TIP3    H140568   4.604   5.399  14.628 -1.8305 -2.9204 -0.1988
 6359TIP3    H240569   4.629   5.384  14.777  0.8905  0.5272 -0.2326
 6360TIP3   OH240570   6.159   3.790  16.214 -0.2813  0.0798 -0.7045
 6360TIP3    H140571   6.207   3.867  16.182  0.9252 -0.4668 -0.2425
 6360TIP3    H240572   6.090   3.827  16.268 -1.2418  0.9338 -2.4830
 6361TIP3   OH240573   4.810   4.616   4.902  0.2482 -1.4954  0.9727
 6361TIP3    H140574   4.882   4.633   4.962  0.6679 -2.4770  0.7537
 6361TIP3    H240575   4.845   4.553   4.839 -0.3746 -0.9370  0.0509
 6362TIP3   OH240576   0.360   0.193   6.766  0.0082  0.0108  0.6795
 6362TIP3    H140577   0.414   0.166   6.692  0.4823  0.7410  0.7498
 6362TIP3    H240578   0.274   0.155   6.748 -0.7808  2.8090 -1.9096
 6363TIP3   OH240579   2.543   2.519  16.040  0.1808 -0.5283 -0.4133
 6363TIP3    H140580   2.559   2.425  16.037  2.2498 -0.2254  0.1334
 6363TIP3    H240581   2.506   2.535  16.127  0.2526 -0.7668 -0.3382
 6364TIP3   OH240582   4.330   5.294  14.583  0.7537  0.5372  0.3967
 6364TIP3    H140583   4.355   5.217  14.635  0.6283 -0.7325 -1.3577
 6364TIP3    H240584   4.264   5.338  14.636  0.7200 -0.6623  1.3820
 6365TIP3   OH240585   5.737   6.172   1.499  0.0885 -0.3436  0.2130
 6365TIP3    H140586   5.824   6.174   1.459 -0.7911 -3.1100 -1.9724
 6365TIP3    H240587   5.750   6.126   1.582  0.9405  0.6423  0.6483
 6366TIP3   OH240588   4.185   1.887  13.109 -0.3317 -0.4153 -0.1029
 6366TIP3    H140589   4.131   1.859  13.035 -0.2154  1.2001 -0.8166
 6366TIP3    H240590   4.133   1.955  13.152  1.4199  1.6507 -1.2108
 6367TIP3   OH240591   0.084   3.567  12.225 -0.3120  0.1403  0.0345
 6367TIP3    H140592   0.010   3.517  12.259 -1.6259  1.6566 -0.5378
 6367TIP3    H240593   0.081   3.556  12.131  0.2365  0.1534  0.0094
 6368TIP3   OH240594   4.544   0.286  13.623 -0.5353  0.1771 -0.0118
 6368TIP3    H140595   4.607   0.339  13.672  0.8479 -1.0530 -0.4176
 6368TIP3    H240596   4.529   0.210  13.678  1.3282 -1.4080 -1.6170
 6369TIP3   OH240597   5.951   6.029  12.213 -0.0638  0.2511  0.1560
 6369TIP3    H140598   5.938   5.934  12.213 -0.2475  0.2780 -0.1993
 6369TIP3    H240599   5.960   6.051  12.306 -1.8033  0.1241  0.3821
 6370TIP3   OH240600   6.435   2.042   2.944  1.0249  0.1277 -0.1494
 6370TIP3    H140601   6.462   2.074   3.031  0.4231 -0.0555  0.1054
 6370TIP3    H240602   6.382   1.964   2.962 -0.1549  0.8069 -0.6072
 6371TIP3   OH240603   3.137   5.985   0.023 -0.1482 -0.1061 -0.7650
 6371TIP3    H140604   3.103   6.038   0.095 -0.1170 -0.4929 -0.4646
 6371TIP3    H240605   3.226   5.961   0.050  0.4104  0.9757 -1.5888
 6372TIP3   OH240606   3.778   3.642   2.097 -0.1492  0.6755 -0.2689
 6372TIP3    H140607   3.755   3.554   2.068 -0.3928  1.1275 -1.4720
 6372TIP3    H240608   3.695   3.681   2.124  0.1784  0.0013  1.7878
 6373TIP3   OH240609   4.542   5.857   5.996 -0.4594 -0.7381 -0.7204
 6373TIP3    H140610   4.462   5.887   5.954 -0.6126 -0.1161  0.0071
 6373TIP3    H240611   4.577   5.934   6.041  0.8496 -0.8560 -1.5081
 6374TIP3   OH240612   0.138   2.612   0.228 -0.1001  0.3980 -0.7004
 6374TIP3    H140613   0.217   2.575   0.266 -0.4408  1.6646  1.3099
 6374TIP3    H240614   0.115   2.552   0.157  1.6414 -0.9580 -0.1465
 6375TIP3   OH240615   6.172   0.302  13.375  0.4511  0.0247  0.2955
 6375TIP3    H140616   6.171   0.329  13.467 -1.4498  0.3079  0.2232
 6375TIP3    H240617   6.202   0.379  13.327  0.4915  0.1892  0.5885
 6376TIP3   OH240618   2.084   2.875  14.302  0.3932  0.1797 -0.5823
 6376TIP3    H140619   1.997   2.905  14.325  0.4970 -0.0857  0.1742
 6376TIP3    H240620   2.132   2.955  14.279  0.2575  0.4469  0.0426
 6377TIP3   OH240621   3.934   0.567  14.212 -0.2754  0.1671  0.1998
 6377TIP3    H140622   3.987   0.501  14.168  1.2464  0.5811  1.3834
 6377TIP3    H240623   3.942   0.547  14.305 -0.5273  1.4640  0.5143
 6378TIP3   OH240624   5.547   0.300  14.731  0.4964 -0.2756  0.0941
 6378TIP3    H140625   5.611   0.337  14.792  0.3139 -0.1769  0.2257
 6378TIP3    H240626   5.597   0.285  14.651  0.3030  1.3693 -0.3507
 6379TIP3   OH240627   6.389   4.737   3.398 -0.0804 -0.1352  1.0242
 6379TIP3    H140628   6.467   4.700   3.356 -0.2453  1.0939 -0.3919
 6379TIP3    H240629   6.325   4.744   3.328 -1.6498 -1.5949  2.2885
 6380TIP3   OH240630   4.579   5.312   0.185  0.1171  0.1377  0.9865
 6380TIP3    H140631   4.545   5.223   0.175 -0.1955  0.3233  0.3699
 6380TIP3    H240632   4.671   5.306   0.158 -0.6860  0.6081 -1.9507
 6381TIP3   OH240633   1.697   3.383   2.906  0.3153  0.9708 -0.0692
 6381TIP3    H140634   1.677   3.407   2.997 -0.2898  0.3621 -0.0432
 6381TIP3    H240635   1.627   3.323   2.881  1.1628  0.1743 -0.5365
 6382TIP3   OH240636   6.640   5.298   3.747  0.0008  0.3239  0.1609
 6382TIP3    H140637   6.712   5.246   3.782  1.1411  0.4825 -1.9047
 6382TIP3    H240638   6.597   5.239   3.684  0.5900  1.4689 -1.3312
 6383TIP3   OH240639   2.655   3.110  14.013 -0.0909 -0.0257  0.3872
 6383TIP3    H140640   2.681   3.060  14.090  1.2225  1.4163  0.9201
 6383TIP3    H240641   2.730   3.102  13.954 -0.9813 -0.8983 -0.6379
 6384TIP3   OH240642   4.698   5.973   4.273  0.1593 -0.0008 -0.0845
 6384TIP3    H140643   4.649   6.022   4.339 -0.7702 -0.2816 -0.5578
 6384TIP3    H240644   4.764   5.924   4.323  0.4872  1.0030  0.4735
 6385TIP3   OH240645   5.170   3.361  15.338 -0.3472  0.0160  0.0019
 6385TIP3    H140646   5.150   3.426  15.271  0.7125 -0.3261 -0.6531
 6385TIP3    H240647   5.114   3.385  15.412 -2.4895 -0.3692 -1.4435
 6386TIP3   OH240648   3.293   5.636   1.630 -0.1483 -0.1967  0.6144
 6386TIP3    H140649   3.385   5.626   1.607 -0.4639 -0.3969 -0.5849
 6386TIP3    H240650   3.278   5.731   1.626 -0.0143 -0.1680  0.7627
 6387TIP3   OH240651   3.312   5.559  16.489  0.5425 -0.2365  0.0110
 6387TIP3    H140652   3.245   5.610  16.535  0.4047 -0.0535 -0.3945
 6387TIP3    H240653   3.395   5.598  16.517  0.4029  0.8042 -1.0076
 6388TIP3   OH240654   5.423   2.602  15.589  0.1397 -0.2140  0.1737
 6388TIP3    H140655   5.434   2.598  15.684  1.0188 -0.2904  0.0722
 6388TIP3    H240656   5.457   2.688  15.565 -1.8990  0.6171  0.1570
 6389TIP3   OH240657   6.128   2.743  14.467 -0.0620  0.1274  0.3213
 6389TIP3    H140658   6.192   2.804  14.431 -0.2165 -0.6110 -1.2207
 6389TIP3    H240659   6.104   2.686  14.394 -0.9836 -0.8805  1.3810
 6390TIP3   OH240660   3.933   3.332   5.345 -0.1504  0.0599  0.1290
 6390TIP3    H140661   3.844   3.305   5.370  0.2156  0.4792  1.9704
 6390TIP3    H240662   3.990   3.281   5.402  0.7023  1.4563  0.5433
 6391TIP3   OH240663   1.421   2.528  12.623  0.2948  0.0669 -0.1500
 6391TIP3    H140664   1.464   2.604  12.582 -0.2830  0.4319 -0.0890
 6391TIP3    H240665   1.470   2.513  12.703  0.4743  0.3182 -0.2113
 6392TIP3   OH240666   0.602   1.947   5.716  0.0301 -0.3318  0.6995
 6392TIP3    H140667   0.564   2.018   5.663  0.5941 -0.7507 -0.2793
 6392TIP3    H240668   0.627   1.989   5.798 -1.4911  0.1855  0.9051
 6393TIP3   OH240669   2.435   1.128  11.583 -0.0346  0.3772 -0.2585
 6393TIP3    H140670   2.370   1.104  11.517  1.9771  0.0526 -2.1756
 6393TIP3    H240671   2.384   1.156  11.658 -2.3877  0.0298 -1.6937
 6394TIP3   OH240672   1.132   5.328   4.738  0.1005  0.2008  0.3417
 6394TIP3    H140673   1.217   5.352   4.701  0.5717 -1.5126  0.2741
 6394TIP3    H240674   1.120   5.389   4.810  0.4928  1.7092 -0.8364
 6395TIP3   OH240675   0.823   3.042   3.218 -0.0848  0.3454  0.2576
 6395TIP3    H140676   0.857   2.961   3.256  0.4415  0.2259 -0.4453
 6395TIP3    H240677   0.899   3.100   3.213 -0.3043  0.6177  0.0753
 6396TIP3   OH240678   5.622   5.931  12.684 -0.9349 -0.4105  0.1423
 6396TIP3    H140679   5.670   5.861  12.729  1.9123  1.7405  0.6039
 6396TIP3    H240680   5.657   5.932  12.595 -0.3734  0.9547  0.3734
 6397TIP3   OH240681   2.575   3.300   0.138  0.0186  0.3456  0.4900
 6397TIP3    H140682   2.542   3.317   0.050  0.6418 -1.1365 -0.0391
 6397TIP3    H240683   2.668   3.282   0.127  0.4322  1.6806  1.6437
 6398TIP3   OH240684   6.674   5.175  16.759 -0.9069  0.1898 -0.4687
 6398TIP3    H140685   6.722   5.237  16.814  0.2569 -0.5548 -0.6311
 6398TIP3    H240686   6.613   5.133  16.820  0.6646 -0.9343  0.3695
 6399TIP3   OH240687   2.757   5.404  12.429 -0.0965  0.8698 -0.1707
 6399TIP3    H140688   2.836   5.353  12.449  0.7776  1.7300 -1.3540
 6399TIP3    H240689   2.694   5.340  12.396 -0.1707  0.0610  1.4911
 6400TIP3   OH240690   5.358   3.799   0.131 -0.2429 -0.4769  0.6073
 6400TIP3    H140691   5.332   3.855   0.204  1.1171 -0.9596  1.4675
 6400TIP3    H240692   5.381   3.715   0.171 -1.2812 -1.3495 -0.5690
 6401TIP3   OH240693   6.694   4.687  17.062 -0.1898 -0.3012  0.2979
 6401TIP3    H140694   6.745   4.747  17.008  0.0303  0.4308  1.3039
 6401TIP3    H240695   6.632   4.647  17.002 -0.2108  0.7972 -0.4187
 6402TIP3   OH240696   2.890   1.803   0.846  0.1247 -0.6092  0.4870
 6402TIP3    H140697   2.930   1.855   0.916 -0.0019  0.3846 -0.1648
 6402TIP3    H240698   2.893   1.713   0.878 -0.3674 -0.1106  1.9841
 6403TIP3   OH240699   3.497   3.055   1.503  0.0145  0.2569  0.1856
 6403TIP3    H140700   3.409   3.068   1.539  0.1051 -1.6935  1.1801
 6403TIP3    H240701   3.554   3.053   1.580  0.7999  0.4506 -0.3843
 6404TIP3   OH240702   4.007   1.691   4.417  0.6566 -0.5438 -0.3650
 6404TIP3    H140703   4.034   1.655   4.501 -2.2835 -0.9354  0.4751
 6404TIP3    H240704   4.009   1.785   4.430  1.8445 -0.5551 -0.4119
 6405TIP3   OH240705   3.911   5.495  13.033  0.2654  0.1144  0.3934
 6405TIP3    H140706   3.892   5.486  13.127 -1.4481  1.7861  0.2316
 6405TIP3    H240707   3.941   5.585  13.024 -0.8842  0.3638 -0.8900
 6406TIP3   OH240708   3.156   5.634  14.167 -0.0373  0.3035 -0.3573
 6406TIP3    H140709   3.077   5.618  14.117  0.7567  0.5774 -1.7086
 6406TIP3    H240710   3.125   5.651  14.256 -1.3778 -1.0704 -0.5555
 6407TIP3   OH240711   6.206   5.386  16.470 -0.1794  0.1693  0.1995
 6407TIP3    H140712   6.248   5.441  16.404 -0.0276 -0.2791 -0.0740
 6407TIP3    H240713   6.251   5.302  16.464 -0.2316  0.0937  0.8047
 6408TIP3   OH240714   2.131   2.154   4.103  0.0601  0.2989 -0.4589
 6408TIP3    H140715   2.062   2.214   4.074 -0.4692 -0.1696 -0.1733
 6408TIP3    H240716   2.130   2.159   4.198  0.6534  0.5430 -0.4586
 6409TIP3   OH240717   3.201   0.542  16.519  0.2898  0.1970 -0.0498
 6409TIP3    H140718   3.121   0.564  16.566  0.9170  1.5368  0.4013
 6409TIP3    H240719   3.202   0.446  16.517 -1.1961  0.1648  0.1454
 6410TIP3   OH240720   2.088   4.838  13.898  0.4734 -0.5076  0.1094
 6410TIP3    H140721   1.993   4.839  13.887  0.4786 -2.2522 -0.3017
 6410TIP3    H240722   2.101   4.807  13.988  0.6574 -0.1704  0.2008
 6411TIP3   OH240723   4.856   4.761   0.927 -0.0138 -0.5792  0.0633
 6411TIP3    H140724   4.932   4.736   0.874 -0.4951 -0.3427 -0.7444
 6411TIP3    H240725   4.781   4.741   0.872 -0.4476  1.8245 -0.2743
 6412TIP3   OH240726   0.270   4.703   1.502  0.1053 -0.2920 -0.0706
 6412TIP3    H140727   0.294   4.791   1.473  1.7088 -0.8125 -0.3631
 6412TIP3    H240728   0.304   4.697   1.591 -0.9689 -0.2468  0.3587
 6413TIP3   OH240729   1.139   4.880  12.674 -0.2887 -0.4901  0.2863
 6413TIP3    H140730   1.191   4.914  12.601 -1.5556 -0.0226 -0.4175
 6413TIP3    H240731   1.200   4.828  12.725  0.9381  0.2995 -0.3627
 6414TIP3   OH240732   4.545   1.277   5.427 -0.2174 -0.2537 -0.1250
 6414TIP3    H140733   4.529   1.270   5.521  1.0119 -0.4604  0.0844
 6414TIP3    H240734   4.500   1.201   5.389  2.6282 -2.5028  0.7700
 6415TIP3   OH240735   0.856   0.978   0.423 -0.0888  0.5919  0.1822
 6415TIP3    H140736   0.771   1.008   0.392  0.0870 -1.2540 -2.2246
 6415TIP3    H240737   0.912   0.980   0.345  1.0508 -1.8027  0.8981
 6416TIP3   OH240738   1.714   3.243   2.498  0.4868  0.0742 -0.6709
 6416TIP3    H140739   1.650   3.195   2.551  0.5925 -1.5659 -1.9877
 6416TIP3    H240740   1.774   3.281   2.562 -1.3763  1.0271  0.5497
 6417TIP3   OH240741   4.819   4.737   5.344 -0.0232 -0.6961 -0.2104
 6417TIP3    H140742   4.751   4.804   5.348  1.5123  1.1390 -2.9279
 6417TIP3    H240743   4.874   4.753   5.421 -1.1668 -0.5661  0.5945
 6418TIP3   OH240744   5.500   5.673  13.591  0.0251 -0.0068  0.2638
 6418TIP3    H140745   5.587   5.637  13.609  0.8358  2.4348  1.3975
 6418TIP3    H240746   5.509   5.767  13.605 -3.4631  0.0399  2.9881
 6419TIP3   OH240747   5.131   1.272   6.066  0.1609 -0.3014 -0.4101
 6419TIP3    H140748   5.048   1.261   6.110  0.8659 -1.5536  0.6428
 6419TIP3    H240749   5.113   1.334   5.995 -2.1556 -2.1839 -1.5424
 6420TIP3   OH240750   2.936   2.926  14.503  0.4775  0.1548  0.2491
 6420TIP3    H140751   2.944   2.977  14.583 -3.4555  0.2057  0.7164
 6420TIP3    H240752   2.927   2.835  14.533  0.5114 -0.0043 -0.2138
 6421TIP3   OH240753   0.839   2.051  16.826  0.2673 -0.1331 -0.1720
 6421TIP3    H140754   0.905   2.062  16.758  0.4359 -1.0031 -0.1530
 6421TIP3    H240755   0.879   2.087  16.905  0.0456  0.9410 -0.5350
 6422TIP3   OH240756   4.346   1.306  12.316 -0.2136  1.0233  0.7229
 6422TIP3    H140757   4.431   1.276  12.282 -0.8911 -0.1092 -0.0049
 6422TIP3    H240758   4.368   1.376  12.377  1.1963  1.3988 -0.1886
 6423TIP3   OH240759   0.158   4.484   6.364  0.4487 -0.5157  0.2097
 6423TIP3    H140760   0.137   4.403   6.316 -1.5146 -0.8222  1.5038
 6423TIP3    H240761   0.214   4.533   6.305  0.0474 -1.9571 -1.4202
 6424TIP3   OH240762   2.266   6.728  16.632  0.0250  0.3149 -0.4414
 6424TIP3    H140763   2.181   6.751  16.596 -0.5688  0.0835  0.7827
 6424TIP3    H240764   2.286   6.799  16.693  0.2645 -0.0965 -0.0297
 6425TIP3   OH240765   1.099   3.049   0.687 -0.0456 -0.0142 -0.2324
 6425TIP3    H140766   1.128   2.961   0.660  0.2659  0.6473 -2.1707
 6425TIP3    H240767   1.005   3.050   0.668 -0.1060 -0.0282  0.0656
 6426TIP3   OH240768   6.288   6.590   6.402  0.1013  0.5951  0.0037
 6426TIP3    H140769   6.229   6.519   6.427 -0.7411  1.1081 -0.4930
 6426TIP3    H240770   6.318   6.628   6.485  2.5240 -1.9037  0.3433
 6427TIP3   OH240771   5.481   4.426   5.668 -0.0249 -0.1583  0.3294
 6427TIP3    H140772   5.564   4.379   5.674 -0.8542 -1.9249 -1.2818
 6427TIP3    H240773   5.436   4.406   5.750  1.1259  0.7934  1.1991
 6428TIP3   OH240774   5.445   1.846  13.391 -0.1569 -0.4179  0.7227
 6428TIP3    H140775   5.372   1.855  13.452 -1.6457 -0.6008 -1.0041
 6428TIP3    H240776   5.422   1.770  13.338  0.2886  0.7440 -1.1833
 6429TIP3   OH240777   1.378   3.380   5.413  0.0889 -1.0502 -0.3350
 6429TIP3    H140778   1.319   3.430   5.470 -0.0020 -0.4432 -0.9529
 6429TIP3    H240779   1.361   3.415   5.325 -0.1497 -2.3289 -0.8076
 6430TIP3   OH240780   2.519   4.116  14.634  0.3889 -0.0676  0.3303
 6430TIP3    H140781   2.463   4.056  14.585  1.0061  1.1242 -1.9092
 6430TIP3    H240782   2.528   4.192  14.578 -0.5241  2.2409  3.1834
 6431TIP3   OH240783   1.963   5.786  14.575  0.0804 -0.0805  0.5800
 6431TIP3    H140784   1.909   5.848  14.526  3.3271  2.3064 -0.1347
 6431TIP3    H240785   1.983   5.716  14.511  1.1992  1.1139 -0.4033
 6432TIP3   OH240786   1.631   2.028  10.568  0.4440  0.4835 -0.4406
 6432TIP3    H140787   1.587   1.944  10.579 -0.5305  1.0207 -0.2566
 6432TIP3    H240788   1.640   2.037  10.473  0.2542  0.3205 -0.4747
 6433TIP3   OH240789   5.703   2.266   0.442 -0.0081  0.6293 -0.4382
 6433TIP3    H140790   5.638   2.197   0.427 -0.2616  1.0548 -1.3997
 6433TIP3    H240791   5.657   2.346   0.416  0.1783  1.1980  0.9605
 6434TIP3   OH240792   1.140   2.094   4.149  0.1939 -0.0409 -0.0835
 6434TIP3    H140793   1.064   2.043   4.180  1.5610  1.2153  6.1112
 6434TIP3    H240794   1.106   2.182   4.135 -0.1953 -0.3444 -1.1247
 6435TIP3   OH240795   2.929   4.209  12.212  0.0587 -0.0971  0.2528
 6435TIP3    H140796   2.923   4.116  12.191 -0.4924 -0.0404  0.1467
 6435TIP3    H240797   2.854   4.248  12.168 -1.1472  0.0155  2.3330
 6436TIP3   OH240798   5.539   3.787  11.338  0.3034 -0.2764 -0.2475
 6436TIP3    H140799   5.508   3.799  11.248 -1.3594 -0.7433  0.2459
 6436TIP3    H240800   5.565   3.875  11.366 -0.4880  0.1159 -0.7282
 6437TIP3   OH240801   6.589   2.337  15.555 -0.1640 -0.1776  0.0895
 6437TIP3    H140802   6.589   2.407  15.489  0.9344 -1.2128 -1.0168
 6437TIP3    H240803   6.569   2.383  15.637 -0.5096  1.2834 -0.7794
 6438TIP3   OH240804   1.368   4.275   2.562 -0.4918 -0.1997 -0.1362
 6438TIP3    H140805   1.307   4.235   2.625 -1.9931  0.8688 -0.8850
 6438TIP3    H240806   1.450   4.283   2.611 -1.2076 -0.8010  1.2034
 6439TIP3   OH240807   1.156   4.689  14.414  0.1077 -0.3127 -0.0345
 6439TIP3    H140808   1.144   4.672  14.320 -0.5351  0.6022 -0.1241
 6439TIP3    H240809   1.251   4.690  14.426  0.1858 -1.6602 -0.4415
 6440TIP3   OH240810   1.727   0.472  15.777 -0.1393  0.7110 -0.2817
 6440TIP3    H140811   1.814   0.506  15.756 -0.1095  0.6442 -0.2670
 6440TIP3    H240812   1.739   0.423  15.858 -0.1148  0.3879 -0.4798
 6441TIP3   OH240813   3.454   1.393   2.224 -0.2071  0.2281  0.1710
 6441TIP3    H140814   3.539   1.372   2.185 -0.0122  0.1690  0.6167
 6441TIP3    H240815   3.468   1.382   2.318 -0.8216 -0.1889  0.2202
 6442TIP3   OH240816   2.697   5.298  12.050  0.4930 -0.4532  0.1759
 6442TIP3    H140817   2.776   5.300  11.996 -0.1463 -0.2389 -0.7636
 6442TIP3    H240818   2.625   5.291  11.987 -0.4213  2.3981  0.8414
 6443TIP3   OH240819   4.466   4.347  17.113 -0.1804 -0.1857  0.3079
 6443TIP3    H140820   4.510   4.262  17.114  0.9154  0.3421 -1.5018
 6443TIP3    H240821   4.527   4.405  17.068 -2.0280  0.9556 -0.7724
 6444TIP3   OH240822   6.179   5.148  15.966  0.2982 -0.5052  0.2179
 6444TIP3    H140823   6.103   5.091  15.976  1.7163 -2.3151  0.9002
 6444TIP3    H240824   6.195   5.182  16.054  0.2590 -0.0782  0.0616
 6445TIP3   OH240825   4.698   1.997   3.869  0.0964 -0.0067  0.0627
 6445TIP3    H140826   4.773   2.029   3.919 -0.4771 -0.1950  1.0480
 6445TIP3    H240827   4.731   1.920   3.823  1.0161  0.9977 -0.9746
 6446TIP3   OH240828   0.054   5.655  13.637  0.0884  0.6968  0.0470
 6446TIP3    H140829   0.142   5.622  13.616 -0.6072 -1.2519  0.0623
 6446TIP3    H240830   0.020   5.689  13.555  0.4133  0.3628 -0.2282
 6447TIP3   OH240831   2.461   0.439  13.489 -0.1071 -0.8380  0.0810
 6447TIP3    H140832   2.492   0.452  13.399 -0.3907 -0.0497  0.0929
 6447TIP3    H240833   2.514   0.498  13.542  0.3866 -1.6532  0.5013
 6448TIP3   OH240834   5.778   2.102  15.607 -0.3827  0.4667 -0.0008
 6448TIP3    H140835   5.699   2.156  15.605 -1.1761 -0.6968 -0.2365
 6448TIP3    H240836   5.839   2.146  15.547  0.1229  2.8076  2.1285
 6449TIP3   OH240837   3.142   1.884   5.355 -0.1441  0.3437 -0.1972
 6449TIP3    H140838   3.211   1.833   5.313 -0.6431 -1.3230  0.9669
 6449TIP3    H240839   3.061   1.855   5.311 -0.4110  0.2119  0.3732
 6450TIP3   OH240840   6.424   2.597  11.123  0.3292 -0.0138 -0.7516
 6450TIP3    H140841   6.373   2.600  11.204 -0.3806  0.2794 -1.2080
 6450TIP3    H240842   6.362   2.567  11.057  1.3359 -1.9913 -0.8523
 6451TIP3   OH240843   5.907   4.638   1.011  0.6275 -0.4496  0.0694
 6451TIP3    H140844   5.945   4.726   1.007  0.0190 -0.0958  1.5436
 6451TIP3    H240845   5.976   4.584   1.049  0.6748 -0.4004  0.0536
 6452TIP3   OH240846   3.442   6.716   4.697 -0.2048  0.1023 -0.1415
 6452TIP3    H140847   3.498   6.640   4.683 -2.1000 -1.5428  1.0661
 6452TIP3    H240848   3.491   6.770   4.759  1.5026  0.2891 -1.6065
 6453TIP3   OH240849   0.029   3.766  11.315  0.1740 -0.3551 -0.2068
 6453TIP3    H140850  -0.054   3.774  11.361 -0.5771  0.7397 -1.7113
 6453TIP3    H240851   0.042   3.672  11.303 -0.4154 -0.5653  0.7697
 6454TIP3   OH240852   1.134   3.340   4.223 -0.1885  0.1491 -0.1207
 6454TIP3    H140853   1.190   3.371   4.152 -1.2029 -1.4925 -1.6924
 6454TIP3    H240854   1.190   3.339   4.300  0.4971  3.4988 -0.5148
 6455TIP3   OH240855   3.688   0.718   6.716  0.6149 -0.5825 -0.7220
 6455TIP3    H140856   3.726   0.768   6.644  1.1773 -1.2521 -0.8958
 6455TIP3    H240857   3.764   0.682   6.763  0.3480  1.7088  1.5682
 6456TIP3   OH240858   1.234   2.692   3.237 -0.0524  0.6646 -0.3921
 6456TIP3    H140859   1.238   2.633   3.161  0.2754  0.2074 -0.0250
 6456TIP3    H240860   1.298   2.656   3.299 -0.4509  0.9253  0.1780
 6457TIP3   OH240861   4.827   1.924  13.036 -0.3659  0.1255  0.1739
 6457TIP3    H140862   4.904   1.934  12.980  0.8871 -2.7120  1.2913
 6457TIP3    H240863   4.753   1.922  12.975  0.6464  0.5956 -1.0903
 6458TIP3   OH240864   5.753   0.296  13.939 -0.0813 -0.0600  0.8448
 6458TIP3    H140865   5.842   0.288  13.903 -0.7687 -1.9118 -0.4949
 6458TIP3    H240866   5.730   0.388  13.923  0.7103 -0.1404 -0.9063
 6459TIP3   OH240867   2.271   6.210  13.892 -0.3830 -0.0312  0.0291
 6459TIP3    H140868   2.328   6.168  13.827  0.1773 -0.5277  0.8348
 6459TIP3    H240869   2.187   6.220  13.847 -0.5670 -2.1537 -0.1266
 6460TIP3   OH240870   2.158   3.128   5.803 -0.1800  0.4402  0.9756
 6460TIP3    H140871   2.064   3.142   5.811 -0.2026  0.2639  1.0050
 6460TIP3    H240872   2.176   3.051   5.856 -0.4082 -1.0642 -1.1044
 6461TIP3   OH240873   0.054   1.901  14.342 -0.6496  0.2405  0.1668
 6461TIP3    H140874   0.142   1.867  14.329 -2.1325 -3.1441 -1.6667
 6461TIP3    H240875   0.066   1.994  14.362  3.3947 -0.5441  1.7872
 6462TIP3   OH240876   1.971   4.545   0.672 -0.2347  0.4963  0.0252
 6462TIP3    H140877   2.018   4.534   0.589 -0.5499 -0.1070 -0.0719
 6462TIP3    H240878   2.040   4.566   0.735  0.0487  0.6100 -0.3148
 6463TIP3   OH240879   6.079   4.624  11.614  0.3636  0.1464  0.7710
 6463TIP3    H140880   5.998   4.609  11.662 -0.0310  0.9123  0.3370
 6463TIP3    H240881   6.064   4.704  11.564  1.0425 -0.2388 -0.0657
 6464TIP3   OH240882   4.940   2.414   3.731  0.2148  0.9266 -0.8343
 6464TIP3    H140883   4.989   2.334   3.747 -2.2167 -0.3687  0.3965
 6464TIP3    H240884   4.992   2.482   3.774  2.3593  0.0682 -2.0005
 6465TIP3   OH240885   2.596   4.173   3.010  0.4856  0.3716  0.6653
 6465TIP3    H140886   2.515   4.145   3.052 -0.0673 -1.5807 -1.6076
 6465TIP3    H240887   2.567   4.223   2.934  1.4271  0.2961  0.2509
 6466TIP3   OH240888   0.170   1.714  13.870  0.2758 -0.6931 -0.1471
 6466TIP3    H140889   0.218   1.766  13.806  0.6191 -1.7286 -0.7501
 6466TIP3    H240890   0.100   1.672  13.819  0.3322 -1.2473  0.2289
 6467TIP3   OH240891   5.269   5.591   2.034  0.1095 -0.0988  0.1722
 6467TIP3    H140892   5.352   5.571   2.079  0.1235 -0.7282 -0.1279
 6467TIP3    H240893   5.202   5.572   2.100  0.1683 -0.2454  0.1891
 6468TIP3   OH240894   3.380   4.459  13.065 -0.1181 -0.8103 -0.2679
 6468TIP3    H140895   3.366   4.424  12.977  0.5457  0.7215 -0.9984
 6468TIP3    H240896   3.293   4.481  13.096 -0.2936 -0.6997 -0.8236
 6469TIP3   OH240897   5.204   0.738  12.785  0.3597  0.3647  0.5693
 6469TIP3    H140898   5.224   0.817  12.835 -0.3436  0.1352  1.2206
 6469TIP3    H240899   5.114   0.751  12.756 -0.4592 -1.0808  2.3750
 6470TIP3   OH240900   5.050   0.248   5.692  0.0781 -0.1530 -0.2734
 6470TIP3    H140901   5.069   0.233   5.599 -0.2208 -0.0309 -0.3545
 6470TIP3    H240902   4.971   0.301   5.692  1.1955  1.5733 -0.0162
 6471TIP3   OH240903   2.004   2.163  11.626  0.4579 -0.2699  0.2135
 6471TIP3    H140904   1.988   2.257  11.627 -0.0869 -0.3623  0.2079
 6471TIP3    H240905   2.087   2.154  11.579 -0.7257  0.0329 -2.0103
 6472TIP3   OH240906   5.561   0.884  14.486 -0.1337 -0.0610 -0.7115
 6472TIP3    H140907   5.650   0.850  14.477  0.6767  1.3827  1.6450
 6472TIP3    H240908   5.560   0.962  14.431 -0.0589 -0.2807 -1.0267
 6473TIP3   OH240909   6.468   5.017  11.622 -0.5490  0.1392 -0.2829
 6473TIP3    H140910   6.514   4.942  11.585 -0.0579 -0.0637  0.7349
 6473TIP3    H240911   6.376   5.004  11.597 -0.5451 -1.0539  0.3301
 6474TIP3   OH240912   4.566   0.099  15.025 -1.0827  0.6812  0.0078
 6474TIP3    H140913   4.522   0.018  15.048  2.5526 -1.1686  0.7077
 6474TIP3    H240914   4.569   0.149  15.106  0.3456 -0.3075  0.5816
 6475TIP3   OH240915   2.118   1.185  11.045  0.3278 -0.2132  0.3593
 6475TIP3    H140916   2.103   1.102  11.091  1.2522 -0.1266  0.8253
 6475TIP3    H240917   2.030   1.222  11.033  0.0780 -0.2214  2.0972
 6476TIP3   OH240918   5.389   0.516  15.264  0.2371 -0.4807 -0.0529
 6476TIP3    H140919   5.383   0.441  15.322  1.4430  0.7644  1.7309
 6476TIP3    H240920   5.475   0.508  15.223  1.1770  0.9169  1.5882
 6477TIP3   OH240921   4.912   2.125   5.894 -0.0197 -0.1014  0.6009
 6477TIP3    H140922   4.971   2.160   5.827 -0.8962  1.2060  0.4794
 6477TIP3    H240923   4.912   2.031   5.880 -0.0743  0.1445 -1.1607
 6478TIP3   OH240924   5.005   1.278   4.788  0.0711  0.6664 -1.0386
 6478TIP3    H140925   5.020   1.188   4.757  0.0843  0.6427 -0.9625
 6478TIP3    H240926   5.089   1.322   4.778  0.5075  0.2188  0.4690
 6479TIP3   OH240927   3.571   3.924   0.361  0.1041  0.4827 -0.3811
 6479TIP3    H140928   3.580   3.885   0.448 -1.0185  0.1493 -0.4137
 6479TIP3    H240929   3.503   3.990   0.371 -2.2875 -1.6896 -1.7234
 6480TIP3   OH240930   2.016   0.551   5.172  0.3562 -0.0548  0.4870
 6480TIP3    H140931   1.954   0.552   5.246 -0.5181  0.1488 -0.2452
 6480TIP3    H240932   1.961   0.541   5.095  1.4316 -2.7990 -0.0016
 6481TIP3   OH240933   1.170   0.227   1.264  0.6742  0.2158 -0.2816
 6481TIP3    H140934   1.249   0.225   1.318  0.4577  3.0696  0.1789
 6481TIP3    H240935   1.100   0.201   1.325  1.0030 -0.6150 -0.2518
 6482TIP3   OH240936   2.908   1.158  17.279  0.0745 -0.4967  0.1701
 6482TIP3    H140937   2.906   1.218  17.354 -1.7350 -0.2283 -0.0749
 6482TIP3    H240938   2.945   1.210  17.208  0.9356 -0.4724  0.6216
 6483TIP3   OH240939   1.458   0.822   4.292 -0.2037 -0.1819  0.1149
 6483TIP3    H140940   1.407   0.897   4.259 -1.5326 -0.9561  0.3718
 6483TIP3    H240941   1.431   0.749   4.237  0.9264 -0.5349  0.0128
 6484TIP3   OH240942   6.319   1.338  13.895 -0.1616  1.0528 -0.3346
 6484TIP3    H140943   6.285   1.409  13.950 -1.3785 -0.7676  1.3408
 6484TIP3    H240944   6.243   1.305  13.848  0.5703  1.4695 -1.8304
 6485TIP3   OH240945   0.433   5.518  16.510  0.1866 -0.1525  0.4305
 6485TIP3    H140946   0.461   5.434  16.545  1.3173  0.8979  2.1571
 6485TIP3    H240947   0.446   5.511  16.416 -1.2212 -2.4460  0.3662
 6486TIP3   OH240948   4.270   5.879  16.429  0.1810  0.6061 -0.0390
 6486TIP3    H140949   4.322   5.952  16.464  3.6593 -1.7725  0.0356
 6486TIP3    H240950   4.267   5.816  16.500  0.0382 -0.6824 -1.1681
 6487TIP3   OH240951   5.979   4.607   2.987  0.0440 -0.2751 -0.2546
 6487TIP3    H140952   5.936   4.529   3.021  0.7452 -0.0314  1.2287
 6487TIP3    H240953   6.068   4.579   2.966  0.2542  0.0901  0.1432
 6488TIP3   OH240954   6.504   2.695  12.708  0.3434 -0.1077 -0.1929
 6488TIP3    H140955   6.473   2.635  12.641  1.4939  1.2664 -2.0221
 6488TIP3    H240956   6.431   2.755  12.722  1.4723  2.1481 -3.3312
 6489TIP3   OH240957   3.881   5.934   0.689 -0.3929  0.1237 -0.1149
 6489TIP3    H140958   3.901   5.866   0.753  3.0537  0.9546 -0.2192
 6489TIP3    H240959   3.811   5.985   0.730  0.3874 -0.5434  2.1273
 6490TIP3   OH240960   3.507   3.883  10.438  0.2161 -0.0913 -0.5217
 6490TIP3    H140961   3.526   3.789  10.434 -1.1747 -0.4720  1.2937
 6490TIP3    H240962   3.524   3.914  10.349  1.3222 -1.9307 -0.9834
 6491TIP3   OH240963   3.575   2.426  13.712 -0.2794  0.6227  0.5424
 6491TIP3    H140964   3.595   2.427  13.806  2.0734  2.2093  0.0542
 6491TIP3    H240965   3.551   2.516  13.691  0.4359  0.5395 -0.6466
 6492TIP3   OH240966   4.920   4.419  12.025 -0.5076 -0.0760 -0.3252
 6492TIP3    H140967   4.842   4.377  12.060  0.0820 -3.0539 -2.4151
 6492TIP3    H240968   4.993   4.370  12.064  0.2160 -0.4275 -2.0984
 6493TIP3   OH240969   3.232   3.037   1.587  0.0869 -0.0890 -0.4920
 6493TIP3    H140970   3.176   3.104   1.625  0.1901 -1.7420  2.6840
 6493TIP3    H240971   3.195   2.954   1.617  1.7808 -1.3602 -1.7819
 6494TIP3   OH240972   6.498   5.620  12.939 -0.0268  0.1943  0.3134
 6494TIP3    H140973   6.502   5.667  12.856  0.5882 -0.2164  0.1011
 6494TIP3    H240974   6.563   5.550  12.929  0.4528  0.4859  1.3455
 6495TIP3   OH240975   5.568   5.779   6.614  0.0293  0.8449 -0.0053
 6495TIP3    H140976   5.597   5.688   6.623 -2.2785  0.3344  3.3863
 6495TIP3    H240977   5.638   5.822   6.567  1.3644 -2.6183 -1.3479
 6496TIP3   OH240978   0.998   5.151   3.826  0.2411  0.2155 -0.5186
 6496TIP3    H140979   0.907   5.126   3.844  0.4397 -1.0444 -1.1651
 6496TIP3    H240980   1.048   5.109   3.897  0.3757  0.4116 -0.4982
 6497TIP3   OH240981   3.696   2.519   0.118  0.0012 -0.2063 -0.1776
 6497TIP3    H140982   3.649   2.505   0.036 -1.0177  1.1767  0.1293
 6497TIP3    H240983   3.669   2.447   0.174  3.3711 -3.1413 -2.1276
 6498TIP3   OH240984   0.091   2.528   6.028 -0.0328 -0.2426  0.8565
 6498TIP3    H140985   0.020   2.576   5.984  0.4120 -0.0980  0.2778
 6498TIP3    H240986   0.169   2.548   5.975  0.0442 -2.1161  0.2293
 6499TIP3   OH240987   1.614   0.996   1.534  0.0249 -0.0373  0.2622
 6499TIP3    H140988   1.526   0.971   1.559 -0.6817  0.9037 -1.2124
 6499TIP3    H240989   1.668   0.921   1.558 -0.7140  0.4520  3.6889
 6500TIP3   OH240990   3.499   6.788  15.544  0.0197  0.2150  0.0283
 6500TIP3    H140991   3.414   6.759  15.578  1.3883 -1.4866  2.1579
 6500TIP3    H240992   3.536   6.711  15.501  1.3345  0.3611  0.8609
 6501TIP3   OH240993   5.640   5.023   4.314 -0.0929  0.4630  0.3633
 6501TIP3    H140994   5.590   4.963   4.369 -0.8805  0.7330 -0.0573
 6501TIP3    H240995   5.715   5.049   4.369 -0.0173 -0.4986  0.7289
 6502TIP3   OH240996   1.295   5.721   2.546 -0.3054 -0.2722  0.0872
 6502TIP3    H140997   1.240   5.646   2.571 -0.3275  0.2820  1.7282
 6502TIP3    H240998   1.240   5.797   2.560  0.4282  0.1982  0.4619
 6503TIP3   OH240999   3.283   5.317  11.532  0.0692 -0.2375 -0.6697
 6503TIP3    H141000   3.201   5.364  11.516  1.0165  1.6429 -0.1359
 6503TIP3    H241001   3.259   5.248  11.593 -1.1871  0.1124 -0.7590
 6504TIP3   OH241002   2.194   6.666   1.407  0.7263  0.1681 -0.2122
 6504TIP3    H141003   2.147   6.657   1.490  0.8884  3.4034  0.3205
 6504TIP3    H241004   2.283   6.689   1.433  1.4811 -1.5291 -1.2655
 6505TIP3   OH241005   0.190   2.851  16.296  0.3112  0.1944 -0.0071
 6505TIP3    H141006   0.213   2.766  16.333 -0.0718  0.1721  0.1783
 6505TIP3    H241007   0.271   2.902  16.300  0.5051 -0.1130  0.0116
 6506TIP3   OH241008   0.362   5.875  15.714 -0.2405  0.6118 -0.0449
 6506TIP3    H141009   0.360   5.962  15.754 -2.1530  0.0934  1.0533
 6506TIP3    H241010   0.381   5.891  15.622 -0.1941  2.1745  0.2276
 6507TIP3   OH241011   1.948   1.704   2.808  0.6856  0.4308 -0.0980
 6507TIP3    H141012   1.953   1.679   2.716  1.0704  0.9096 -0.2154
 6507TIP3    H241013   1.953   1.622   2.857 -0.7622  0.0816 -0.5387
 6508TIP3   OH241014   0.791   3.067   4.647  0.0905 -0.1354 -0.6374
 6508TIP3    H141015   0.845   3.004   4.600  1.3145  0.1524  0.3358
 6508TIP3    H241016   0.793   3.146   4.593  1.2053  0.0828 -0.3101
 6509TIP3   OH241017   3.234   1.223  14.966  0.3066  0.3610  0.0187
 6509TIP3    H141018   3.239   1.228  15.062 -0.5063 -0.2519  0.1031
 6509TIP3    H241019   3.295   1.289  14.935  0.4706  0.6609  0.9690
 6510TIP3   OH241020   2.721   5.575   0.518  0.1095 -0.0351  0.1189
 6510TIP3    H141021   2.645   5.556   0.463 -0.0573 -0.6355  0.5435
 6510TIP3    H241022   2.711   5.515   0.593 -0.0991  1.3293  1.2021
 6511TIP3   OH241023   2.319   0.703  11.521 -0.2816 -0.3691 -0.0874
 6511TIP3    H141024   2.283   0.633  11.575  1.6490 -0.9963  0.4406
 6511TIP3    H241025   2.243   0.744  11.480 -1.6424 -0.9781  1.7775
 6512TIP3   OH241026   2.246   6.060   2.281  0.0377  0.7147 -0.3408
 6512TIP3    H141027   2.242   6.138   2.226 -1.3680 -0.0503 -1.3696
 6512TIP3    H241028   2.165   6.062   2.331 -0.3999 -0.4878 -0.9666
 6513TIP3   OH241029   1.532   1.952  12.337 -0.1433  0.5840 -0.6246
 6513TIP3    H141030   1.474   1.924  12.408  0.1263 -0.9079 -0.9643
 6513TIP3    H241031   1.474   1.983  12.268 -0.4852  0.3268 -0.4523
 6514TIP3   OH241032   5.388   5.188  15.666  0.1253 -0.1687 -0.0802
 6514TIP3    H141033   5.350   5.163  15.750 -1.1928  1.4173 -0.1712
 6514TIP3    H241034   5.414   5.279  15.678 -0.5558  0.2277 -1.5432
 6515TIP3   OH241035   0.171   0.891  13.832 -0.3473 -0.2601  0.5813
 6515TIP3    H141036   0.129   0.821  13.882 -1.5227 -0.3416 -0.5028
 6515TIP3    H241037   0.156   0.970  13.884 -0.3472 -0.5670  1.0484
 6516TIP3   OH241038   4.002   2.550   4.500 -0.5140  0.0426  0.5101
 6516TIP3    H141039   3.972   2.584   4.415 -0.7707 -0.8946  0.2275
 6516TIP3    H241040   4.086   2.594   4.514 -1.2020  1.3996  0.5145
 6517TIP3   OH241041   6.621   0.729  16.973  0.1495 -0.2595  0.0391
 6517TIP3    H141042   6.641   0.717  17.066  0.6623  1.8227  0.2082
 6517TIP3    H241043   6.631   0.823  16.958 -1.9878 -0.2723 -1.6433
 6518TIP3   OH241044   4.670   5.398  15.523 -0.0805  0.0704 -0.4734
 6518TIP3    H141045   4.594   5.357  15.565 -1.0019  0.4082 -1.7645
 6518TIP3    H241046   4.741   5.335  15.535  0.1301  0.8668  2.9837
 6519TIP3   OH241047   2.982   1.613  15.907  0.2619  0.5643  0.4742
 6519TIP3    H141048   2.919   1.593  15.838  2.1630  2.3648 -1.8709
 6519TIP3    H241049   2.932   1.663  15.972 -1.4478 -0.8053  0.2471
 6520TIP3   OH241050   5.163   4.288   0.770  0.0432 -0.4951  0.1899
 6520TIP3    H141051   5.252   4.323   0.758 -0.9643  1.6857 -1.3706
 6520TIP3    H241052   5.136   4.320   0.856  0.5136 -0.6409  0.3981
 6521TIP3   OH241053   2.943   2.780   1.872 -0.3239 -0.1007 -0.7190
 6521TIP3    H141054   2.898   2.865   1.865  2.0943  1.2077 -1.0858
 6521TIP3    H241055   2.966   2.773   1.965  2.2671  1.2197 -1.1918
 6522TIP3   OH241056   2.465   5.589  13.693 -0.6488 -0.0096 -0.2759
 6522TIP3    H141057   2.549   5.544  13.694 -1.1795 -1.0090 -0.2058
 6522TIP3    H241058   2.445   5.600  13.600 -1.2969 -1.3833 -0.2970
 6523TIP3   OH241059   6.555   4.199   3.421  0.0934  0.2678  0.8001
 6523TIP3    H141060   6.487   4.265   3.402 -0.4352 -0.5656 -0.2512
 6523TIP3    H241061   6.580   4.166   3.335  0.4962 -0.7666  1.3191
 6524TIP3   OH241062   3.438   5.462  14.200 -0.3288  0.2628 -0.0215
 6524TIP3    H141063   3.433   5.518  14.122  0.1597  1.1531  0.5784
 6524TIP3    H241064   3.373   5.393  14.184  1.0652 -0.6514 -2.0695
 6525TIP3   OH241065   2.419   1.803  15.605 -0.2770  0.3111 -0.2960
 6525TIP3    H141066   2.448   1.876  15.661 -0.5800  0.1124  0.1250
 6525TIP3    H241067   2.480   1.803  15.532  1.2202 -0.5475  0.9305
 6526TIP3   OH241068   4.117   5.549  10.817  0.6347  0.2218 -0.1640
 6526TIP3    H141069   4.047   5.571  10.878  0.1462  0.3088 -0.7490
 6526TIP3    H241070   4.121   5.623  10.757  2.9196  1.3717  1.3507
 6527TIP3   OH241071   1.917   6.617   5.775 -0.2660 -0.6536 -1.3149
 6527TIP3    H141072   1.823   6.611   5.758 -0.1671  0.8985 -2.5579
 6527TIP3    H241073   1.953   6.660   5.697  1.2711  0.0064 -0.2769
 6528TIP3   OH241074   4.451   5.492  13.830 -0.3306  0.0808 -0.0202
 6528TIP3    H141075   4.458   5.456  13.741 -0.4880 -0.8974  0.3605
 6528TIP3    H241076   4.390   5.433  13.875  1.6030 -0.8500  1.4519
 6529TIP3   OH241077   3.910   2.215   3.105  0.0476 -0.5704 -0.1807
 6529TIP3    H141078   3.866   2.265   3.036  1.1359  1.2028  0.3938
 6529TIP3    H241079   3.854   2.227   3.182 -0.7981 -1.9755 -0.5687
 6530TIP3   OH241080   1.839   3.190  11.901  0.0750 -0.3034  0.1933
 6530TIP3    H141081   1.873   3.101  11.906  0.8162  0.0207  1.1724
 6530TIP3    H241082   1.821   3.205  11.808 -2.0852 -2.2256  0.2422
 6531TIP3   OH241083   6.248   0.795   0.763 -0.3165  0.0198 -0.0917
 6531TIP3    H141084   6.312   0.822   0.828  0.8621 -1.4633 -0.6258
 6531TIP3    H241085   6.168   0.843   0.787  0.4726  0.4999  1.6354
 6532TIP3   OH241086   1.959   6.344   5.519 -0.0498 -0.1990 -0.0942
 6532TIP3    H141087   1.926   6.429   5.549  1.5938  0.0899  0.9788
 6532TIP3    H241088   2.049   6.341   5.551 -0.7691 -3.3297  1.8556
 6533TIP3   OH241089   0.965   4.425  16.087  0.2615  0.1443  0.0533
 6533TIP3    H141090   0.971   4.339  16.045 -1.8255  0.3420 -0.7135
 6533TIP3    H241091   0.886   4.419  16.142 -1.2812  2.3085 -1.8384
 6534TIP3   OH241092   2.288   1.706   2.728  0.0234  0.4917  0.4950
 6534TIP3    H141093   2.315   1.627   2.774  0.6788  0.2829 -0.2298
 6534TIP3    H241094   2.369   1.755   2.716 -0.3587  1.2132  0.8176
 6535TIP3   OH241095   1.893   6.177   3.680 -0.1963  0.0248  0.7109
 6535TIP3    H141096   1.948   6.204   3.753 -0.5539  2.0625  0.2402
 6535TIP3    H241097   1.890   6.253   3.622 -0.7930 -1.1929 -0.9139
 6536TIP3   OH241098   4.588   3.160  12.948  0.1633 -0.6101 -0.0353
 6536TIP3    H141099   4.519   3.225  12.966  0.7928  0.3460 -0.9823
 6536TIP3    H241100   4.541   3.077  12.941 -0.7967 -0.1000  0.1617
 6537TIP3   OH241101   4.625   5.142   3.284 -0.1087 -0.4001 -0.2047
 6537TIP3    H141102   4.701   5.138   3.342 -0.7884 -0.6359  0.6923
 6537TIP3    H241103   4.661   5.157   3.197  1.0703 -2.1151 -0.0320
 6538TIP3   OH241104   4.618   2.536  14.853  0.4557 -0.2961 -0.3359
 6538TIP3    H141105   4.619   2.479  14.777  2.3708 -1.2135  0.3428
 6538TIP3    H241106   4.704   2.579  14.852  0.6399 -0.5870  1.4957
 6539TIP3   OH241107   5.462   2.758  13.572  0.2058  0.3255  0.2649
 6539TIP3    H141108   5.555   2.738  13.556  0.1275 -0.9128  1.2627
 6539TIP3    H241109   5.417   2.729  13.493  0.8196  2.3399 -0.8802
 6540TIP3   OH241110   1.929   5.485  16.243 -0.7980 -0.3657  0.4892
 6540TIP3    H141111   1.902   5.395  16.226  0.8523 -0.5276 -1.4324
 6540TIP3    H241112   1.936   5.525  16.156  0.6096  0.9598  1.1814
 6541TIP3   OH241113   0.703   3.405   0.292  0.0110  0.0437  0.6911
 6541TIP3    H141114   0.799   3.411   0.294  0.1318 -1.3895 -0.2903
 6541TIP3    H241115   0.679   3.369   0.377  0.3523  0.3176  0.9043
 6542TIP3   OH241116   2.954   3.911  12.738  0.3209 -0.1700 -0.7122
 6542TIP3    H141117   2.911   3.938  12.657  0.5026 -1.5257 -1.2682
 6542TIP3    H241118   2.896   3.844  12.774  1.2852 -1.0527 -0.7825
 6543TIP3   OH241119   0.730   4.022   4.940  0.2108 -0.0009  0.5541
 6543TIP3    H141120   0.702   3.999   5.029  0.5325 -1.0146  0.4081
 6543TIP3    H241121   0.648   4.032   4.891  0.0438 -2.2872  0.2906
 6544TIP3   OH241122   2.254   3.354   3.727 -0.5294 -0.4804 -0.7287
 6544TIP3    H141123   2.206   3.325   3.805 -0.7194 -0.4122 -0.8213
 6544TIP3    H241124   2.237   3.287   3.662  0.3716 -1.0078 -0.4319
 6545TIP3   OH241125   6.528   1.369   2.939 -0.1177 -0.3154 -0.6635
 6545TIP3    H141126   6.526   1.343   2.846  0.8005 -0.8526 -0.5509
 6545TIP3    H241127   6.446   1.336   2.975 -0.0558 -0.9582 -1.0863
 6546TIP3   OH241128   0.138   2.068   6.077  0.1522  0.0821 -0.3901
 6546TIP3    H141129   0.190   2.148   6.080 -0.7319  0.6261  1.0055
 6546TIP3    H241130   0.047   2.098   6.086 -0.2543 -1.0162 -0.7002
 6547TIP3   OH241131   3.823   4.159  13.243 -0.3350  0.3238 -0.2193
 6547TIP3    H141132   3.772   4.159  13.162 -0.7474 -0.5411  0.0373
 6547TIP3    H241133   3.888   4.090  13.230  0.3699  1.0002 -0.2930
 6548TIP3   OH241134   1.160   6.393   3.346 -0.2484  0.5423 -0.3581
 6548TIP3    H141135   1.247   6.409   3.310  0.4220 -1.7319  0.1421
 6548TIP3    H241136   1.124   6.322   3.293 -1.7974  1.4527 -0.5518
 6549TIP3   OH241137   6.032   2.377   6.186  0.1281 -0.2926 -0.6163
 6549TIP3    H141138   6.115   2.348   6.222  0.0964 -0.6224 -0.8015
 6549TIP3    H241139   6.050   2.464   6.149 -0.1130  0.5462  1.1914
 6550TIP3   OH241140   5.888   1.944  13.692  0.0230 -0.0180 -0.4910
 6550TIP3    H141141   5.864   2.006  13.622 -1.6707  0.4296  0.4471
 6550TIP3    H241142   5.953   1.991  13.744  0.6306 -0.0102 -1.2510
 6551TIP3   OH241143   0.713   4.596   0.773 -0.0886 -0.2880  0.4671
 6551TIP3    H141144   0.717   4.514   0.821  0.1517  0.1099  1.1455
 6551TIP3    H241145   0.751   4.577   0.687  1.4363 -0.5025  1.1789
 6552TIP3   OH241146   3.178   0.337   1.121 -0.7380  0.2604 -0.2432
 6552TIP3    H141147   3.130   0.322   1.040  0.9190 -0.7536 -1.0577
 6552TIP3    H241148   3.267   0.360   1.093 -0.2054  0.1396  1.2806
 6553TIP3   OH241149   0.709   6.689  15.378 -0.0370  0.2127 -0.5493
 6553TIP3    H141150   0.651   6.636  15.433 -1.5324  2.6128  0.3067
 6553TIP3    H241151   0.772   6.726  15.440  1.7921 -1.5785 -1.3302
 6554TIP3   OH241152   2.489   0.923   1.329  0.0131  0.2212 -0.2883
 6554TIP3    H141153   2.502   0.860   1.259 -0.2092 -1.2979  0.9979
 6554TIP3    H241154   2.395   0.922   1.345 -0.0698  1.3625 -0.6923
 6555TIP3   OH241155   6.342   6.522   6.774 -0.3673  0.3780  0.9115
 6555TIP3    H141156   6.391   6.580   6.717 -0.4553 -0.4117  0.0279
 6555TIP3    H241157   6.260   6.569   6.791 -0.4143  0.5361  0.2546
 6556TIP3   OH241158   6.510   0.491   5.727  0.1912 -0.1088 -0.2789
 6556TIP3    H141159   6.423   0.452   5.729 -0.7866  1.9078 -1.3738
 6556TIP3    H241160   6.547   0.474   5.814 -2.0311  0.5740  0.8349
 6557TIP3   OH241161   2.521   1.374  10.314 -0.0692  0.0737  0.2111
 6557TIP3    H141162   2.428   1.372  10.337 -0.1121  0.3569  0.0668
 6557TIP3    H241163   2.556   1.293  10.351 -0.2448  0.2652  0.8067
 6558TIP3   OH241164   4.455   5.981  14.087 -0.3570  0.3388  0.0463
 6558TIP3    H141165   4.445   5.896  14.045  0.4161 -0.3784  1.2957
 6558TIP3    H241166   4.373   6.027  14.066 -0.6407 -0.5711 -0.9133
 6559TIP3   OH241167   5.384   5.091   6.319 -0.2558  0.2640  0.7712
 6559TIP3    H141168   5.452   5.038   6.277  0.7269  1.2497  1.0811
 6559TIP3    H241169   5.429   5.172   6.345 -1.3268  0.5448  1.8308
 6560TIP3   OH241170   6.472   5.160   3.573  0.3341  0.0419 -0.3418
 6560TIP3    H141171   6.382   5.129   3.589 -0.2033  1.4440 -0.5875
 6560TIP3    H241172   6.467   5.206   3.489  0.9915  1.3030  0.3067
 6561TIP3   OH241173   1.591   1.216   1.378 -0.1055 -0.3409  0.3976
 6561TIP3    H141174   1.571   1.165   1.457 -1.1145 -1.3258 -0.4761
 6561TIP3    H241175   1.668   1.173   1.341 -0.0474 -0.3046  0.4762
 6562TIP3   OH241176   2.295   0.132  13.007  0.4345  0.0698 -0.7342
 6562TIP3    H141177   2.371   0.076  12.993  1.3165  0.7870  0.9809
 6562TIP3    H241178   2.331   0.220  13.011 -0.2871  0.2974  1.4764
 6563TIP3   OH241179   4.272   3.900   4.433 -0.6235  0.4696 -0.2564
 6563TIP3    H141180   4.283   3.993   4.454 -1.7197  0.6380 -0.3621
 6563TIP3    H241181   4.177   3.887   4.433 -0.4766 -0.6597 -0.2171
 6564TIP3   OH241182   3.659   6.433   1.119 -0.2594 -0.6136  0.1321
 6564TIP3    H141183   3.647   6.476   1.034  1.2946  0.6344  0.5076
 6564TIP3    H241184   3.656   6.339   1.099  1.1720 -0.3543 -1.4959
 6565TIP3   OH241185   0.842   5.242  16.036 -0.2076  0.2943 -0.5668
 6565TIP3    H141186   0.919   5.232  16.091  0.4391  4.0750 -0.6333
 6565TIP3    H241187   0.856   5.180  15.964  2.6738  0.7340 -0.4475
 6566TIP3   OH241188   1.051   4.787   3.678 -0.2553  0.1133 -0.7272
 6566TIP3    H141189   0.965   4.822   3.654  0.7417  3.0769 -0.2086
 6566TIP3    H241190   1.114   4.841   3.630  1.3363 -2.0603 -1.1691
 6567TIP3   OH241191   1.327   6.014  12.194 -0.6593  0.5462  0.1587
 6567TIP3    H141192   1.403   5.960  12.173  0.1377  1.5641  0.3392
 6567TIP3    H241193   1.262   5.991  12.129  0.6336  1.3291 -1.4494
 6568TIP3   OH241194   2.962   1.432  14.255 -0.3577 -0.7737 -0.1947
 6568TIP3    H141195   2.938   1.508  14.309  0.7763 -0.9534  0.5819
 6568TIP3    H241196   2.965   1.359  14.317 -2.0020 -1.5932 -1.0354
 6569TIP3   OH241197   4.859   5.161  14.786 -0.0025  0.6169 -0.1175
 6569TIP3    H141198   4.815   5.145  14.869 -1.1282  1.1536 -0.5941
 6569TIP3    H241199   4.813   5.237  14.749  0.9347  0.8098 -0.9024
 6570TIP3   OH241200   1.797   3.415  12.593  0.1035  0.2071  0.6076
 6570TIP3    H141201   1.805   3.342  12.654 -0.4042  0.7397  1.3226
 6570TIP3    H241202   1.748   3.380  12.518  0.9496 -0.5150  0.3857
 6571TIP3   OH241203   4.050   4.001   5.015 -0.6076  0.2070  0.3500
 6571TIP3    H141204   4.068   3.980   4.923  0.8109  2.4424  0.0979
 6571TIP3    H241205   4.119   3.956   5.063  0.6168  1.7161  0.0426
 6572TIP3   OH241206   2.895   5.132  17.040 -0.2093 -0.3590 -0.3068
 6572TIP3    H141207   2.838   5.130  17.117  0.2699 -1.8944  0.0209
 6572TIP3    H241208   2.982   5.148  17.074 -0.0902 -0.3776 -0.6016
 6573TIP3   OH241209   0.627   2.370   5.777 -0.0728  0.5854  0.2474
 6573TIP3    H141210   0.569   2.308   5.820  0.8282 -0.3444  0.1598
 6573TIP3    H241211   0.706   2.371   5.832  0.2895  0.9269 -0.2725
 6574TIP3   OH241212   3.953   4.734   4.372  0.1451  0.2949  0.5763
 6574TIP3    H141213   4.013   4.664   4.399 -0.6025 -1.1462 -1.3352
 6574TIP3    H241214   4.010   4.808   4.351  1.0072  0.0443  1.9422
 6575TIP3   OH241215   4.609   5.835   3.193 -0.4727 -0.5185 -0.1619
 6575TIP3    H141216   4.703   5.842   3.179 -0.4619  2.9684  1.3123
 6575TIP3    H241217   4.571   5.849   3.106  0.2893  0.9263 -0.2791
 6576TIP3   OH241218   5.522   1.394  13.699  0.2381 -0.3221 -0.3145
 6576TIP3    H141219   5.617   1.382  13.704  0.3575  0.6455 -0.1751
 6576TIP3    H241220   5.511   1.485  13.673 -0.6571 -0.3558 -0.0616
 6577TIP3   OH241221   1.928   2.712  11.405 -0.2140  0.2193  0.3419
 6577TIP3    H141222   1.892   2.796  11.430 -1.3639 -0.2294  0.2112
 6577TIP3    H241223   1.903   2.702  11.313  3.3480  1.5383 -0.8640
 6578TIP3   OH241224   4.939   2.604   1.517  0.2755  0.1748  0.1729
 6578TIP3    H141225   4.929   2.699   1.507 -2.3031 -0.1377 -0.4459
 6578TIP3    H241226   4.875   2.580   1.584 -1.4594 -1.5902 -2.0715
 6579TIP3   OH241227   0.123   0.545   5.357  0.2021 -0.6135 -0.5704
 6579TIP3    H141228   0.056   0.497   5.308  1.6949 -2.1813 -1.1274
 6579TIP3    H241229   0.091   0.545   5.447 -1.3244  0.0579 -1.0991
 6580TIP3   OH241230   4.874   6.457  14.515 -0.0072 -0.0695 -0.6940
 6580TIP3    H141231   4.792   6.504  14.506 -0.7461 -1.3654 -0.7626
 6580TIP3    H241232   4.938   6.525  14.536 -0.8813  1.0820 -1.7096
 6581TIP3   OH241233   2.961   2.103   0.270  0.3578  0.3676  0.0756
 6581TIP3    H141234   2.994   2.096   0.360 -0.1677  0.9659  0.3199
 6581TIP3    H241235   2.881   2.050   0.270 -1.2754  2.7460  0.7753
 6582TIP3   OH241236   6.151   1.250  15.263  0.6209  0.2479  0.6447
 6582TIP3    H141237   6.129   1.233  15.355  0.4583  1.1953  0.7855
 6582TIP3    H241238   6.080   1.306  15.232 -1.3399 -2.9939 -1.1114
 6583TIP3   OH241239   5.665   1.071   5.018 -0.2465 -0.2368  0.0318
 6583TIP3    H141240   5.632   1.034   4.936 -2.1132 -0.3659  0.8114
 6583TIP3    H241241   5.667   1.165   5.002  0.3896 -0.3324 -0.4996
 6584TIP3   OH241242   1.650   4.819   3.262  0.3760 -0.4582  0.0451
 6584TIP3    H141243   1.682   4.735   3.295 -1.1058 -1.3858 -0.8666
 6584TIP3    H241244   1.560   4.803   3.236  0.1048  1.3928 -0.2636
 6585TIP3   OH241245   5.724   2.124   6.054 -0.4641 -0.3092 -0.0074
 6585TIP3    H141246   5.795   2.134   6.118  0.7126  0.5257 -1.3843
 6585TIP3    H241247   5.646   2.154   6.099  0.2620 -0.2196  1.2067
 6586TIP3   OH241248   6.794   4.596  12.111  0.1470  0.1716  0.2602
 6586TIP3    H141249   6.707   4.631  12.130  0.5046  1.6051 -0.6239
 6586TIP3    H241250   6.778   4.507  12.079 -1.0550  0.6468 -0.5072
 6587TIP3   OH241251   5.863   4.584   5.625 -0.6045 -0.1380 -0.0283
 6587TIP3    H141252   5.808   4.603   5.701 -0.7950 -0.6498 -0.0293
 6587TIP3    H241253   5.846   4.491   5.607  0.9752 -0.5643  0.5535
 6588TIP3   OH241254   4.947   3.653  17.093 -0.0022  0.3255  0.1076
 6588TIP3    H141255   5.000   3.691  17.023 -0.0868 -0.3987 -0.3521
 6588TIP3    H241256   4.867   3.704  17.094 -0.0854  0.2113 -0.4623
 6589TIP3   OH241257   5.516   0.598   1.024 -0.4251 -0.1082  0.2932
 6589TIP3    H141258   5.579   0.559   1.083 -0.9283 -0.2930  0.7139
 6589TIP3    H241259   5.439   0.615   1.079  0.0617  2.1821  0.2966
 6590TIP3   OH241260   4.905   1.227   3.928  0.2589 -0.2318  0.8556
 6590TIP3    H141261   4.831   1.231   3.989  0.8601  1.1716  1.5213
 6590TIP3    H241262   4.867   1.194   3.847 -1.6666  2.9464  0.3711
 6591TIP3   OH241263   0.266   5.923   1.080 -0.6148  0.5624 -0.3051
 6591TIP3    H141264   0.188   5.890   1.125 -0.6215  1.2333  0.1869
 6591TIP3    H241265   0.339   5.890   1.133 -0.6394  1.8479  0.5570
 6592TIP3   OH241266   1.430   6.171  10.535 -0.0397  0.1768 -0.5068
 6592TIP3    H141267   1.416   6.226  10.458 -0.8339 -2.2042 -2.1474
 6592TIP3    H241268   1.523   6.180  10.555 -0.3165  2.6887 -0.2532
 6593TIP3   OH241269   1.112   0.132  16.789  0.0359 -0.0864  0.1231
 6593TIP3    H141270   1.021   0.155  16.772 -0.0198 -0.4547 -0.0979
 6593TIP3    H241271   1.149   0.208  16.834 -0.9976 -0.8162  2.2756
 6594TIP3   OH241272   3.646   6.168  16.065 -0.1708 -0.0943  0.5780
 6594TIP3    H141273   3.725   6.202  16.106 -0.3183 -0.5645  1.2675
 6594TIP3    H241274   3.673   6.141  15.978 -0.0979  1.9961 -0.0832
 6595TIP3   OH241275   1.357   2.760   3.625  0.4313 -0.7188 -0.0116
 6595TIP3    H141276   1.312   2.675   3.627  0.9869 -0.9941  1.2462
 6595TIP3    H241277   1.445   2.740   3.596  0.2424 -0.4186 -0.7888
 6596TIP3   OH241278   2.188   1.313  12.722  0.1288 -0.2901 -0.1375
 6596TIP3    H141279   2.107   1.354  12.752  0.4095  2.5673 -2.9346
 6596TIP3    H241280   2.227   1.276  12.800 -2.8591  0.1380  1.6195
 6597TIP3   OH241281   4.158   0.100  14.996 -0.3991  0.5040  0.0345
 6597TIP3    H141282   4.095   0.062  14.935  0.3860 -0.2004 -0.3492
 6597TIP3    H241283   4.105   0.154  15.055 -1.4554 -0.7203  0.2264
 6598TIP3   OH241284   2.706   5.182   6.371  0.1359 -0.4660  0.0649
 6598TIP3    H141285   2.612   5.170   6.355 -0.0967  1.9448 -0.5375
 6598TIP3    H241286   2.735   5.098   6.406 -1.9458 -1.7320 -1.1311
 6599TIP3   OH241287   6.251   1.030  16.746 -0.0482  0.0605  0.1884
 6599TIP3    H141288   6.296   0.948  16.726 -2.0930 -0.7358 -1.2053
 6599TIP3    H241289   6.255   1.036  16.842  0.7190 -1.3062  0.2519
 6600TIP3   OH241290   3.169   6.119  10.888  0.3348 -0.4035 -0.2096
 6600TIP3    H141291   3.262   6.133  10.904 -0.0966 -1.4070  3.5580
 6600TIP3    H241292   3.153   6.028  10.912 -1.9164  0.2014  0.7418
 6601TIP3   OH241293   5.067   3.078   3.713  0.7923 -0.3755 -0.2504
 6601TIP3    H141294   5.049   3.101   3.622 -0.2657  0.6153  0.2024
 6601TIP3    H241295   4.982   3.082   3.756  1.2871 -0.8239  0.7928
 6602TIP3   OH241296   1.556   4.898   0.422 -0.1884 -0.3037 -0.0071
 6602TIP3    H141297   1.579   4.939   0.505 -2.9996  0.9237  0.2387
 6602TIP3    H241298   1.531   4.808   0.445  0.5328 -0.4421  0.2400
 6603TIP3   OH241299   0.208   2.680  14.539 -0.7131  0.5217  0.4627
 6603TIP3    H141300   0.201   2.775  14.552 -0.2405  0.6507 -0.2189
 6603TIP3    H241301   0.131   2.644  14.583 -1.0703  1.2496  0.4332
 6604TIP3   OH241302   2.455   2.781  11.813  0.4126  0.2788 -0.1074
 6604TIP3    H141303   2.362   2.772  11.792  0.9058  0.5477 -2.5553
 6604TIP3    H241304   2.456   2.837  11.891 -1.5392 -1.4253  1.2063
 6605TIP3   OH241305   5.324   5.099  13.605  0.2203 -0.4617  0.0510
 6605TIP3    H141306   5.300   5.031  13.542  0.9155  1.4989 -2.4373
 6605TIP3    H241307   5.265   5.172  13.585  0.6746  0.3132  1.4738
 6606TIP3   OH241308   5.647   0.335   4.346  0.5206 -0.3274  0.7120
 6606TIP3    H141309   5.583   0.265   4.361  0.6985 -0.7422 -0.4061
 6606TIP3    H241310   5.692   0.344   4.430 -1.1704  0.1584  1.5993
 6607TIP3   OH241311   2.499   3.492   6.114  0.1445  0.6770  0.7039
 6607TIP3    H141312   2.488   3.451   6.200  0.4586 -0.1201  0.3671
 6607TIP3    H241313   2.505   3.586   6.133 -0.3323  0.5492  1.5013
 6608TIP3   OH241314   4.378   1.618  14.338 -0.2046 -0.6772 -0.5150
 6608TIP3    H141315   4.457   1.623  14.393  0.6709 -1.1032 -1.7212
 6608TIP3    H241316   4.410   1.591  14.252 -1.6593 -0.7314 -1.0533
 6609TIP3   OH241317   0.038   4.748   0.467 -0.2984 -0.4066 -0.1591
 6609TIP3    H141318  -0.026   4.753   0.396 -0.3772 -2.1322 -0.2324
 6609TIP3    H241319   0.022   4.663   0.508  0.7446 -0.0700  0.9717
 6610TIP3   OH241320   0.421   2.358  11.014 -0.4708 -0.1777 -0.2867
 6610TIP3    H141321   0.330   2.361  11.041 -0.5546  0.0114 -0.5928
 6610TIP3    H241322   0.418   2.355  10.918 -0.1539 -0.0757 -0.2998
 6611TIP3   OH241323   1.101   1.945  13.847  0.2947 -0.1772  0.2776
 6611TIP3    H141324   1.150   1.867  13.874  0.9616 -0.3625 -1.4351
 6611TIP3    H241325   1.168   2.012  13.833 -0.1567  0.2901  0.3345
 6612TIP3   OH241326   0.437   0.398   1.776 -0.0865 -0.2144 -0.4837
 6612TIP3    H141327   0.428   0.476   1.722 -0.7377 -2.1038 -3.1653
 6612TIP3    H241328   0.351   0.386   1.816  0.5004  1.3973  1.3720
 6613TIP3   OH241329   1.311   1.656   2.804  0.2001 -0.0349  0.5860
 6613TIP3    H141330   1.234   1.709   2.783 -0.6908 -1.1799  0.9126
 6613TIP3    H241331   1.293   1.571   2.765  1.3191 -0.3026  0.6411
 6614TIP3   OH241332   0.588   5.479  11.512 -0.4275  0.1795  0.3181
 6614TIP3    H141333   0.582   5.552  11.573 -0.3957  0.0161  0.5203
 6614TIP3    H241334   0.500   5.440  11.512 -0.6152  0.5991 -0.2688
 6615TIP3   OH241335   5.230   1.714  14.097 -0.1982  0.0103  0.2585
 6615TIP3    H141336   5.322   1.737  14.109 -0.8112  3.8109 -1.7438
 6615TIP3    H241337   5.226   1.670  14.012 -0.3914  0.8819 -0.1867
 6616TIP3   OH241338   0.815   1.163   4.466 -0.2087  0.1121 -0.8011
 6616TIP3    H141339   0.801   1.252   4.497 -0.5883 -0.2316  0.0226
 6616TIP3    H241340   0.877   1.172   4.393  1.1706  0.8522  0.4504
 6617TIP3   OH241341   6.718   2.568   0.436 -0.2561  0.1503  0.0925
 6617TIP3    H141342   6.624   2.575   0.452 -0.4456  2.1982 -1.7189
 6617TIP3    H241343   6.728   2.587   0.343  2.0235  0.7394  0.4409
 6618TIP3   OH241344   3.969   5.624   2.890 -0.0522  0.3016  0.0755
 6618TIP3    H141345   4.002   5.621   2.979  0.1224  0.0632  0.0009
 6618TIP3    H241346   3.914   5.546   2.881 -1.6581  1.3509  0.6060
 6619TIP3   OH241347   4.711   0.259  16.376 -0.1470  0.7557 -0.0158
 6619TIP3    H141348   4.705   0.334  16.435  3.1790  1.8013 -0.8792
 6619TIP3    H241349   4.761   0.291  16.301  0.9106 -2.1814 -0.6247
 6620TIP3   OH241350   4.481   1.526   4.314  0.3006 -0.1341  0.2345
 6620TIP3    H141351   4.513   1.615   4.300  1.1228 -0.3401  0.7879
 6620TIP3    H241352   4.444   1.527   4.402 -3.0329  0.6211 -1.0866
 6621TIP3   OH241353   1.596   6.461   2.585 -0.2829 -0.4532 -0.3528
 6621TIP3    H141354   1.546   6.498   2.658 -0.2190 -0.6492 -0.2064
 6621TIP3    H241355   1.568   6.370   2.581 -1.6503  0.0272 -1.7757
 6622TIP3   OH241356   2.571   2.433   5.061 -0.4221  0.6930 -0.3054
 6622TIP3    H141357   2.482   2.468   5.058 -0.2145  1.2529 -0.0007
 6622TIP3    H241358   2.563   2.348   5.103 -0.6304  1.3212  0.9210
 6623TIP3   OH241359   1.712   5.511  15.089 -0.5243  0.2951  0.5602
 6623TIP3    H141360   1.764   5.431  15.097 -1.8518 -0.6665 -0.2134
 6623TIP3    H241361   1.776   5.579  15.069  0.8345 -0.2509  2.9016
 6624TIP3   OH241362   0.444   0.404   5.655 -0.2000 -0.7954 -0.4800
 6624TIP3    H141363   0.464   0.402   5.749 -1.7785  0.0513 -0.1031
 6624TIP3    H241364   0.355   0.368   5.649 -0.9474  1.1197 -1.3896
 6625TIP3   OH241365   0.776   3.255  16.420  0.4339  0.0602  0.6151
 6625TIP3    H141366   0.713   3.217  16.359 -0.4447  2.1380  0.1765
 6625TIP3    H241367   0.722   3.300  16.485  1.4250  1.3615  0.5676
 6626TIP3   OH241368   0.718   5.165   3.519  0.3114  0.2879 -0.5904
 6626TIP3    H141369   0.694   5.194   3.607 -1.1498  1.8187 -1.4579
 6626TIP3    H241370   0.782   5.231   3.489 -0.5870  0.8154 -1.3595
 6627TIP3   OH241371   6.458   5.970  14.375 -0.2003  0.5685 -0.2255
 6627TIP3    H141372   6.380   6.021  14.356  0.2531  1.3307 -0.0534
 6627TIP3    H241373   6.439   5.926  14.458 -0.9797 -0.3369 -0.8727
 6628TIP3   OH241374   6.674   0.380   1.541 -0.3220 -0.0401  0.3948
 6628TIP3    H141375   6.669   0.371   1.636  1.3115 -2.2745  0.3026
 6628TIP3    H241376   6.765   0.362   1.520 -0.8004 -0.1961 -1.6648
 6629TIP3   OH241377   3.529   2.247  14.804 -0.2441  0.4577  0.1249
 6629TIP3    H141378   3.612   2.265  14.848  0.7961 -1.3301 -1.0372
 6629TIP3    H241379   3.550   2.252  14.711 -0.8845 -2.2624 -0.2032
 6630TIP3   OH241380   2.349   2.152  11.711  0.7744  0.4424  0.4568
 6630TIP3    H141381   2.376   2.244  11.707 -0.9852  0.9436 -0.2407
 6630TIP3    H241382   2.338   2.135  11.804 -1.4236  1.7162  0.4623
 6631TIP3   OH241383   2.688   0.960  15.674 -0.0349 -0.1885  0.0907
 6631TIP3    H141384   2.714   0.883  15.724 -0.0497  0.2317  0.7444
 6631TIP3    H241385   2.682   1.030  15.738 -0.0407  0.3590 -0.5009
 6632TIP3   OH241386   3.291   1.108   2.333  0.1711 -0.2150 -0.3551
 6632TIP3    H141387   3.309   1.117   2.240 -1.7199 -1.6634 -0.8976
 6632TIP3    H241388   3.259   1.018   2.343 -0.0755  0.0681  1.6096
 6633TIP3   OH241389   2.871   5.067   0.147 -0.3431  0.4161  0.1009
 6633TIP3    H141390   2.890   5.152   0.106  0.5484  1.2325  2.1276
 6633TIP3    H241391   2.869   5.086   0.241 -1.1135 -1.6412  0.5301
 6634TIP3   OH241392   1.696   3.376   2.077 -0.9307 -0.3534 -0.0702
 6634TIP3    H141393   1.639   3.452   2.067 -0.3787 -0.1928 -2.2388
 6634TIP3    H241394   1.738   3.367   1.991 -0.6993 -2.8547  0.2859
 6635TIP3   OH241395   2.876   5.759  13.658 -0.6287  0.6473  0.5436
 6635TIP3    H141396   2.821   5.714  13.723 -2.0061  2.4121  0.6237
 6635TIP3    H241397   2.965   5.748  13.691 -1.0073 -1.2809  1.0077
 6636TIP3   OH241398   2.844   3.439  12.015  0.5672 -0.0586 -0.0615
 6636TIP3    H141399   2.781   3.484  11.959  1.3446  0.0697 -0.8462
 6636TIP3    H241400   2.916   3.502  12.026  2.0195 -1.3440 -1.8041
 6637TIP3   OH241401   6.206   2.560  11.680 -0.0742 -0.2650 -0.0977
 6637TIP3    H141402   6.154   2.566  11.600  1.9765  2.5222 -1.3021
 6637TIP3    H241403   6.173   2.631  11.735 -1.0777 -1.8077  1.3175
 6638TIP3   OH241404   3.829   1.487   1.773 -0.1797  0.0703 -0.6427
 6638TIP3    H141405   3.734   1.501   1.777 -0.4783 -2.2059  1.2845
 6638TIP3    H241406   3.866   1.572   1.794 -1.7365  1.6919 -4.0578
 6639TIP3   OH241407   1.837   4.828  12.726 -0.2961 -0.2238  0.5984
 6639TIP3    H141408   1.800   4.783  12.802 -0.1392 -0.3771  0.5843
 6639TIP3    H241409   1.779   4.806  12.654 -0.7719  0.3920  0.7942
 6640TIP3   OH241410   6.585   3.172   3.048 -0.6627  0.0836  0.3418
 6640TIP3    H141411   6.618   3.174   3.138  0.0304  0.4097  0.0895
 6640TIP3    H241412   6.513   3.109   3.049  0.2368 -0.9560  0.8340
 6641TIP3   OH241413   5.846   5.765  16.071 -0.3199 -0.0893  0.1383
 6641TIP3    H141414   5.857   5.847  16.023 -0.5405 -0.1888 -0.0838
 6641TIP3    H241415   5.888   5.781  16.156  0.0599  0.0900 -0.0827
 6642TIP3   OH241416   4.768   0.357   5.701  0.2854  0.0312 -0.1119
 6642TIP3    H141417   4.810   0.428   5.653 -0.5519 -0.3131 -1.3558
 6642TIP3    H241418   4.692   0.334   5.649  1.1302 -2.5085 -0.2599
 6643TIP3   OH241419   1.401   3.127  12.368 -0.0428  0.2558 -0.5194
 6643TIP3    H141420   1.322   3.176  12.391  0.3725  0.6974 -0.0465
 6643TIP3    H241421   1.377   3.036  12.385  0.2397  0.5503  1.6757
 6644TIP3   OH241422   5.122   1.909   2.348  0.0695 -0.2993  0.1934
 6644TIP3    H141423   5.080   1.985   2.308  1.3282  0.7233  0.7484
 6644TIP3    H241424   5.126   1.931   2.442  1.4722 -0.5290  0.1997
 6645TIP3   OH241425   0.407   3.211   2.891 -0.4829  0.9697 -0.4965
 6645TIP3    H141426   0.412   3.119   2.917  0.6645  0.9319 -0.8487
 6645TIP3    H241427   0.329   3.244   2.936  0.1128  0.2925  1.0853
 6646TIP3   OH241428   5.631   6.744  13.829  0.0632  0.1281 -0.5936
 6646TIP3    H141429   5.715   6.719  13.792 -1.0185 -0.4450 -2.7307
 6646TIP3    H241430   5.643   6.736  13.924  2.6993  1.0327 -0.8172
 6647TIP3   OH241431   5.879   0.667  15.174 -0.3112  0.3988  0.0406
 6647TIP3    H141432   5.885   0.729  15.247 -2.2764 -1.6424  2.0062
 6647TIP3    H241433   5.809   0.702  15.119  0.1569  1.1341 -0.1028
 6648TIP3   OH241434   5.281   1.932  11.463 -0.2417  0.1184  0.3184
 6648TIP3    H141435   5.209   1.972  11.512  0.1703  1.7516 -0.3804
 6648TIP3    H241436   5.264   1.957  11.372  0.8211 -0.0993  0.0587
 6649TIP3   OH241437   1.069   6.301   2.628  0.0354  0.2286  0.2702
 6649TIP3    H141438   1.076   6.383   2.676  2.3110  0.4697 -0.4194
 6649TIP3    H241439   1.037   6.327   2.541  0.3947  0.3298  0.1697
 6650TIP3   OH241440   0.468   5.126  11.762 -0.0516  0.2660  0.0666
 6650TIP3    H141441   0.395   5.082  11.805  1.0501 -0.4653  1.2440
 6650TIP3    H241442   0.544   5.103  11.816  1.3373 -0.4385 -2.1254
 6651TIP3   OH241443   1.433   6.276   3.706  0.4212 -0.4182  0.4053
 6651TIP3    H141444   1.502   6.211   3.717 -1.0045 -1.8212  1.1526
 6651TIP3    H241445   1.443   6.334   3.783 -0.2679 -1.5896  1.3869
 6652TIP3   OH241446   5.237   4.077   0.335  0.0040  0.2693  0.2775
 6652TIP3    H141447   5.233   4.129   0.415 -0.6922 -0.3586  0.6529
 6652TIP3    H241448   5.152   4.034   0.329  1.2817 -2.5579  1.1486
 6653TIP3   OH241449   3.020   1.149  11.207  0.2290  0.0506 -0.0919
 6653TIP3    H141450   2.988   1.148  11.117 -0.8843  2.8826  0.2240
 6653TIP3    H241451   2.941   1.151  11.261  0.8879 -0.1433  0.8979
 6654TIP3   OH241452   6.129   3.093  15.186  0.0081 -0.0283 -0.1722
 6654TIP3    H141453   6.126   3.000  15.208  0.9495  0.0638  0.3720
 6654TIP3    H241454   6.168   3.135  15.262 -0.0313  0.7625 -0.5809
 6655TIP3   OH241455   0.720   0.170   3.903  0.1543  0.2897 -0.4197
 6655TIP3    H141456   0.735   0.235   3.972  1.9649  0.9600 -1.4015
 6655TIP3    H241457   0.628   0.180   3.880 -0.5230 -0.0809  2.0365
 6656TIP3   OH241458   0.708   2.487  15.125  0.8667 -0.4566 -0.0028
 6656TIP3    H141459   0.738   2.448  15.043  1.1189  0.8145 -0.5288
 6656TIP3    H241460   0.694   2.579  15.104  1.4623  0.0035  1.5211
 6657TIP3   OH241461   4.825   2.843   0.022 -0.2904  0.0518  0.0138
 6657TIP3    H141462   4.752   2.827   0.082 -1.6238 -0.8887 -1.8397
 6657TIP3    H241463   4.899   2.797   0.062 -1.0273 -0.1047  1.2150
 6658TIP3   OH241464   5.325   2.084   3.663  0.2397 -0.5293  0.1187
 6658TIP3    H141465   5.381   2.019   3.706  1.5509 -0.0311 -0.8077
 6658TIP3    H241466   5.379   2.119   3.592 -0.7231  1.0564  0.1494
 6659TIP3   OH241467   5.895   0.698   4.719  0.8307  1.1892 -0.6046
 6659TIP3    H141468   5.913   0.755   4.793  0.3962  1.6137 -0.8235
 6659TIP3    H241469   5.966   0.634   4.720  0.5944  0.9282  0.4419
 6660TIP3   OH241470   1.788   5.270   2.582 -0.5490  0.2338 -0.7314
 6660TIP3    H141471   1.761   5.222   2.504  0.4106  1.0136 -1.5516
 6660TIP3    H241472   1.725   5.242   2.649  0.0077 -2.2057 -1.1603
 6661TIP3   OH241473   5.415   5.886   3.058  0.0087  0.0111  0.6852
 6661TIP3    H141474   5.487   5.854   3.113  0.6300 -1.1207 -0.7428
 6661TIP3    H241475   5.455   5.951   3.001  0.3564 -1.9218 -1.3677
 6662TIP3   OH241476   2.887   0.479  10.429  0.0623  0.3086 -0.1738
 6662TIP3    H141477   2.981   0.484  10.415  0.1784 -1.3603 -0.0210
 6662TIP3    H241478   2.876   0.416  10.500 -1.2858 -1.1566 -1.6440
 6663TIP3   OH241479   5.685   5.644  13.139  0.4242  0.1470  0.1279
 6663TIP3    H141480   5.745   5.606  13.075 -0.2810 -0.8319  0.0359
 6663TIP3    H241481   5.649   5.568  13.185  1.4581  0.8531  2.1720
 6664TIP3   OH241482   2.347   4.250   4.034 -0.6731  0.3089 -0.2486
 6664TIP3    H141483   2.396   4.169   4.025 -0.4925  0.6372 -2.5191
 6664TIP3    H241484   2.311   4.247   4.122  2.9504 -0.1950  1.3041
 6665TIP3   OH241485   0.699   4.861   2.782 -0.0921 -0.1346 -0.2574
 6665TIP3    H141486   0.617   4.830   2.822 -0.3132  0.7282 -0.0301
 6665TIP3    H241487   0.725   4.935   2.836 -0.6771  1.4039 -2.0283
 6666TIP3   OH241488   4.574   6.158  13.154 -0.0311  0.2883  0.5534
 6666TIP3    H141489   4.644   6.198  13.206 -0.0329  1.9505 -0.6750
 6666TIP3    H241490   4.584   6.198  13.067  0.1588 -2.6451 -0.8179
 6667TIP3   OH241491   4.246   1.752   4.881 -1.0846  0.5402 -0.0435
 6667TIP3    H141492   4.296   1.676   4.853  0.0288  1.2934 -0.1388
 6667TIP3    H241493   4.292   1.783   4.959 -2.0253  0.6202  0.4886
 6668TIP3   OH241494   2.092   2.602   3.713  0.2579 -0.4682 -0.4089
 6668TIP3    H141495   2.162   2.664   3.696  0.9907 -0.2479  2.9907
 6668TIP3    H241496   2.118   2.522   3.668  2.1213 -0.0209 -0.1381
 6669TIP3   OH241497   2.620   5.536   3.068 -0.0957 -0.0067  0.5959
 6669TIP3    H141498   2.712   5.561   3.067 -0.0921  0.1190  2.6204
 6669TIP3    H241499   2.575   5.610   3.108 -1.1215  0.0142 -0.5461
 6670TIP3   OH241500   0.729   1.290   5.864 -0.4866  0.3512  0.4347
 6670TIP3    H141501   0.717   1.232   5.939 -0.7731  0.4797  0.4870
 6670TIP3    H241502   0.645   1.287   5.818 -0.4047  0.4972  0.2775
 6671TIP3   OH241503   1.108   4.406  10.703 -0.4666 -0.2470 -0.7416
 6671TIP3    H141504   1.141   4.446  10.622 -2.1659  2.1329 -0.3064
 6671TIP3    H241505   1.130   4.469  10.771 -0.0497 -1.7302  0.5265
 6672TIP3   OH241506   0.088   1.429  15.699  0.2559 -0.4380 -0.5502
 6672TIP3    H141507   0.029   1.468  15.763  3.3689  1.3979  1.3206
 6672TIP3    H241508   0.159   1.393  15.751  2.2997  0.0589 -2.9002
 6673TIP3   OH241509   6.231   1.519   4.409  0.2674 -0.3332  0.4726
 6673TIP3    H141510   6.276   1.481   4.334 -0.6757  2.4266 -1.5468
 6673TIP3    H241511   6.300   1.530   4.475  1.4146 -1.3601 -0.5425
 6674TIP3   OH241512   5.608   2.189   1.640  0.2626 -0.1035  0.1371
 6674TIP3    H141513   5.657   2.158   1.564  3.3390  1.8357  1.2773
 6674TIP3    H241514   5.557   2.263   1.607 -0.9645 -1.2876 -0.7236
 6675TIP3   OH241515   5.265   4.510  11.986  0.6789 -0.2867  0.0880
 6675TIP3    H141516   5.290   4.422  12.014  2.0436  0.2660  0.6779
 6675TIP3    H241517   5.241   4.501  11.894  0.3910 -1.3460  0.2634
 6676TIP3   OH241518   4.942   1.486   3.757  0.2516  0.3440  0.1380
 6676TIP3    H141519   4.958   1.562   3.700 -1.3605  0.9745  0.4967
 6676TIP3    H241520   4.860   1.449   3.725 -0.1679  0.1265  1.4334
 6677TIP3   OH241521   3.529   4.007   2.292 -0.1622  0.2453  0.1289
 6677TIP3    H141522   3.556   4.014   2.384 -0.3476  0.4544  0.1656
 6677TIP3    H241523   3.563   4.086   2.251  1.4454 -0.6682 -0.3625
 6678TIP3   OH241524   6.021   6.143  14.606  0.0247 -0.4933 -0.4731
 6678TIP3    H141525   6.105   6.188  14.619 -1.1799  1.5722  0.4648
 6678TIP3    H241526   5.976   6.152  14.690 -1.3442 -1.1360 -1.1148
 6679TIP3   OH241527   1.946   2.411  13.120 -0.3201  0.4824 -0.2050
 6679TIP3    H141528   1.885   2.371  13.058 -1.4497 -0.5391  1.5286
 6679TIP3    H241529   1.936   2.505  13.104 -1.0690  0.2657 -1.1266
 6680TIP3   OH241530   1.201   3.664  13.710  0.0385 -0.6829  0.0266
 6680TIP3    H141531   1.222   3.720  13.785  0.3817  1.5622 -1.7024
 6680TIP3    H241532   1.107   3.677  13.697  0.1835 -0.2590 -0.5849
 6681TIP3   OH241533   4.311   5.076   1.672 -0.1478 -0.2033  0.3744
 6681TIP3    H141534   4.321   4.985   1.700  0.4049  0.1867  1.4999
 6681TIP3    H241535   4.217   5.094   1.682  0.0904  0.0592  2.4980
 6682TIP3   OH241536   1.499   1.510   1.355 -0.0136  0.1308  0.2908
 6682TIP3    H141537   1.427   1.520   1.292 -1.6473  1.5139  2.3423
 6682TIP3    H241538   1.515   1.598   1.388  1.5495 -0.4167  1.0662
 6683TIP3   OH241539   1.014   6.554   6.172 -0.1095 -0.1002  0.4776
 6683TIP3    H141540   1.053   6.611   6.239  1.7896  0.3013 -0.9021
 6683TIP3    H241541   0.946   6.608   6.132 -0.1572  0.2448  1.0219
 6684TIP3   OH241542   5.655   0.273  17.225  0.5189 -0.6436  0.2664
 6684TIP3    H141543   5.648   0.219  17.147 -2.3637  1.1643 -0.7997
 6684TIP3    H241544   5.592   0.235  17.286 -0.5796  0.6951 -0.0107
 6685TIP3   OH241545   0.615   5.233   1.655 -0.6439  0.5808  0.4641
 6685TIP3    H141546   0.632   5.311   1.602 -0.3378  0.7822  0.8546
 6685TIP3    H241547   0.531   5.201   1.624  0.5954 -0.6294 -1.7524
 6686TIP3   OH241548   0.211   6.785   1.300  0.7173  0.4723  0.4368
 6686TIP3    H141549   0.157   6.781   1.379 -0.5416 -2.1227 -0.4888
 6686TIP3    H241550   0.298   6.756   1.329  1.1329  2.6804  1.5083
 6687TIP3   OH241551   0.787   3.077  14.180 -0.6016 -0.0487 -0.1749
 6687TIP3    H141552   0.705   3.123  14.165 -0.7830 -0.0457  0.7753
 6687TIP3    H241553   0.810   3.039  14.095 -0.7643  1.2624 -0.8205
 6688TIP3   OH241554   5.233   5.607   4.638  0.2825 -0.3600  0.2198
 6688TIP3    H141555   5.185   5.580   4.716  1.5894 -2.3842  0.3735
 6688TIP3    H241556   5.189   5.563   4.566  0.7618 -0.7361  0.1513
 6689TIP3   OH241557   6.181   6.179   1.551 -0.0478  0.2332 -0.1516
 6689TIP3    H141558   6.182   6.088   1.581  1.0899 -0.7542 -3.0255
 6689TIP3    H241559   6.136   6.176   1.466  0.1818  2.3195 -0.3738
 6690TIP3   OH241560   3.082   3.017  12.654  0.0774  0.1267 -0.4382
 6690TIP3    H141561   3.136   3.035  12.578 -0.3505  1.6614 -0.3980
 6690TIP3    H241562   3.122   2.940  12.695  2.0777  1.0922 -0.5256
 6691TIP3   OH241563   1.248   3.591  12.488 -0.3445  0.4343 -0.2953
 6691TIP3    H141564   1.252   3.496  12.491 -0.9459  0.4240  0.2355
 6691TIP3    H241565   1.277   3.614  12.399  1.9968 -0.1257  0.3094
 6692TIP3   OH241566   0.739   3.283  13.089  0.4741  0.2360  0.8016
 6692TIP3    H141567   0.647   3.300  13.111 -0.8048 -2.2624 -2.2368
 6692TIP3    H241568   0.746   3.188  13.091  3.2564  0.4162  1.7129
 6693TIP3   OH241569   6.181   0.228   3.326  0.3470 -0.3895 -0.5112
 6693TIP3    H141570   6.140   0.142   3.337  0.5506 -0.2846  1.1721
 6693TIP3    H241571   6.131   0.269   3.255 -0.9701 -1.1714 -0.0618
 6694TIP3   OH241572   4.103   2.270   3.408  0.4091  0.2988 -0.2789
 6694TIP3    H141573   4.030   2.254   3.468  0.8571 -1.0754 -0.0698
 6694TIP3    H241574   4.180   2.241   3.457  1.2118  2.5671 -0.1658
 6695TIP3   OH241575   1.640   3.855   0.930 -0.1218  0.0575 -0.6247
 6695TIP3    H141576   1.558   3.806   0.928  0.1703 -0.5660  1.3688
 6695TIP3    H241577   1.613   3.946   0.922 -1.1084 -0.0723  1.0133
 6696TIP3   OH241578   2.767   0.203   0.482 -0.2837 -0.6799 -0.3022
 6696TIP3    H141579   2.739   0.197   0.573 -1.1423 -0.0214 -0.5097
 6696TIP3    H241580   2.686   0.196   0.431 -0.1211  1.4286 -0.9103
 6697TIP3   OH241581   1.231   2.419  16.464 -0.7608 -0.2376 -0.1761
 6697TIP3    H141582   1.259   2.329  16.446  0.5384 -0.2273  1.6677
 6697TIP3    H241583   1.272   2.471  16.395 -1.4797 -1.0520 -1.2218
 6698TIP3   OH241584   2.245   2.363  17.151  0.2710 -0.4014 -1.0757
 6698TIP3    H141585   2.201   2.295  17.202  1.9088  0.5639  1.7261
 6698TIP3    H241586   2.318   2.318  17.109  0.2671 -0.7694 -0.6961
 6699TIP3   OH241587   6.631   5.166   2.699 -0.7115  0.1804  0.0902
 6699TIP3    H141588   6.626   5.098   2.631  0.1082 -1.1146  1.2839
 6699TIP3    H241589   6.711   5.214   2.679 -0.7067  0.0830 -0.1230
 6700TIP3   OH241590   5.226   6.570  11.256  0.0661  0.0008  0.1036
 6700TIP3    H141591   5.258   6.602  11.172 -0.7510 -2.0369 -1.0166
 6700TIP3    H241592   5.167   6.638  11.288  2.8372  2.2767  0.6059
 6701TIP3   OH241593   4.503   4.021   7.051 -0.4634 -0.7370 -0.2531
 6701TIP3    H141594   4.452   3.970   7.115  2.5059 -0.0245  2.8448
 6701TIP3    H241595   4.593   3.990   7.062  0.7054  2.0942 -1.3972
 6702TIP3   OH241596   6.739   5.768  12.672  0.2692  0.0662 -0.0995
 6702TIP3    H141597   6.647   5.781  12.697  0.0621 -0.4186 -0.5736
 6702TIP3    H241598   6.783   5.745  12.753 -0.3924 -1.4863 -0.1441
 6703TIP3   OH241599   6.128   4.107  12.160 -0.2281  0.1319  0.5354
 6703TIP3    H141600   6.076   4.134  12.084 -2.6553  1.5549  2.6174
 6703TIP3    H241601   6.111   4.174  12.226  2.2437 -0.7992  2.1908
 6704TIP3   OH241602   0.413   6.330   2.772 -0.0897 -0.2331  0.4613
 6704TIP3    H141603   0.484   6.291   2.721 -0.3807 -1.7646  1.2023
 6704TIP3    H241604   0.415   6.283   2.856 -1.3526  0.3684  0.8381
 6705TIP3   OH241605   4.396   2.627  12.721 -0.8462 -0.2427  0.5510
 6705TIP3    H141606   4.434   2.631  12.809  0.3932  0.6489 -0.0012
 6705TIP3    H241607   4.338   2.702  12.716 -0.9680 -0.3311  0.6296
 6706TIP3   OH241608   5.932   6.021  16.687 -0.4184  0.0721  0.8125
 6706TIP3    H141609   5.980   6.085  16.740 -0.2958  0.4792  0.2272
 6706TIP3    H241610   5.868   6.074  16.639  0.0235 -0.1730 -0.0611
 6707TIP3   OH241611   1.407   4.854   1.467 -0.4065  0.4257  0.2573
 6707TIP3    H141612   1.440   4.772   1.504  1.1136  1.9097  2.3040
 6707TIP3    H241613   1.318   4.862   1.501 -0.7687 -0.6298 -0.4074
 6708TIP3   OH241614   2.802   3.210   0.746  0.3545 -0.2089 -0.6409
 6708TIP3    H141615   2.809   3.293   0.698 -0.4830  0.3532  0.2135
 6708TIP3    H241616   2.874   3.213   0.810  0.9436 -0.5894 -1.2709
 6709TIP3   OH241617   0.652   5.649  14.511 -0.4295 -0.5233 -0.4743
 6709TIP3    H141618   0.674   5.706  14.437 -3.1375  1.0664 -0.1011
 6709TIP3    H241619   0.730   5.651  14.567  0.7985  0.0368 -2.1675
 6710TIP3   OH241620   3.937   6.185   2.810 -0.2391 -0.0140  0.7436
 6710TIP3    H141621   3.897   6.232   2.883 -2.2903  1.1748 -1.0998
 6710TIP3    H241622   3.884   6.209   2.734  1.4242 -1.7873 -1.0222
 6711TIP3   OH241623   3.288   2.424  12.047  0.7604 -0.1081  0.1274
 6711TIP3    H141624   3.235   2.466  11.980  0.2799 -0.1976  0.4453
 6711TIP3    H241625   3.285   2.331  12.025  0.3094 -0.1800  0.4656
 6712TIP3   OH241626   5.727   0.029   5.513  0.4671 -0.3969  0.5345
 6712TIP3    H141627   5.669   0.075   5.573  1.0401 -1.7027  2.1615
 6712TIP3    H241628   5.708  -0.064   5.527 -0.4965 -0.7036 -2.4913
 6713TIP3   OH241629   3.995   2.809  12.955 -0.0953 -0.3686  0.1588
 6713TIP3    H141630   4.045   2.728  12.953  0.3481 -0.0932  0.0249
 6713TIP3    H241631   3.907   2.784  12.928  0.0598 -0.7925  0.0506
 6714TIP3   OH241632   3.589   2.048  13.703  0.8833 -0.4267  0.1929
 6714TIP3    H141633   3.618   2.096  13.781  1.8138 -0.7948  0.0870
 6714TIP3    H241634   3.550   1.968  13.738  0.5577 -0.2120  0.3167
 6715TIP3   OH241635   3.048   1.968   5.715  0.0108  0.8148 -0.6166
 6715TIP3    H141636   2.990   1.991   5.642 -1.9168 -0.9588  0.2966
 6715TIP3    H241637   3.126   1.932   5.673 -0.7519  0.5329 -1.8256
 6716TIP3   OH241638   0.224   6.524  14.623 -0.2812  0.1627  0.4271
 6716TIP3    H141639   0.213   6.605  14.574 -0.6645  0.1425  0.4766
 6716TIP3    H241640   0.144   6.517  14.675 -0.6136 -0.6598 -0.1860
 6717TIP3   OH241641   5.817   0.852   5.380  0.1987  0.0581 -0.3095
 6717TIP3    H141642   5.896   0.805   5.352  0.5077  0.0485  0.5743
 6717TIP3    H241643   5.787   0.804   5.457  0.1661  0.9337  0.2335
 6718TIP3   OH241644   6.492   6.533   0.654 -0.3940  0.0185  0.2697
 6718TIP3    H141645   6.560   6.539   0.721  1.6314 -0.4283 -1.6782
 6718TIP3    H241646   6.428   6.600   0.679  0.6091  0.2560  2.2993
 6719TIP3   OH241647   2.467   3.228   6.297  1.3656 -0.2121  0.5301
 6719TIP3    H141648   2.475   3.151   6.353  1.2689  0.6577  1.7592
 6719TIP3    H241649   2.469   3.193   6.208  0.8826 -1.6807  1.0745
 6720TIP3   OH241650   6.532   0.847   3.362  0.1331 -0.5931  0.4930
 6720TIP3    H141651   6.465   0.792   3.404 -0.5265 -0.5073 -0.4256
 6720TIP3    H241652   6.496   0.865   3.275  1.0189  0.0802  0.2673
 6721TIP3   OH241653   6.764   6.391  15.511  0.2034 -0.3056 -0.2688
 6721TIP3    H141654   6.782   6.468  15.565 -0.0487 -1.4365  1.4399
 6721TIP3    H241655   6.753   6.319  15.573 -0.1723 -1.6192 -1.8149
 6722TIP3   OH241656   5.884   2.856  13.399 -0.3229 -0.9944 -0.0531
 6722TIP3    H141657   5.922   2.922  13.456 -2.3255  1.8095 -1.8167
 6722TIP3    H241658   5.957   2.824  13.346  0.6960 -0.3506  0.9459
 6723TIP3   OH241659   3.578   1.011   5.186 -0.4201 -0.4529  0.2986
 6723TIP3    H141660   3.546   1.099   5.207 -0.8582  0.1892 -2.6884
 6723TIP3    H241661   3.509   0.952   5.215 -1.5261  0.4554 -0.4515
 6724TIP3   OH241662   5.416   0.432   2.263  0.1077 -0.1145  0.4981
 6724TIP3    H141663   5.417   0.470   2.351  0.6860  0.1712  0.3707
 6724TIP3    H241664   5.411   0.337   2.279 -0.8112 -0.0175  0.8176
 6725TIP3   OH241665   1.961   5.510  13.672  0.0352  0.4347  0.0617
 6725TIP3    H141666   2.028   5.487  13.608 -0.5444 -0.0637 -0.3766
 6725TIP3    H241667   1.938   5.601  13.651 -0.0320  0.3274 -0.3379
 6726TIP3   OH241668   4.671   4.575  12.854  0.0960  0.2421 -0.3310
 6726TIP3    H141669   4.696   4.566  12.762 -0.5311  0.2745 -0.5072
 6726TIP3    H241670   4.687   4.489  12.892  3.1371  0.9747  0.2332
 6727TIP3   OH241671   1.302   2.037  12.198  0.4692 -0.0757 -0.8682
 6727TIP3    H141672   1.257   2.119  12.221  0.1080 -0.0823 -1.5295
 6727TIP3    H241673   1.241   1.992  12.141  1.5337  0.1534 -2.2134
 6728TIP3   OH241674   1.041   3.569   4.918  0.2592  0.0743 -0.0251
 6728TIP3    H141675   1.041   3.642   4.856 -0.0194  1.4746  1.5753
 6728TIP3    H241676   1.023   3.610   5.002 -0.7558 -1.9807  0.7740
 6729TIP3   OH241677   5.786   2.568   5.933  0.4132 -0.1949 -0.4226
 6729TIP3    H141678   5.771   2.532   6.020 -2.5626 -1.0920 -1.2526
 6729TIP3    H241679   5.833   2.500   5.886  0.9021 -0.2113  0.0912
 6730TIP3   OH241680   6.649   0.885   5.427 -0.3308  0.0534 -0.8914
 6730TIP3    H141681   6.740   0.894   5.455 -0.3953  1.2164 -1.0160
 6730TIP3    H241682   6.611   0.823   5.489  0.2239  0.5290 -0.0601
 6731TIP3   OH241683   1.271   1.730  16.725  0.2037 -0.2597  0.1349
 6731TIP3    H141684   1.335   1.666  16.756  1.3127  0.6084 -0.3161
 6731TIP3    H241685   1.194   1.716  16.780  0.7017 -1.4667  0.5371
 6732TIP3   OH241686   4.484   3.207   5.229 -1.0291 -0.0934 -0.8308
 6732TIP3    H141687   4.579   3.212   5.230 -0.9019 -1.9451 -0.4305
 6732TIP3    H241688   4.454   3.297   5.223  0.7487  0.5026 -0.8568
 6733TIP3   OH241689   5.984   6.242  15.674  0.6789  0.0327  0.1781
 6733TIP3    H141690   5.900   6.222  15.715 -0.7523  0.5085 -2.3931
 6733TIP3    H241691   6.004   6.165  15.621  2.3880 -0.4862  1.5327
 6734TIP3   OH241692   6.820   1.370  16.713 -0.1774  0.4872  0.1089
 6734TIP3    H141693   6.845   1.316  16.638 -0.7745 -0.5568  0.6491
 6734TIP3    H241694   6.868   1.452  16.701  1.8013 -0.6596  0.0086
 6735TIP3   OH241695   6.334   0.468  14.034  0.1201 -0.5871  0.0305
 6735TIP3    H141696   6.352   0.493  13.944 -0.3795 -1.3261 -0.2857
 6735TIP3    H241697   6.414   0.422  14.063  1.2728  1.8367  0.8148
 6736TIP3   OH241698   1.298   4.741   4.385 -0.1246  0.6135 -0.0007
 6736TIP3    H141699   1.236   4.728   4.314  0.6373 -0.9123 -0.4205
 6736TIP3    H241700   1.287   4.663   4.440  0.6198  0.8677  0.5175
 6737TIP3   OH241701   0.204   2.564  16.156 -0.2251  0.5432  0.2570
 6737TIP3    H141702   0.282   2.507  16.154 -0.9623 -0.4334 -0.9977
 6737TIP3    H241703   0.218   2.626  16.084 -0.3431  0.7147  0.3848
 6738TIP3   OH241704   5.774   4.620   6.203  0.4653 -0.1066 -0.1368
 6738TIP3    H141705   5.711   4.548   6.205 -0.4490  0.6611 -0.6460
 6738TIP3    H241706   5.786   4.644   6.295 -0.2092 -0.0738 -0.0518
 6739TIP3   OH241707   2.526   1.741  10.715 -0.1958 -0.8682  0.9663
 6739TIP3    H141708   2.491   1.703  10.634  0.6768  0.3730 -0.0142
 6739TIP3    H241709   2.451   1.741  10.776 -1.1704 -0.7717 -0.2048
 6740TIP3   OH241710   3.906   2.451  12.490  0.2658 -0.1886  0.2049
 6740TIP3    H141711   3.826   2.462  12.541 -0.3040 -1.1782 -0.4495
 6740TIP3    H241712   3.888   2.494  12.406  0.1124 -1.1106 -0.2438
 6741TIP3   OH241713   4.362   4.487   6.288 -0.0655  0.3606  0.8831
 6741TIP3    H141714   4.451   4.509   6.261  0.4573 -1.9313  0.6853
 6741TIP3    H241715   4.310   4.491   6.208 -0.0748  1.2687  0.9253
 6742TIP3   OH241716   5.647   0.246   2.232  0.4455  0.0387 -0.1109
 6742TIP3    H141717   5.631   0.338   2.212  0.9117  0.3160  0.7808
 6742TIP3    H241718   5.569   0.217   2.280  0.1002 -0.1545 -0.7855
 6743TIP3   OH241719   5.653   0.849   3.168 -0.7524  0.7800  0.7045
 6743TIP3    H141720   5.709   0.837   3.091 -0.0550 -0.7120  1.4275
 6743TIP3    H241721   5.566   0.866   3.132 -0.7682 -1.5331 -0.4312
 6744TIP3   OH241722   4.849   4.033  11.726  0.3705  0.5834 -0.5359
 6744TIP3    H141723   4.852   4.009  11.819  2.3001 -1.5953 -1.1012
 6744TIP3    H241724   4.758   4.019  11.701  0.2600 -0.8668  0.5461
 6745TIP3   OH241725   1.345   4.567  15.275 -0.1820  0.1268 -0.4578
 6745TIP3    H141726   1.250   4.561  15.268 -0.2248 -0.2717  0.3101
 6745TIP3    H241727   1.368   4.500  15.340  0.3929  1.6518  0.9686
 6746TIP3   OH241728   2.850   4.267  15.200 -0.2377 -0.5288 -0.1921
 6746TIP3    H141729   2.938   4.275  15.165  1.4496  1.0910  4.1667
 6746TIP3    H241730   2.807   4.349  15.177  0.2291 -0.2777 -0.1640
 6747TIP3   OH241731   6.517   5.838   2.744  0.3715  0.1303  0.1085
 6747TIP3    H141732   6.547   5.850   2.834  0.4733  0.0539  0.0844
 6747TIP3    H241733   6.559   5.757   2.715 -1.8085 -1.3130  0.8953
 6748TIP3   OH241734   2.330   4.955   0.895 -0.0477 -0.1785  0.5357
 6748TIP3    H141735   2.336   4.941   0.989 -1.6625  0.0963  0.7095
 6748TIP3    H241736   2.236   4.950   0.876  0.3757 -1.7679 -1.3121
 6749TIP3   OH241737   1.325   5.621  14.089 -0.0211 -0.2869 -0.1374
 6749TIP3    H141738   1.321   5.574  14.006  1.2148 -0.4532 -0.1094
 6749TIP3    H241739   1.305   5.712  14.066  0.8377 -0.2342 -0.7007
 6750TIP3   OH241740   4.702   1.327  11.771 -0.0327  0.0160  0.0263
 6750TIP3    H141741   4.675   1.391  11.837 -0.5298 -0.7388  0.5701
 6750TIP3    H241742   4.699   1.243  11.816  1.3513 -0.3175 -0.4665
 6751TIP3   OH241743   3.773   3.142   4.104  0.4852  0.0639  0.0673
 6751TIP3    H141744   3.701   3.091   4.140  0.2169  0.2864 -0.1496
 6751TIP3    H241745   3.743   3.167   4.017  0.5563  0.7055  0.2220
 6752TIP3   OH241746   5.962   6.348  10.578  0.8104  0.4740 -0.2379
 6752TIP3    H141747   5.891   6.372  10.639  0.1351 -0.1078 -0.7957
 6752TIP3    H241748   6.018   6.289  10.628  0.0560 -0.2897 -0.3052
 6753TIP3   OH241749   1.782   2.193   2.862  0.0577 -0.0863  0.3106
 6753TIP3    H141750   1.779   2.116   2.804  0.3075 -1.6314  2.2847
 6753TIP3    H241751   1.691   2.207   2.887  0.0182  0.2315 -0.0135
 6754TIP3   OH241752   0.082   3.427   1.814 -0.5548  0.0407  0.1944
 6754TIP3    H141753   0.145   3.418   1.742 -1.2872  0.2708 -0.4815
 6754TIP3    H241754   0.115   3.501   1.865 -1.1924  1.2579 -1.1255
 6755TIP3   OH241755   5.741   0.604  12.435  0.4056 -0.6821  0.6307
 6755TIP3    H141756   5.690   0.545  12.490 -0.8756  1.1964  1.5111
 6755TIP3    H241757   5.790   0.658  12.497  0.0247  0.5202 -0.1054
 6756TIP3   OH241758   0.686   2.492   1.825  0.7076  0.1657  0.0370
 6756TIP3    H141759   0.693   2.530   1.738 -2.1557  2.7285  0.8422
 6756TIP3    H241760   0.738   2.549   1.881  0.0540  0.3213  0.4993
 6757TIP3   OH241761   5.799   4.980  13.663 -0.2948  0.1912 -0.0051
 6757TIP3    H141762   5.752   5.025  13.733 -2.6297 -0.8000 -0.9037
 6757TIP3    H241763   5.733   4.927  13.619  1.7053 -1.4266 -1.1709
 6758TIP3   OH241764   4.367   1.948  13.918 -0.1545 -0.0527  0.2092
 6758TIP3    H141765   4.429   1.996  13.973 -0.4922  1.0508 -0.3631
 6758TIP3    H241766   4.419   1.917  13.844 -0.4078  1.4881 -0.6400
 6759TIP3   OH241767   1.770   5.717  16.639 -0.1191 -0.5761  0.3058
 6759TIP3    H141768   1.782   5.800  16.593  3.0663 -0.6507  0.9231
 6759TIP3    H241769   1.678   5.719  16.667 -0.2819  2.4425 -0.2660
 6760TIP3   OH241770   4.756   1.111   2.650 -1.0690 -0.6926 -0.0011
 6760TIP3    H141771   4.778   1.204   2.648  0.2850 -0.8759  3.0968
 6760TIP3    H241772   4.664   1.108   2.622 -1.5740  1.7360  1.2437
 6761TIP3   OH241773   3.038   6.127   4.687  0.1168  0.1444  0.8232
 6761TIP3    H141774   2.978   6.053   4.684 -0.0902  0.2730  1.8697
 6761TIP3    H241775   2.994   6.195   4.636  0.2776 -0.4190 -0.0832
 6762TIP3   OH241776   6.210   1.324   5.054  0.3258  0.1065 -0.0638
 6762TIP3    H141777   6.269   1.285   5.119  0.4955 -0.9965 -0.8557
 6762TIP3    H241778   6.122   1.309   5.089  0.4710  1.0412  0.7300
 6763TIP3   OH241779   2.282   6.661  16.287 -0.0026  0.2658 -0.4420
 6763TIP3    H141780   2.302   6.746  16.248 -0.6526  0.2764 -0.7558
 6763TIP3    H241781   2.228   6.682  16.363 -0.3088  0.1250 -0.6174
 6764TIP3   OH241782   5.361   3.569   0.299 -0.2697 -0.3336 -0.0680
 6764TIP3    H141783   5.287   3.523   0.260  0.6155 -3.1647  1.4311
 6764TIP3    H241784   5.438   3.519   0.270  0.8171  0.7430  0.8825
 6765TIP3   OH241785   1.471   5.351   4.337 -0.7259 -0.3955  0.0639
 6765TIP3    H141786   1.476   5.279   4.274  1.3190 -0.0783 -0.1604
 6765TIP3    H241787   1.437   5.425   4.286  0.4376 -0.2786 -0.5665
 6766TIP3   OH241788   1.956   2.908  14.891 -0.0741  0.3225 -0.3989
 6766TIP3    H141789   2.005   2.947  14.818 -1.7573  1.5330 -0.9136
 6766TIP3    H241790   2.008   2.928  14.969 -0.2644  2.5164 -0.8088
 6767TIP3   OH241791   4.880   3.607  13.915  0.6550 -0.1159 -0.1178
 6767TIP3    H141792   4.872   3.650  13.830 -1.0092 -0.0027  0.0721
 6767TIP3    H241793   4.919   3.674  13.972 -1.3156  0.9683  0.0121
 6768TIP3   OH241794   0.682   0.355  16.002 -1.3060 -0.1922  0.0817
 6768TIP3    H141795   0.694   0.383  16.093 -1.0023 -0.1918  0.0415
 6768TIP3    H241796   0.614   0.288  16.006 -0.4470 -1.0515  0.4651
 6769TIP3   OH241797   2.376   5.180  11.905  0.0758  0.0057 -0.0812
 6769TIP3    H141798   2.337   5.162  11.820  0.4706  0.6480 -0.3980
 6769TIP3    H241799   2.395   5.093  11.941 -2.6784 -0.3747  0.5786
 6770TIP3   OH241800   1.436   6.507  16.177 -0.0195 -0.1828  0.2394
 6770TIP3    H141801   1.352   6.461  16.172  0.2076 -0.3921 -2.2655
 6770TIP3    H241802   1.501   6.440  16.158  0.6005  0.3033  0.6500
 6771TIP3   OH241803   3.919   1.022  15.746  0.0379  0.3249 -0.3319
 6771TIP3    H141804   3.858   0.951  15.765 -0.0123  0.3067 -0.5532
 6771TIP3    H241805   3.998   1.000  15.795  0.0361  0.0923 -0.4326
 6772TIP3   OH241806   5.251   6.439   2.101  0.6239  0.2473  0.0444
 6772TIP3    H141807   5.290   6.473   2.181  1.0602 -0.3745  0.1073
 6772TIP3    H241808   5.229   6.348   2.122 -0.7494  0.5454 -0.0327
 6773TIP3   OH241809   0.171   6.140  14.930 -0.7965  0.0691 -0.4867
 6773TIP3    H141810   0.239   6.153  14.864 -0.1109  1.2912  0.4381
 6773TIP3    H241811   0.120   6.066  14.898  0.0350  0.1226 -1.9646
 6774TIP3   OH241812   0.983   0.117  16.512  0.1338  0.1373 -0.1400
 6774TIP3    H141813   0.916   0.127  16.579 -0.2998  0.1276 -0.5676
 6774TIP3    H241814   0.998   0.205  16.479 -1.6088 -0.1844 -1.9040
 6775TIP3   OH241815   0.859   0.142   2.233  0.0828 -0.0668  0.1326
 6775TIP3    H141816   0.931   0.195   2.198  0.7106 -1.2087 -0.3357
 6775TIP3    H241817   0.902   0.065   2.270 -0.7254  0.2989  1.8690
 6776TIP3   OH241818   2.751   5.132  16.234  0.5658  0.0123 -0.9942
 6776TIP3    H141819   2.777   5.042  16.215  1.9778  0.5577 -1.6942
 6776TIP3    H241820   2.742   5.135  16.330 -0.4899 -1.1175 -1.0367
 6777TIP3   OH241821   2.975   6.453  14.874 -0.1062  0.0318  0.5519
 6777TIP3    H141822   3.034   6.379  14.882 -2.9840 -2.5008 -0.5861
 6777TIP3    H241823   2.963   6.485  14.964  0.6110 -1.3310  1.1378
 6778TIP3   OH241824   6.787   1.906  15.812  0.1677 -0.0452  0.2666
 6778TIP3    H141825   6.780   1.964  15.736  0.6231 -0.5644 -0.1834
 6778TIP3    H241826   6.856   1.844  15.787 -1.3946 -1.7479  0.0947
 6779TIP3   OH241827   3.889   0.856  11.883 -0.1259 -0.3203 -0.0329
 6779TIP3    H141828   3.936   0.934  11.911  1.4465 -0.7658 -1.3572
 6779TIP3    H241829   3.809   0.890  11.842  0.0902  0.5375  0.2380
 6780TIP3   OH241830   0.194   4.687   0.199  0.3146  0.6122  0.3787
 6780TIP3    H141831   0.261   4.640   0.151 -0.5063 -0.8371  0.6132
 6780TIP3    H241832   0.240   4.760   0.241  1.6601 -0.1615  0.2592
 6781TIP3   OH241833   3.657   4.439   0.703  0.2858  0.4777  0.7178
 6781TIP3    H141834   3.590   4.441   0.771 -1.2701  1.4560 -0.8017
 6781TIP3    H241835   3.657   4.350   0.671 -1.3572  0.8349 -0.3004
 6782TIP3   OH241836   3.258   5.672   5.908  1.0028 -0.2012 -0.0575
 6782TIP3    H141837   3.332   5.728   5.932 -0.2940  0.5812  2.1883
 6782TIP3    H241838   3.194   5.684   5.978 -2.4778  1.2971 -3.3095
 6783TIP3   OH241839   0.188   5.723   0.012 -0.6444  0.1403  0.7175
 6783TIP3    H141840   0.233   5.639   0.021 -1.3450 -0.3362 -0.1555
 6783TIP3    H241841   0.258   5.787   0.008 -0.0037 -0.6808 -1.6981
 6784TIP3   OH241842   2.189   1.954   2.010 -0.2439  0.3762 -0.1043
 6784TIP3    H141843   2.224   1.958   2.099 -2.7118  0.5678  0.8810
 6784TIP3    H241844   2.260   1.914   1.958  1.3969  0.7232  1.8293
 6785TIP3   OH241845   0.712   3.589  14.144 -0.1013  0.4444 -0.0153
 6785TIP3    H141846   0.691   3.539  14.223 -1.2911 -1.3958 -1.4457
 6785TIP3    H241847   0.715   3.680  14.173  1.4979 -0.3768  2.5389
 6786TIP3   OH241848   1.852   4.767  14.577 -0.2809  0.6428 -0.4216
 6786TIP3    H141849   1.818   4.853  14.599 -1.5378 -0.2443  1.1507
 6786TIP3    H241850   1.839   4.760  14.482  0.8507  2.6003 -0.7535
 6787TIP3   OH241851   0.843   5.794  12.186  0.3182 -0.3624  0.0355
 6787TIP3    H141852   0.803   5.717  12.227  1.5455 -0.8219  0.3660
 6787TIP3    H241853   0.788   5.867  12.215 -1.1963 -1.1635 -0.7385
 6788TIP3   OH241854   0.521   6.271   1.579 -0.0797  0.0951 -0.2479
 6788TIP3    H141855   0.459   6.330   1.621  0.7676  1.2653 -0.5801
 6788TIP3    H241856   0.493   6.183   1.604 -1.3909  0.6401  0.2323
 6789TIP3   OH241857   2.771   5.471   4.044 -0.0678  0.2378 -0.3393
 6789TIP3    H141858   2.853   5.519   4.056  0.9070 -1.8446  1.6860
 6789TIP3    H241859   2.703   5.537   4.059  1.2306  1.0784  2.2778
 6790TIP3   OH241860   3.205   4.784  15.432 -0.0786 -0.2179  0.9154
 6790TIP3    H141861   3.185   4.831  15.513 -0.4101 -0.4251  0.9547
 6790TIP3    H241862   3.144   4.710  15.432 -1.3576  0.8113 -0.4355
 6791TIP3   OH241863   5.919   0.729  15.973 -0.0553  0.0814  0.7832
 6791TIP3    H141864   5.841   0.674  15.969  0.1304 -0.2254  1.2858
 6791TIP3    H241865   5.930   0.762  15.884 -1.8060  1.6046  1.1052
 6792TIP3   OH241866   2.436   5.268  11.485 -0.1344 -0.0054  0.4152
 6792TIP3    H141867   2.500   5.223  11.541  0.1580  1.2884  1.1400
 6792TIP3    H241868   2.405   5.200  11.425 -0.2196 -1.3439  1.9333
 6793TIP3   OH241869   1.066   2.370  11.831  0.4111 -0.0275  0.2798
 6793TIP3    H141870   0.982   2.350  11.791 -0.3158  0.6570  1.4353
 6793TIP3    H241871   1.120   2.293  11.813 -0.5815 -0.6229 -0.1584
 6794TIP3   OH241872   4.202   5.870   2.137  0.5789 -0.9245 -0.3929
 6794TIP3    H141873   4.145   5.905   2.206 -0.2840 -0.2066 -1.4551
 6794TIP3    H241874   4.291   5.880   2.172  0.0737 -1.9895  1.2503
 6795TIP3   OH241875   1.448   3.276  15.236 -0.5755  0.4305  0.2675
 6795TIP3    H141876   1.457   3.370  15.253 -1.3310  0.1192  2.6492
 6795TIP3    H241877   1.501   3.234  15.304  1.4023 -0.8589 -2.0199
 6796TIP3   OH241878   4.804   0.281  10.747 -0.1653 -0.4616 -0.2681
 6796TIP3    H141879   4.725   0.296  10.695 -1.5500 -0.6608  1.7320
 6796TIP3    H241880   4.795   0.338  10.823  0.8113 -1.7178  0.8303
 6797TIP3   OH241881   5.687   2.322   4.317 -0.2780 -0.3613 -0.4016
 6797TIP3    H141882   5.737   2.256   4.269  1.6888 -1.0690  2.4161
 6797TIP3    H241883   5.737   2.403   4.305  0.4193 -0.6166  0.6828
 6798TIP3   OH241884   2.398   1.030   4.572  0.2074 -0.1941 -0.5204
 6798TIP3    H141885   2.413   0.980   4.652  1.2014 -0.4882 -0.8890
 6798TIP3    H241886   2.330   1.093   4.596  0.3699 -0.3992  0.5046
 6799TIP3   OH241887   4.277   5.149   5.630  0.9281  0.4805  0.0070
 6799TIP3    H141888   4.247   5.200   5.554  1.2513  1.6830  0.6623
 6799TIP3    H241889   4.369   5.175   5.640  0.9678  0.0862  0.6139
 6800TIP3   OH241890   3.089   2.661  13.575 -0.2495 -0.5005  0.1760
 6800TIP3    H141891   3.179   2.678  13.546 -0.2110  2.7437  1.9812
 6800TIP3    H241892   3.094   2.578  13.622  1.7448 -0.4752  0.0556
 6801TIP3   OH241893   3.932   0.252  14.777 -0.1238 -0.1552 -0.0005
 6801TIP3    H141894   3.928   0.347  14.772 -1.2464 -0.1121  1.3345
 6801TIP3    H241895   3.872   0.229  14.848  0.4001 -1.8336 -0.0694
 6802TIP3   OH241896   0.679   4.870   0.660  0.4136 -0.2174  0.5112
 6802TIP3    H141897   0.754   4.880   0.601  1.0135 -1.2707  1.0763
 6802TIP3    H241898   0.694   4.786   0.704 -1.8280 -1.1271 -0.4034
 6803TIP3   OH241899   6.715   3.869   2.327 -0.0717  0.1014  0.6903
 6803TIP3    H141900   6.788   3.814   2.357 -0.3488 -0.6120  0.0571
 6803TIP3    H241901   6.754   3.955   2.316  1.4436 -0.9270 -2.6531
 6804TIP3   OH241902   4.649   1.969  11.856 -0.7881  0.1792 -0.0689
 6804TIP3    H141903   4.692   1.978  11.941  0.6551 -0.0446 -0.7609
 6804TIP3    H241904   4.616   2.057  11.836  0.6672  0.7075 -0.2061
 6805TIP3   OH241905   2.072   2.722   6.158 -0.5070 -0.3709 -0.1930
 6805TIP3    H141906   2.085   2.628   6.147 -0.4829 -0.1556 -2.2403
 6805TIP3    H241907   1.992   2.730   6.210 -1.5219 -1.5192 -1.5319
 6806TIP3   OH241908   0.810   5.192   6.091 -0.4668 -0.2810 -0.5309
 6806TIP3    H141909   0.731   5.235   6.124 -0.1080 -0.9811  1.2823
 6806TIP3    H241910   0.794   5.183   5.996 -2.4940 -0.2873 -0.2181
 6807TIP3   OH241911   6.387   1.149  12.468  0.6922 -0.0963  0.3212
 6807TIP3    H141912   6.398   1.066  12.420 -1.0035 -0.4239  0.4954
 6807TIP3    H241913   6.335   1.204  12.410  0.4994  0.3010  0.8674
 6808TIP3   OH241914   4.311   3.225   3.073 -0.6540  0.3245 -0.2981
 6808TIP3    H141915   4.328   3.205   3.165  1.4961  0.6470 -0.5980
 6808TIP3    H241916   4.320   3.141   3.027  0.2467  0.4945 -0.4554
 6809TIP3   OH241917   6.508   4.096   0.431  0.3162 -0.2482  0.2118
 6809TIP3    H141918   6.425   4.123   0.471 -0.5687 -0.4784 -1.4103
 6809TIP3    H241919   6.551   4.043   0.499 -2.6207 -3.4175 -0.2144
 6810TIP3   OH241920   6.380   3.911   3.282 -0.5700 -0.3835  0.3847
 6810TIP3    H141921   6.329   3.830   3.290 -0.3262 -0.5629  0.1060
 6810TIP3    H241922   6.454   3.888   3.226 -0.7056  0.1293 -0.0132
 6811TIP3   OH241923   5.195   3.601  14.698  0.0415  0.1733  0.4525
 6811TIP3    H141924   5.119   3.588  14.641  0.4717  1.5683 -0.4532
 6811TIP3    H241925   5.161   3.650  14.773  0.1253  1.1310 -0.1357
 6812TIP3   OH241926   5.350   0.328   3.618 -0.1860 -0.5789 -0.6099
 6812TIP3    H141927   5.444   0.326   3.598 -0.2650 -0.5222 -0.9778
 6812TIP3    H241928   5.309   0.278   3.548 -0.3585 -1.2254 -0.0571
 6813TIP3   OH241929   4.267   5.878   5.010 -0.1803  0.6146 -0.0881
 6813TIP3    H141930   4.188   5.904   5.057 -0.8352 -0.2550 -0.6943
 6813TIP3    H241931   4.240   5.804   4.956  1.4378 -0.7964  0.9691
 6814TIP3   OH241932   6.005   0.201  14.265 -0.0202 -0.3777 -0.1275
 6814TIP3    H141933   6.039   0.222  14.179 -0.3082  1.2257  0.1282
 6814TIP3    H241934   5.987   0.107  14.262 -0.7046 -0.2048 -2.0459
 6815TIP3   OH241935   1.494   4.713   1.924  0.0568  0.2490  0.8708
 6815TIP3    H141936   1.413   4.746   1.884  0.1166 -0.0190  0.5256
 6815TIP3    H241937   1.517   4.636   1.872 -0.3797 -0.6632  1.9812
 6816TIP3   OH241938   5.113   6.228  15.771  0.0026  0.0199 -0.4856
 6816TIP3    H141939   5.051   6.187  15.711  0.2322 -0.9306 -0.0817
 6816TIP3    H241940   5.177   6.159  15.790  0.4241  0.5847  0.1576
 6817TIP3   OH241941   4.551   2.902  13.767  0.0434 -0.1008 -0.3104
 6817TIP3    H141942   4.506   2.831  13.722 -2.0039  0.2828  1.0345
 6817TIP3    H241943   4.481   2.947  13.816  1.6264  1.5675  0.4796
 6818TIP3   OH241944   6.262   6.071  13.409  0.4252 -0.0770 -0.1224
 6818TIP3    H141945   6.318   6.050  13.335 -0.2557 -1.6562 -0.2066
 6818TIP3    H241946   6.310   6.039  13.486  1.2190  1.7299  0.1650
 6819TIP3   OH241947   1.684   2.087   3.492 -0.0198  0.2266 -0.4449
 6819TIP3    H141948   1.625   2.063   3.421  1.6870 -0.7500 -1.5881
 6819TIP3    H241949   1.771   2.065   3.459  1.0214  1.9032  1.0793
 6820TIP3   OH241950   1.405   6.763   6.193  0.0020  1.2238  0.1390
 6820TIP3    H141951   1.325   6.710   6.192  0.0398  1.1602  0.4938
 6820TIP3    H241952   1.463   6.719   6.131 -0.6709  1.9467 -1.0366
 6821TIP3   OH241953   1.167   5.271   5.463 -0.4602 -0.2100  0.2167
 6821TIP3    H141954   1.231   5.238   5.527 -1.7256  0.5725  1.9383
 6821TIP3    H241955   1.215   5.272   5.380  1.2550 -1.2022  1.1537
 6822TIP3   OH241956   3.552   1.730   1.558  0.0102  0.3193 -0.8045
 6822TIP3    H141957   3.460   1.705   1.546  0.1502 -0.2218 -0.7624
 6822TIP3    H241958   3.559   1.749   1.652  0.5523 -2.1990 -0.2907
 6823TIP3   OH241959   1.767   6.716   0.528 -0.2282  0.0435 -0.3338
 6823TIP3    H141960   1.692   6.739   0.583  0.2382  0.6103  0.0752
 6823TIP3    H241961   1.729   6.686   0.446 -0.9037  0.2799 -0.1077
 6824TIP3   OH241962   0.556   4.067  10.864 -0.1668  0.6160 -0.0590
 6824TIP3    H141963   0.574   4.049  10.957  0.2621  1.9269  0.1165
 6824TIP3    H241964   0.466   4.036  10.851 -0.3150  0.6466  0.8622
 6825TIP3   OH241965   5.667   4.240  13.095 -0.4047  0.1337  0.0212
 6825TIP3    H141966   5.710   4.174  13.040 -1.5560 -0.0285 -0.7109
 6825TIP3    H241967   5.681   4.209  13.185 -0.2476 -0.6854 -0.2767
 6826TIP3   OH241968   0.265   6.692  11.324  0.3020 -0.2746 -0.1818
 6826TIP3    H141969   0.290   6.606  11.289 -1.2928 -0.5633 -0.6405
 6826TIP3    H241970   0.325   6.753  11.283 -0.6434 -0.7810 -2.3834
 6827TIP3   OH241971   1.460   3.436  12.182 -0.1878 -0.5413  0.7166
 6827TIP3    H141972   1.521   3.432  12.109 -0.7858 -0.4262  0.2008
 6827TIP3    H241973   1.486   3.365  12.240  0.6249 -0.2942  0.6595
 6828TIP3   OH241974   2.761   4.730  16.676  0.3688  0.3425 -0.0305
 6828TIP3    H141975   2.788   4.675  16.749 -1.7115  3.2258  3.0580
 6828TIP3    H241976   2.839   4.779  16.652  1.0127 -0.4826  0.3355
 6829TIP3   OH241977   0.339   4.777   3.489 -0.1389  0.1504 -0.5000
 6829TIP3    H141978   0.357   4.864   3.523 -2.1863  0.3977 -0.0361
 6829TIP3    H241979   0.392   4.772   3.409  2.5015  0.5912  1.1408
 6830TIP3   OH241980   3.906   0.931  11.023  0.3463 -0.0106  0.2619
 6830TIP3    H141981   3.936   0.994  10.958 -0.4030  1.2441  1.1131
 6830TIP3    H241982   3.935   0.967  11.107 -1.9139  0.3211  0.9393
 6831TIP3   OH241983   5.822   6.312   3.539  0.1818  0.4260  0.1060
 6831TIP3    H141984   5.917   6.322   3.545  0.2529 -0.0651 -0.1662
 6831TIP3    H241985   5.787   6.394   3.573  0.7444  1.4808 -1.8425
 6832TIP3   OH241986   1.039   0.873   3.404  0.8320 -0.5676 -0.1533
 6832TIP3    H141987   0.974   0.810   3.435 -0.0736  0.3581 -0.1231
 6832TIP3    H241988   1.072   0.913   3.485  0.9702 -0.5822 -0.2035
 6833TIP3   OH241989   4.473   1.503  13.554  0.0405  0.0661 -0.6132
 6833TIP3    H141990   4.379   1.505  13.536  0.1548  2.2112 -1.0840
 6833TIP3    H241991   4.482   1.549  13.638  0.6046 -0.7394 -0.2298
 6834TIP3   OH241992   4.100   2.743  12.488 -0.0360  0.5119 -0.1751
 6834TIP3    H141993   4.040   2.668  12.490  0.4243  0.1622  0.6129
 6834TIP3    H241994   4.116   2.758  12.395 -1.2143  0.5074 -0.3877
 6835TIP3   OH241995   4.218   5.389   0.826  0.5452 -0.3366 -0.1811
 6835TIP3    H141996   4.256   5.449   0.762  0.7508  0.1444  0.3881
 6835TIP3    H241997   4.294   5.351   0.871  0.3702  0.2145  0.5859
 6836TIP3   OH241998   2.349   6.162  11.589  0.3879  0.2527 -0.1982
 6836TIP3    H141999   2.393   6.211  11.658  2.0509 -0.4706 -0.7289
 6836TIP3    H242000   2.256   6.186  11.598  0.5782  0.2234  2.2365
 6837TIP3   OH242001   0.572   4.525  14.911  0.0383  0.5405  0.4591
 6837TIP3    H142002   0.630   4.468  14.861  0.1008  0.9110  0.1074
 6837TIP3    H242003   0.582   4.611  14.870 -0.7059  0.6183  0.4380
 6838TIP3   OH242004   3.337   0.888   4.159  1.0076 -0.0683  0.3939
 6838TIP3    H142005   3.340   0.830   4.235 -0.2452 -0.2293  0.3311
 6838TIP3    H242006   3.260   0.860   4.110 -0.4595  2.5411  1.1046
 6839TIP3   OH242007   4.841   3.249   2.245  0.0205 -0.1271 -0.4046
 6839TIP3    H142008   4.917   3.306   2.231  1.5157 -2.4647 -2.0948
 6839TIP3    H242009   4.835   3.196   2.166 -3.5940  0.1783 -0.4292
 6840TIP3   OH242010   5.269   6.049   0.808 -0.2815  0.0532 -0.6528
 6840TIP3    H142011   5.306   6.070   0.722  2.2258 -0.0828  0.3499
 6840TIP3    H242012   5.280   6.129   0.859  2.0441 -1.0957  0.7531
 6841TIP3   OH242013   4.340   5.773   3.743  0.3491  0.4603  0.5726
 6841TIP3    H142014   4.310   5.797   3.656 -0.2427 -0.9059  0.3977
 6841TIP3    H242015   4.436   5.777   3.737  0.2917  1.6888  0.2554
 6842TIP3   OH242016   5.020   0.262  14.086  0.0019 -0.5923 -0.8314
 6842TIP3    H142017   5.026   0.169  14.064 -2.1331 -0.8154 -0.5286
 6842TIP3    H242018   4.927   0.282  14.083  0.2785  1.1065  0.9034
 6843TIP3   OH242019   2.292   5.601   4.805  0.5905 -0.3510  0.0425
 6843TIP3    H142020   2.332   5.523   4.766  0.7034 -0.7416  0.9194
 6843TIP3    H242021   2.365   5.646   4.847  0.0312 -1.3958  2.2010
 6844TIP3   OH242022   4.660   0.517   3.773 -0.9315 -0.3246 -0.5555
 6844TIP3    H142023   4.643   0.504   3.867  0.5502  1.2641 -0.0361
 6844TIP3    H242024   4.582   0.483   3.730 -1.5998 -1.1756  1.2467
 6845TIP3   OH242025   4.066   0.848   3.543  0.0199 -0.1877  0.9598
 6845TIP3    H142026   4.095   0.757   3.530  1.5182  0.5187 -0.8497
 6845TIP3    H242027   3.972   0.846   3.523  0.2111 -1.1790  0.1346
 6846TIP3   OH242028   6.711   2.622   2.061 -0.2887 -0.5697 -0.3114
 6846TIP3    H142029   6.730   2.532   2.090 -1.7400 -0.5304  0.8354
 6846TIP3    H242030   6.701   2.615   1.966  0.0074 -1.5455 -0.2794
 6847TIP3   OH242031   6.784   4.187  12.309 -0.0172  0.0925 -0.3304
 6847TIP3    H142032   6.750   4.275  12.327 -0.8618 -0.2791 -0.0416
 6847TIP3    H242033   6.850   4.172  12.377  1.7907  1.3873 -1.7746
 6848TIP3   OH242034   2.987   2.764  13.260 -0.1485 -0.5346  0.5686
 6848TIP3    H142035   2.942   2.832  13.310  0.5240 -0.6031  1.2717
 6848TIP3    H242036   3.074   2.759  13.299  0.4765 -0.4144 -0.7720
 6849TIP3   OH242037   3.776   5.954  16.365 -0.0080 -0.6188  0.4703
 6849TIP3    H142038   3.781   5.934  16.271 -0.1615  1.2319  0.0569
 6849TIP3    H242039   3.849   6.013  16.382 -0.6057 -0.1018  1.2949
 6850TIP3   OH242040   0.853   1.984   0.527  0.2489 -0.1095 -0.2686
 6850TIP3    H142041   0.873   1.990   0.434  1.5478  1.4388  0.0814
 6850TIP3    H242042   0.901   1.908   0.558 -0.6146 -0.9450 -0.9578
 6851TIP3   OH242043   0.623   5.908   4.962  0.5278  0.0755  0.0790
 6851TIP3    H142044   0.539   5.940   4.994 -0.2967 -1.4444 -0.4946
 6851TIP3    H242045   0.680   5.912   5.039  0.1447  1.7655  0.3018
 6852TIP3   OH242046   4.134   1.546   0.319 -0.0970  0.9037 -0.2428
 6852TIP3    H142047   4.205   1.583   0.372 -0.6064  1.4963  0.0272
 6852TIP3    H242048   4.070   1.617   0.310 -1.4307 -0.1175  0.9226
 6853TIP3   OH242049   0.308   3.809   0.852  0.5867 -0.3971  0.5274
 6853TIP3    H142050   0.236   3.829   0.792  0.6153 -0.7174  0.3878
 6853TIP3    H242051   0.346   3.895   0.873  0.1367 -0.2224  0.6411
 6854TIP3   OH242052   1.505   3.553  13.048  0.5437 -0.4890  0.3630
 6854TIP3    H142053   1.521   3.544  13.142  2.5852  0.4454  0.1260
 6854TIP3    H242054   1.480   3.465  13.019 -2.5941 -0.2891  2.1894
 6855TIP3   OH242055   4.079   4.385   2.301 -0.0585 -0.2704 -0.0368
 6855TIP3    H142056   4.130   4.424   2.372 -0.3822  0.2782 -0.0983
 6855TIP3    H242057   4.044   4.460   2.253  0.9773 -0.6114 -1.3858
 6856TIP3   OH242058   2.463   5.750  16.133  0.0354 -0.3530  0.6284
 6856TIP3    H142059   2.467   5.680  16.069 -1.6633  3.1423 -3.5060
 6856TIP3    H242060   2.370   5.769  16.144  0.4283  0.9113  2.1094
 6857TIP3   OH242061   1.850   4.435  14.543  0.2015 -0.4063 -0.3326
 6857TIP3    H142062   1.758   4.462  14.545  0.7181  1.4478  0.0246
 6857TIP3    H242063   1.887   4.472  14.623  0.9281 -2.4119  0.2775
 6858TIP3   OH242064   4.348   6.785  15.736 -0.2194 -0.0055  0.1707
 6858TIP3    H142065   4.357   6.880  15.736  0.6594 -0.0809  1.3322
 6858TIP3    H242066   4.423   6.753  15.686  1.0915 -0.2175  2.2511
 6859TIP3   OH242067   3.962   0.343   1.447 -0.2596  0.2772 -0.0007
 6859TIP3    H142068   3.867   0.334   1.443 -0.3031  0.9570 -0.5502
 6859TIP3    H242069   3.994   0.299   1.368 -0.1581  0.5745 -0.1262
 6860TIP3   OH242070   4.396   2.305   1.334  0.4559  0.1981 -0.3379
 6860TIP3    H142071   4.439   2.322   1.250  1.7580 -3.7681 -0.6072
 6860TIP3    H242072   4.346   2.225   1.320 -0.6549  0.3803  2.2273
 6861TIP3   OH242073   5.315   6.090  14.942  0.4690 -0.1890  0.0903
 6861TIP3    H142074   5.285   6.161  14.885  1.2606  1.5011  1.7409
 6861TIP3    H242075   5.243   6.026  14.941 -0.1911  0.5417 -1.5117
 6862TIP3   OH242076   6.360   2.382   3.192  0.2055  0.2907 -0.2852
 6862TIP3    H142077   6.426   2.312   3.192 -0.9790 -0.8371  0.2140
 6862TIP3    H242078   6.339   2.395   3.284  1.2806  2.1602 -0.2629
 6863TIP3   OH242079   4.754   0.187   5.934  0.0350 -0.8393 -0.1477
 6863TIP3    H142080   4.761   0.251   5.864 -1.1451 -1.7942 -1.1526
 6863TIP3    H242081   4.726   0.106   5.891  0.9917 -1.9020  1.1703
 6864TIP3   OH242082   4.833   0.450  17.020  0.1979 -0.4221  0.8114
 6864TIP3    H142083   4.839   0.519  17.087  0.0981  1.0875 -0.6955
 6864TIP3    H242084   4.745   0.458  16.985  0.9785  0.3300 -1.0663
 6865TIP3   OH242085   1.832   5.929  14.382  0.7476  0.3661  0.5561
 6865TIP3    H142086   1.799   5.865  14.318  1.3665 -1.2312  1.7982
 6865TIP3    H242087   1.851   6.007  14.330 -0.8681 -0.1465 -0.8644
 6866TIP3   OH242088   5.313   5.617   6.550  0.0786  0.6964 -0.1948
 6866TIP3    H142089   5.361   5.699   6.537  1.8966 -0.1028  1.3315
 6866TIP3    H242090   5.246   5.638   6.614  2.8435  0.1558  2.9747
 6867TIP3   OH242091   4.106   2.979   1.956 -0.0092  0.2118  0.2322
 6867TIP3    H142092   4.167   2.915   1.994 -0.5142 -0.1555  0.4362
 6867TIP3    H242093   4.030   2.977   2.015 -0.3996  0.3430 -0.2645
 6868TIP3   OH242094   0.324   4.225   0.415  0.2708  0.4231  0.9525
 6868TIP3    H142095   0.357   4.290   0.476  0.9044  0.5909  0.4450
 6868TIP3    H242096   0.234   4.252   0.396  0.2108  0.5977  1.4930
 6869TIP3   OH242097   0.855   2.490  13.140  0.0546  0.1552  0.2165
 6869TIP3    H142098   0.858   2.400  13.109 -1.5873 -0.0910  0.7281
 6869TIP3    H242099   0.856   2.484  13.235  0.4525  0.7012  0.2522
 6870TIP3   OH242100   4.663   0.797   2.278  0.7184 -0.2149 -0.3251
 6870TIP3    H142101   4.758   0.792   2.271  0.7588 -1.3788  0.7753
 6870TIP3    H242102   4.642   0.749   2.358 -0.7489  0.5679 -0.2177
 6871TIP3   OH242103   3.740   6.737  17.092  0.2905 -0.2315  0.1329
 6871TIP3    H142104   3.680   6.663  17.104 -1.9605  1.4534 -0.3827
 6871TIP3    H242105   3.757   6.769  17.181  0.8325 -1.0259  0.3159
 6872TIP3   OH242106   4.467   6.139  16.011 -0.6402 -0.0679  0.3818
 6872TIP3    H142107   4.418   6.179  16.083  1.1561  0.1385  1.5226
 6872TIP3    H242108   4.517   6.068  16.052 -0.2474 -0.4987 -0.8172
 6873TIP3   OH242109   2.916   3.858   0.273 -0.0166  0.4402 -0.0893
 6873TIP3    H142110   2.883   3.837   0.186 -0.5430 -1.5034  0.5523
 6873TIP3    H242111   3.011   3.858   0.264  0.0376 -3.2351  0.0700
 6874TIP3   OH242112   2.530   0.193   0.304  0.2589 -0.3457 -0.4176
 6874TIP3    H142113   2.510   0.111   0.350 -4.1287 -0.5129 -2.4156
 6874TIP3    H242114   2.593   0.168   0.236 -1.2787 -2.1603 -1.2178
 6875TIP3   OH242115   1.164   3.228   0.903  0.6564  0.4350  0.3400
 6875TIP3    H142116   1.091   3.215   0.842  1.2749  0.2541 -0.3698
 6875TIP3    H242117   1.127   3.211   0.989 -0.2381  0.7181  0.0178
 6876TIP3   OH242118   6.279   3.756   1.929  0.0253  0.7235 -0.5656
 6876TIP3    H142119   6.241   3.828   1.881 -1.1211  1.2804  1.1297
 6876TIP3    H242120   6.210   3.727   1.989  0.3584 -1.9591 -1.3870
 6877TIP3   OH242121   5.802   3.557  16.409 -0.0850  0.1852  0.1110
 6877TIP3    H142122   5.735   3.540  16.476  1.0232 -1.3370  0.8601
 6877TIP3    H242123   5.856   3.626  16.447  0.9956 -1.2063  1.1335
 6878TIP3   OH242124   5.313   2.426   1.247 -0.7633  0.0760  0.3176
 6878TIP3    H142125   5.319   2.519   1.271  0.9744  0.8375 -2.8547
 6878TIP3    H242126   5.244   2.423   1.181 -1.2449 -1.0009  0.8644
 6879TIP3   OH242127   0.822   4.434  10.458  0.6710  0.2265  0.1073
 6879TIP3    H142128   0.851   4.522  10.434  0.2634  0.4305  0.3599
 6879TIP3    H242129   0.801   4.440  10.551  1.4340 -0.3500  0.3185
 6880TIP3   OH242130   6.180   2.491   3.989 -0.1946 -0.1098 -0.3578
 6880TIP3    H142131   6.247   2.528   4.046 -0.1640 -0.7273  0.0158
 6880TIP3    H242132   6.153   2.410   4.033 -3.3690  1.6439  1.0563
 6881TIP3   OH242133   2.120   5.735   6.211  0.5170  0.2615 -0.3668
 6881TIP3    H142134   2.163   5.665   6.259 -1.4278 -0.5483  0.2297
 6881TIP3    H242135   2.087   5.693   6.132  0.4800  0.8054 -0.6474
 6882TIP3   OH242136   1.337   6.122   0.382 -0.2429 -0.3213  0.0390
 6882TIP3    H142137   1.415   6.160   0.420 -1.6381  2.5573  0.1883
 6882TIP3    H242138   1.279   6.105   0.456  0.6300 -3.5532  0.0560
 6883TIP3   OH242139   6.509   5.748  14.210 -0.2535  0.0505 -0.1777
 6883TIP3    H142140   6.594   5.738  14.252 -1.3819 -0.9428  1.9294
 6883TIP3    H242141   6.463   5.813  14.262 -2.1365 -2.1057  0.9787
 6884TIP3   OH242142   1.838   5.560   0.793  0.3318  0.0960  1.2304
 6884TIP3    H142143   1.844   5.464   0.799  0.2184  0.1680  2.7658
 6884TIP3    H242144   1.907   5.584   0.732 -1.5721 -1.1930 -1.5203
 6885TIP3   OH242145   1.845   2.665  11.801 -0.2521  0.7149  0.0331
 6885TIP3    H142146   1.836   2.720  11.879  0.4877  0.1266  0.5371
 6885TIP3    H242147   1.762   2.677  11.754 -1.0080  0.4708  1.2959
 6886TIP3   OH242148   3.316   2.251   0.323  0.7952 -0.0230 -0.2451
 6886TIP3    H142149   3.288   2.309   0.394  0.1117  0.6010 -1.0108
 6886TIP3    H242150   3.237   2.239   0.270  1.3569 -0.2912 -1.0232
 6887TIP3   OH242151   0.657   1.503   1.227 -0.1435 -0.2933  0.6995
 6887TIP3    H142152   0.599   1.537   1.294  0.1221  0.8433  0.3643
 6887TIP3    H242153   0.732   1.468   1.275 -1.3771 -2.3787  1.1791
 6888TIP3   OH242154   6.775   0.382  14.742 -0.7270  0.3716 -0.1798
 6888TIP3    H142155   6.838   0.385  14.814  0.3207  1.0284 -1.1074
 6888TIP3    H242156   6.695   0.346  14.781  0.4040 -1.0609  0.8685
 6889TIP3   OH242157   6.668   1.556   3.677 -0.2300  0.2028 -0.3632
 6889TIP3    H142158   6.657   1.633   3.731  0.7757 -0.4177  0.7265
 6889TIP3    H242159   6.616   1.488   3.721 -0.0656 -0.0876 -0.6128
 6890TIP3   OH242160   0.425   6.488   0.588  0.1169  0.1150  0.3943
 6890TIP3    H142161   0.335   6.461   0.605 -0.0567  2.0159  2.6849
 6890TIP3    H242162   0.429   6.499   0.493 -1.7170 -1.1228  0.1436
 6891TIP3   OH242163   1.744   6.479   5.131 -0.0558  0.7498 -0.0571
 6891TIP3    H142164   1.798   6.401   5.147 -0.0637  1.0490  1.5683
 6891TIP3    H242165   1.735   6.483   5.036  2.1112  0.2298 -0.3191
 6892TIP3   OH242166   0.121   1.916  15.108 -0.3585  0.3642 -0.1906
 6892TIP3    H142167   0.170   1.855  15.163 -0.1184  0.6346 -0.1079
 6892TIP3    H242168   0.037   1.926  15.152  0.0486  1.0353  0.4294
 6893TIP3   OH242169   4.405   2.939   2.043 -0.1270  0.0987 -0.2151
 6893TIP3    H142170   4.337   2.878   2.069  0.4193 -0.8612 -0.9815
 6893TIP3    H242171   4.406   3.006   2.112 -0.5508 -0.9001  0.7646
 6894TIP3   OH242172   5.260   4.395  13.659 -0.6797  0.5307 -0.1022
 6894TIP3    H142173   5.316   4.473  13.659  0.4809 -0.2892  0.2200
 6894TIP3    H242174   5.213   4.400  13.576  0.4968  0.7963 -0.7701
 6895TIP3   OH242175   2.062   5.724   3.276  0.4831  0.5569 -0.0753
 6895TIP3    H142176   2.011   5.690   3.202  1.8152 -1.3359 -0.1620
 6895TIP3    H242177   2.101   5.804   3.242 -0.8800  1.0107 -0.6266
 6896TIP3   OH242178   2.426   3.030  15.598  0.2572 -0.1450 -0.1164
 6896TIP3    H142179   2.493   3.040  15.666  0.5425 -1.7433 -0.1618
 6896TIP3    H242180   2.344   3.022  15.647  0.2862  0.1823 -0.0117
 6897TIP3   OH242181   3.218   0.514   4.844 -0.1899  0.3546 -0.2805
 6897TIP3    H142182   3.200   0.559   4.927 -0.4989 -1.3913  0.6177
 6897TIP3    H242183   3.296   0.558   4.810 -0.0211  1.0500  0.9709
 6898TIP3   OH242184   0.876   6.472   3.088  0.1309  0.1415  0.3451
 6898TIP3    H142185   0.800   6.458   3.145  1.2706  1.9673  2.3716
 6898TIP3    H242186   0.915   6.553   3.120  1.3103  0.7517 -2.5168
 6899TIP3   OH242187   4.795   3.682   0.173 -0.0643  0.2402  0.0790
 6899TIP3    H142188   4.725   3.742   0.200  0.6339  0.7544  0.7719
 6899TIP3    H242189   4.869   3.739   0.151  0.9389 -0.3856  1.7065
 6900TIP3   OH242190   4.641   5.340   5.555 -0.6269  0.0466  0.3135
 6900TIP3    H142191   4.710   5.404   5.575  1.1991 -1.7815 -0.0821
 6900TIP3    H242192   4.591   5.333   5.637  0.5096  0.3334  1.0396
 6901TIP3   OH242193   3.826   1.906   3.362  0.1503  0.0234  0.2103
 6901TIP3    H142194   3.839   1.890   3.455  1.5334 -0.1029  0.0057
 6901TIP3    H242195   3.731   1.913   3.351  0.0526  1.6448  1.9004
 6902TIP3   OH242196   6.239   5.737   5.640 -0.2210 -0.0417  0.0226
 6902TIP3    H142197   6.318   5.789   5.658  0.7067 -1.8799  1.4543
 6902TIP3    H242198   6.182   5.797   5.592  1.8695  1.4601 -0.6965
 6903TIP3   OH242199   6.342   2.476   0.724  0.7290  0.5029  0.0496
 6903TIP3    H142200   6.385   2.492   0.640  0.0912  2.2463  0.0362
 6903TIP3    H242201   6.248   2.474   0.703  0.6186 -0.1213  0.5646
 6904TIP3   OH242202   5.603   1.401  11.759 -0.9567 -0.4160 -0.0724
 6904TIP3    H142203   5.552   1.326  11.788  0.3638 -0.7450  1.4323
 6904TIP3    H242204   5.692   1.383  11.789 -0.4373  1.2944 -0.5349
 6905TIP3   OH242205   5.720   6.529   1.832 -0.2294  0.4926  0.8181
 6905TIP3    H142206   5.706   6.535   1.737 -1.1849 -0.9434  0.8560
 6905TIP3    H242207   5.771   6.607   1.854 -1.4059  1.6779 -0.6168
 6906TIP3   OH242208   2.128   0.182   5.484  0.2252 -0.2295  0.5978
 6906TIP3    H142209   2.202   0.143   5.438  0.8975  1.1611  0.4888
 6906TIP3    H242210   2.062   0.197   5.415  0.1511 -0.7122  0.5612
 6907TIP3   OH242211   0.799   1.402   4.684  0.1691 -0.2817 -0.5010
 6907TIP3    H142212   0.750   1.473   4.643 -0.4897 -0.1878  0.4421
 6907TIP3    H242213   0.741   1.369   4.753  1.7215  0.3606  1.1497
 6908TIP3   OH242214   4.458   1.033   0.032 -0.2638  0.1764  0.2138
 6908TIP3    H142215   4.480   1.069  -0.053  0.5276  0.6999  0.6432
 6908TIP3    H242216   4.368   1.063   0.048 -0.6163 -0.3874 -0.6783
 6909TIP3   OH242217   5.147   1.740   5.780 -0.0634 -0.3956  0.8321
 6909TIP3    H142218   5.127   1.708   5.692  0.0711 -0.5474  0.8563
 6909TIP3    H242219   5.241   1.758   5.778 -0.0929 -0.2305  0.8925
 6910TIP3   OH242220   2.609   3.049   2.882 -0.0299  0.4531  0.3302
 6910TIP3    H142221   2.611   2.967   2.833 -1.4967  1.0193 -0.7416
 6910TIP3    H242222   2.634   3.116   2.818 -2.3989  1.2572  0.1697
 6911TIP3   OH242223   6.026   3.995   2.219 -0.0209  0.6960  0.2262
 6911TIP3    H142224   5.946   4.042   2.242  0.6188  0.7749  2.4592
 6911TIP3    H242225   6.061   4.042   2.144 -2.3015  0.3819 -1.0849
 6912TIP3   OH242226   3.165   6.051   5.409  0.2084 -0.4199 -0.2108
 6912TIP3    H142227   3.241   6.094   5.448  1.4673 -1.8883 -0.9558
 6912TIP3    H242228   3.115   6.017   5.483  0.1048  0.8318  0.2988
 6913TIP3   OH242229   4.412   4.435   1.150  0.4070 -0.4633  0.2236
 6913TIP3    H142230   4.348   4.485   1.099  1.8156  0.4079 -0.7018
 6913TIP3    H242231   4.428   4.488   1.227  0.9752 -0.0698 -0.1638
 6914TIP3   OH242232   5.496   6.137  12.844  0.2017 -0.3727 -0.1728
 6914TIP3    H142233   5.576   6.190  12.853 -0.5361  0.6423  0.5349
 6914TIP3    H242234   5.524   6.059  12.797  1.5305  0.1723 -0.3041
 6915TIP3   OH242235   2.440   6.061  13.055 -0.0303  0.4941  0.9665
 6915TIP3    H142236   2.400   6.064  13.142  0.0786 -0.5956  1.0645
 6915TIP3    H242237   2.482   6.146  13.045 -1.6427  1.3305  1.2074
 6916TIP3   OH242238   3.598   3.679   1.498  0.0407  0.0167 -0.0369
 6916TIP3    H142239   3.561   3.705   1.414 -2.1456 -0.0349  0.8778
 6916TIP3    H242240   3.526   3.638   1.544  1.6934 -1.5869  1.1857
 6917TIP3   OH242241   2.867   4.658  13.316 -0.6468  0.4599 -0.1703
 6917TIP3    H142242   2.883   4.683  13.407  1.3368  2.4696 -1.0120
 6917TIP3    H242243   2.829   4.736  13.275  0.2288  0.2187 -1.4926
 6918TIP3   OH242244   4.296   0.541  14.280 -0.6811 -0.2649  0.1378
 6918TIP3    H142245   4.367   0.601  14.304  0.2717 -0.7344 -1.4389
 6918TIP3    H242246   4.281   0.559  14.187 -3.1496  0.3500  0.6222
 6919TIP3   OH242247   2.653   3.581  14.298  0.3712 -0.0658  0.2695
 6919TIP3    H142248   2.644   3.509  14.360 -2.2173 -0.4892 -0.5422
 6919TIP3    H242249   2.690   3.653  14.350  1.8471 -1.5816  1.3656
 6920TIP3   OH242250   1.342   0.570   0.045 -0.3838 -0.0011  0.0316
 6920TIP3    H142251   1.369   0.540  -0.042 -1.1294  0.0804 -0.2323
 6920TIP3    H242252   1.250   0.542   0.052  0.0167 -1.0040  1.2392
 6921TIP3   OH242253   1.568   0.534  14.693 -0.0493  0.7828  0.5613
 6921TIP3    H142254   1.483   0.499  14.718 -1.0271  1.0774 -2.1080
 6921TIP3    H242255   1.558   0.629  14.700  0.6508  0.7632  1.9573
 6922TIP3   OH242256   5.683   6.688   4.643  0.1849 -0.2773 -0.0415
 6922TIP3    H142257   5.623   6.744   4.693  0.8180  0.4233 -0.0607
 6922TIP3    H242258   5.627   6.642   4.580 -0.5273 -0.6739  0.8660
 6923TIP3   OH242259   0.142   5.993   0.591 -0.0805  0.5556  0.0018
 6923TIP3    H142260   0.095   5.943   0.658 -1.0265 -1.0521 -1.8198
 6923TIP3    H242261   0.096   6.077   0.587 -0.9742  0.0841  0.2889
 6924TIP3   OH242262   2.807   1.621  14.842  0.2055 -0.2484  0.5920
 6924TIP3    H142263   2.749   1.659  14.777  0.3124 -2.1768 -0.6530
 6924TIP3    H242264   2.885   1.596  14.793  0.3805 -1.5075  1.4969
 6925TIP3   OH242265   1.180   5.665   1.329 -0.0142  0.8736  0.0489
 6925TIP3    H142266   1.266   5.702   1.345  0.8550 -1.0588 -0.0453
 6925TIP3    H242267   1.134   5.674   1.413  0.1626  2.1377  0.0235
 6926TIP3   OH242268   1.923   1.193   3.177  0.5713  0.6510 -0.2682
 6926TIP3    H142269   1.977   1.271   3.187 -0.3606  1.3842 -0.8829
 6926TIP3    H242270   1.836   1.220   3.206  0.7179 -0.7799  1.5902
 6927TIP3   OH242271   6.298   6.219   3.845  0.1982  0.1610 -0.1652
 6927TIP3    H142272   6.209   6.226   3.881  1.1881  1.2277  2.1945
 6927TIP3    H242273   6.331   6.309   3.847  1.6598 -0.3725 -0.1831
 6928TIP3   OH242274   5.813   1.268   2.148 -0.2719  0.3505 -0.1683
 6928TIP3    H142275   5.741   1.252   2.209  0.9754 -1.5623  0.8530
 6928TIP3    H242276   5.876   1.318   2.198 -0.0913  0.4522 -0.4947
 6929TIP3   OH242277   0.222   4.937  17.089  0.3277  0.4000 -0.1230
 6929TIP3    H142278   0.238   4.939  16.995  2.8395 -1.5003  0.2205
 6929TIP3    H242279   0.129   4.960  17.098 -0.0104  0.3262 -3.0656
 6930TIP3   OH242280   3.959   4.680  15.973  0.2524  1.0689 -0.0297
 6930TIP3    H142281   3.996   4.761  15.939  0.2264  1.3272  0.5407
 6930TIP3    H242282   4.024   4.613  15.953  0.7685  1.4210  0.4540
 6931TIP3   OH242283   2.537   2.695  14.841 -0.0067  0.6181  0.0135
 6931TIP3    H142284   2.472   2.727  14.779  0.9289 -0.0975 -1.3733
 6931TIP3    H242285   2.619   2.739  14.816  0.5870 -0.4023  0.1115
 6932TIP3   OH242286   0.252   5.953   4.200  0.4171  0.1968  0.0146
 6932TIP3    H142287   0.267   6.002   4.281 -0.7908  1.3667 -0.4613
 6932TIP3    H242288   0.221   5.867   4.230  1.1709  0.1974  0.8154
 6933TIP3   OH242289   1.869   4.588  14.774  0.1476  0.1967 -0.0410
 6933TIP3    H142290   1.949   4.595  14.826 -0.1464  0.6141  0.3654
 6933TIP3    H242291   1.870   4.667  14.719 -0.8282  1.0896  1.1797
 6934TIP3   OH242292   6.430   3.899   0.243 -0.1050  0.4290 -0.0798
 6934TIP3    H142293   6.512   3.850   0.241 -0.6700 -0.5343 -0.1152
 6934TIP3    H242294   6.450   3.977   0.294  0.3205 -0.7572  1.6472
 6935TIP3   OH242295   3.517   6.329   1.420  0.2831 -0.1948  0.5338
 6935TIP3    H142296   3.527   6.271   1.495  2.3644 -0.2118  0.2742
 6935TIP3    H242297   3.564   6.409   1.445 -1.5391  0.9592  0.4189
 6936TIP3   OH242298   5.446   4.450   2.684 -0.3109  0.4425  0.2999
 6936TIP3    H142299   5.393   4.415   2.755 -0.0873  0.3436  0.4182
 6936TIP3    H242300   5.440   4.385   2.615 -2.2401  1.5033 -0.5843
 6937TIP3   OH242301   1.292   4.078   5.429  0.0169 -0.6541  0.3999
 6937TIP3    H142302   1.203   4.066   5.462 -0.1964 -0.1679 -0.0045
 6937TIP3    H242303   1.348   4.041   5.498 -0.5132 -1.4424  0.4162
 6938TIP3   OH242304   1.002   3.326  13.240 -0.0625  0.4478 -0.1358
 6938TIP3    H142305   0.911   3.302  13.223 -0.0537  0.6859 -0.5176
 6938TIP3    H242306   1.001   3.360  13.330 -0.0866 -0.9064  0.4068
 6939TIP3   OH242307   0.961   0.189   6.414 -0.2815  0.1747  0.4615
 6939TIP3    H142308   1.042   0.138   6.414 -0.9563 -1.0615 -3.0365
 6939TIP3    H242309   0.986   0.275   6.379 -0.5769 -0.5183 -1.5473
 6940TIP3   OH242310   2.176   3.483   6.005 -0.0377 -0.3811 -0.0139
 6940TIP3    H142311   2.126   3.562   5.984  0.9609  0.2383 -0.0823
 6940TIP3    H242312   2.151   3.463   6.096  0.0509  0.2849  0.1618
 6941TIP3   OH242313   5.167   4.355   5.246 -0.3729 -0.1074 -0.5546
 6941TIP3    H142314   5.228   4.348   5.319  1.3522 -1.0357 -2.0508
 6941TIP3    H242315   5.180   4.444   5.213 -0.8193  0.1555 -0.0251
 6942TIP3   OH242316   2.396   1.873  14.298 -0.5944 -0.2156  0.0419
 6942TIP3    H142317   2.447   1.870  14.379 -2.2531  1.8191  1.1970
 6942TIP3    H242318   2.368   1.964  14.290  0.0075 -0.2454 -3.1448
 6943TIP3   OH242319   6.444   6.024  11.348 -0.4642  0.2482  0.2530
 6943TIP3    H142320   6.413   6.106  11.312  0.1034  0.8517  1.1208
 6943TIP3    H242321   6.390   6.009  11.425 -0.1671  0.1084  0.4350
 6944TIP3   OH242322   2.967   2.438  13.044 -0.1372 -0.0578 -0.4192
 6944TIP3    H142323   3.043   2.381  13.059 -0.7256 -0.6485  0.3992
 6944TIP3    H242324   2.893   2.390  13.082 -1.1949 -0.1991 -2.5925
 6945TIP3   OH242325   6.180   5.032  11.560  0.3472  0.3470  0.1633
 6945TIP3    H142326   6.153   5.122  11.545 -2.1478 -0.4999 -0.7609
 6945TIP3    H242327   6.173   4.990  11.474  5.2495  0.1289 -0.2844
 6946TIP3   OH242328   4.408   2.713   5.197  0.5734 -0.0071  0.4395
 6946TIP3    H142329   4.501   2.717   5.221  0.3838  0.1381  1.1487
 6946TIP3    H242330   4.361   2.711   5.281 -0.0320 -0.9176  0.0901
 6947TIP3   OH242331   3.117   1.242   6.057 -0.0679 -0.1824  0.5651
 6947TIP3    H142332   3.093   1.297   6.132 -0.3972 -0.2852  0.5321
 6947TIP3    H242333   3.212   1.254   6.049  0.4371 -2.3941  2.7940
 6948TIP3   OH242334   4.166   5.268  16.800  0.5678 -0.3930  0.2456
 6948TIP3    H142335   4.222   5.342  16.821  0.6516 -0.1411 -0.7927
 6948TIP3    H242336   4.195   5.198  16.857 -0.5592  0.8220  2.3715
 6949TIP3   OH242337   2.968   0.654   0.136 -0.0594  0.5842 -0.6297
 6949TIP3    H142338   2.973   0.620   0.047  2.2289  0.7188 -0.5802
 6949TIP3    H242339   2.937   0.579   0.188 -0.5314  0.2474 -1.3903
 6950TIP3   OH242340   2.453   4.241  15.234 -0.1215  0.2864 -0.1982
 6950TIP3    H142341   2.484   4.171  15.176 -0.5414 -1.2113  1.3564
 6950TIP3    H242342   2.505   4.231  15.314  2.5061  4.1513 -1.3097
 6951TIP3   OH242343   3.279   1.835   5.619 -0.2908  0.1619  0.0638
 6951TIP3    H142344   3.247   1.826   5.529 -1.3374  0.1689  0.4262
 6951TIP3    H242345   3.352   1.896   5.613 -1.0310  0.9781 -0.6324
 6952TIP3   OH242346   0.409   0.660  15.807  0.8311 -0.0467 -0.1361
 6952TIP3    H142347   0.451   0.709  15.877  0.3326 -0.0718  0.1855
 6952TIP3    H242348   0.347   0.722  15.768  0.5359 -0.2779 -0.0351
 6953TIP3   OH242349   4.428   6.403  14.561 -0.2099  0.5962  0.4357
 6953TIP3    H142350   4.433   6.308  14.559  0.2717  0.6166  0.5620
 6953TIP3    H242351   4.338   6.422  14.588 -0.1228  0.1661  1.0398
 6954TIP3   OH242352   2.185   0.575  15.208 -0.0479  0.7693 -0.1183
 6954TIP3    H142353   2.136   0.500  15.242  1.9586 -1.4780 -1.9093
 6954TIP3    H242354   2.228   0.613  15.284  0.7430 -1.3516  0.5251
 6955TIP3   OH242355   5.098   3.560  12.445  0.2590  0.4336  0.7559
 6955TIP3    H142356   5.146   3.549  12.362 -2.1167  3.0862 -1.0270
 6955TIP3    H242357   5.035   3.488  12.446  0.0446  0.6106  0.0700
 6956TIP3   OH242358   5.786   2.735   0.305 -0.1998 -0.8363 -0.2241
 6956TIP3    H142359   5.873   2.695   0.308  0.5049  0.4825 -1.9636
 6956TIP3    H242360   5.796   2.820   0.349 -0.8044 -1.0206  0.2768
 6957TIP3   OH242361   5.957   2.972   3.698 -0.1885  0.3237  0.4609
 6957TIP3    H142362   6.013   2.896   3.714 -1.0766 -0.4321  0.0742
 6957TIP3    H242363   5.930   3.001   3.785 -1.5504 -1.1189  0.5356
 6958TIP3   OH242364   1.598   5.021   3.906  0.4356  0.7539 -0.2871
 6958TIP3    H142365   1.611   4.936   3.948  1.7959 -0.0758 -2.3046
 6958TIP3    H242366   1.681   5.067   3.917 -0.0925  1.5893  0.2554
 6959TIP3   OH242367   3.392   3.387  15.024 -0.1145 -0.0069 -0.1574
 6959TIP3    H142368   3.438   3.313  14.985 -1.0571  0.0627 -1.4188
 6959TIP3    H242369   3.451   3.419  15.092  1.3915 -0.3812 -1.2619
 6960TIP3   OH242370   0.807   0.934  11.016  0.1004 -0.8528 -0.1230
 6960TIP3    H142371   0.769   0.865  10.962  1.5806 -1.0897 -0.8805
 6960TIP3    H242372   0.829   1.003  10.954  0.5031 -0.5381  0.3681
 6961TIP3   OH242373   4.410   4.886  16.792 -0.3147 -0.0443  0.3436
 6961TIP3    H142374   4.361   4.804  16.805 -2.1992  1.0225  0.1070
 6961TIP3    H242375   4.411   4.897  16.697 -0.2526  0.3089  0.3869
 6962TIP3   OH242376   4.257   1.316  16.029  0.2880 -0.5082 -0.0078
 6962TIP3    H142377   4.291   1.383  16.089  0.2959  2.0304 -2.7169
 6962TIP3    H242378   4.329   1.253  16.021  1.7668  1.1594 -0.2907
 6963TIP3   OH242379   4.360   0.529   2.599  0.1225  0.3823 -0.1465
 6963TIP3    H142380   4.393   0.599   2.656  0.6850 -0.1791  0.2134
 6963TIP3    H242381   4.384   0.448   2.644 -0.3935 -0.0436 -0.6461
 6964TIP3   OH242382   3.935   2.606  13.640 -0.2508 -0.2308 -0.1117
 6964TIP3    H142383   3.875   2.575  13.572 -1.5505  1.2789  0.3360
 6964TIP3    H242384   3.881   2.611  13.719  0.9631 -0.8130  0.7689
 6965TIP3   OH242385   4.244   1.679   3.744 -0.6472 -0.2803  0.2987
 6965TIP3    H142386   4.252   1.774   3.754 -2.8963 -0.1424  1.0759
 6965TIP3    H242387   4.258   1.663   3.650 -1.4606  0.9495 -0.0363
 6966TIP3   OH242388   4.369   0.500   1.088 -0.3635  0.0351 -0.0687
 6966TIP3    H142389   4.451   0.463   1.058  0.4085  1.9961 -0.4833
 6966TIP3    H242390   4.364   0.477   1.181  0.7638  0.0924  0.0114
 6967TIP3   OH242391   3.507   1.477  15.743 -0.3238  0.1674 -0.2446
 6967TIP3    H142392   3.461   1.395  15.761  0.2442 -0.3804 -1.2326
 6967TIP3    H242393   3.598   1.450  15.729  0.3038  1.2216  1.6203
 6968TIP3   OH242394   1.667   1.964  16.175  0.0480  0.0136 -0.0131
 6968TIP3    H142395   1.618   2.035  16.218 -0.5370 -0.2451 -0.2507
 6968TIP3    H242396   1.620   1.948  16.093  0.0263 -0.8188  0.1548
 6969TIP3   OH242397   1.937   5.956  15.034  0.1680  0.3360  0.0984
 6969TIP3    H142398   1.968   6.038  15.074  0.6090  0.6604 -0.8973
 6969TIP3    H242399   1.842   5.964  15.035  0.2208  1.3999 -1.0651
 6970TIP3   OH242400   5.722   0.473   6.395  0.5882 -0.2078  0.0891
 6970TIP3    H142401   5.628   0.460   6.382  0.1572  1.8607  0.9706
 6970TIP3    H242402   5.750   0.398   6.448 -1.1467  0.6555  2.2653
 6971TIP3   OH242403   5.013   2.391   5.284 -0.7004  0.1788 -0.2377
 6971TIP3    H142404   4.957   2.329   5.237  2.8237 -4.0562  0.8063
 6971TIP3    H242405   5.081   2.414   5.221  0.6619 -0.8203  0.8276
 6972TIP3   OH242406   3.113   3.559  13.385 -0.1333  0.1647 -0.5168
 6972TIP3    H142407   3.039   3.614  13.360 -1.4474 -0.6072  1.5195
 6972TIP3    H242408   3.183   3.621  13.406 -1.1552  1.0209  0.4262
 6973TIP3   OH242409   1.219   4.032   6.069 -0.4860 -0.1493 -0.3240
 6973TIP3    H142410   1.161   4.087   6.016 -0.8194 -0.1554  0.0374
 6973TIP3    H242411   1.289   4.006   6.008 -0.9248 -0.2443 -0.7917
 6974TIP3   OH242412   4.601   5.684  12.960 -0.2021  0.1095  0.0424
 6974TIP3    H142413   4.596   5.708  13.053 -2.6817 -0.0730 -0.0069
 6974TIP3    H242414   4.606   5.768  12.915  3.9597  0.1659  0.4052
 6975TIP3   OH242415   0.460   5.049  13.211  0.1867  0.5209  0.7343
 6975TIP3    H142416   0.463   5.018  13.302 -0.2666  2.0786  1.2927
 6975TIP3    H242417   0.369   5.079  13.199  0.5740  1.4723  0.1570
 6976TIP3   OH242418   4.963   3.757   5.399  0.1678  0.2179  0.8298
 6976TIP3    H142419   4.921   3.751   5.484  1.1403  1.8375  1.4432
 6976TIP3    H242420   5.038   3.697   5.406 -1.2853 -1.7420  0.1452
 6977TIP3   OH242421   0.048   1.302   2.575 -0.1380 -0.0561 -0.0157
 6977TIP3    H142422  -0.043   1.300   2.606 -0.4448  0.2571 -0.8978
 6977TIP3    H242423   0.041   1.307   2.480  0.8060  0.0596 -0.0808
 6978TIP3   OH242424   0.887   1.419  12.001  0.3115  0.0905 -0.6972
 6978TIP3    H142425   0.826   1.414  12.075 -1.6173 -0.6285 -2.2677
 6978TIP3    H242426   0.951   1.350  12.018 -0.7206 -0.7708 -0.1934
 6979TIP3   OH242427   0.474   4.624  13.032  0.1213 -0.7626  0.0303
 6979TIP3    H142428   0.501   4.593  12.946 -0.1519 -1.2117  0.1065
 6979TIP3    H242429   0.390   4.581  13.048 -0.7422  0.7745 -0.2978
 6980TIP3   OH242430   1.814   5.926   1.784 -0.3225  0.2989 -0.1267
 6980TIP3    H142431   1.746   5.864   1.809  0.0393 -0.4340 -0.9418
 6980TIP3    H242432   1.814   5.991   1.854 -2.1387  0.5318 -0.3399
 6981TIP3   OH242433   5.360   1.282  11.410  0.2004  0.0178 -0.3003
 6981TIP3    H142434   5.417   1.279  11.334 -0.3418 -0.7037 -0.6840
 6981TIP3    H242435   5.271   1.284  11.374 -0.0215  3.8544  0.2137
 6982TIP3   OH242436   3.908   6.814   1.947  0.0623 -0.3382 -0.0939
 6982TIP3    H142437   3.999   6.793   1.967 -0.2485 -1.8375 -0.1918
 6982TIP3    H242438   3.866   6.819   2.033  0.2540  0.4266 -0.0451
 6983TIP3   OH242439   2.768   0.897   2.761 -0.4470  0.0867  0.1948
 6983TIP3    H142440   2.795   0.870   2.673 -0.8929 -0.5540  0.2504
 6983TIP3    H242441   2.725   0.981   2.749  1.5671  1.1338  0.0952
 6984TIP3   OH242442   3.790   1.542  16.919 -0.1341  0.5490  0.1649
 6984TIP3    H142443   3.781   1.463  16.867 -3.6720  0.6434  0.5149
 6984TIP3    H242444   3.856   1.521  16.984  0.8604 -1.1994 -1.3716
 6985TIP3   OH242445   6.629   1.173  14.510 -0.0535 -0.5549  0.2697
 6985TIP3    H142446   6.610   1.100  14.451  0.1676 -0.9981  0.7464
 6985TIP3    H242447   6.625   1.251  14.454 -1.2546 -0.8387 -0.0398
 6986TIP3   OH242448   2.369   2.244   3.473  0.1413  0.1730 -0.4860
 6986TIP3    H142449   2.434   2.197   3.526  0.3066 -0.0340 -0.8713
 6986TIP3    H242450   2.417   2.271   3.395 -0.5903 -1.2366 -1.4444
 6987TIP3   OH242451   6.703   5.283   5.858 -0.0600 -0.3220 -0.1653
 6987TIP3    H142452   6.797   5.298   5.864 -0.1108 -0.0484 -0.0103
 6987TIP3    H242453   6.674   5.341   5.787 -0.2598  0.3221  0.4367
 6988TIP3   OH242454   3.585   1.544   5.089  0.4166  0.1470  0.2336
 6988TIP3    H142455   3.624   1.456   5.086  1.8978  0.7902 -0.1694
 6988TIP3    H242456   3.653   1.598   5.131 -1.3309  0.6800  2.4466
 6989TIP3   OH242457   6.688   1.369   4.688  0.2327 -0.4891 -0.5219
 6989TIP3    H142458   6.607   1.415   4.712  0.9934  0.4229  0.2972
 6989TIP3    H242459   6.691   1.294   4.748 -0.9802 -1.6209 -1.8268
 6990TIP3   OH242460   4.856   2.185  13.682  0.3507  0.2653  0.7977
 6990TIP3    H142461   4.889   2.101  13.651 -1.2523 -0.9304  2.2664
 6990TIP3    H242462   4.825   2.229  13.602 -0.1808 -1.1490  0.2170
 6991TIP3   OH242463   0.425   5.777   5.728 -0.0192  0.3765 -0.3191
 6991TIP3    H142464   0.428   5.699   5.672  0.0731  0.1841 -0.0410
 6991TIP3    H242465   0.341   5.771   5.773  0.3798 -0.0176  0.3707
 6992TIP3   OH242466   0.155   6.092   5.691  0.1844 -0.0985 -0.8251
 6992TIP3    H142467   0.113   6.014   5.654 -0.7029 -0.3523  0.6705
 6992TIP3    H242468   0.085   6.135   5.740  1.0446  0.8606 -0.4342
 6993TIP3   OH242469   6.511   2.775   5.320 -0.0528  0.2536 -0.1043
 6993TIP3    H142470   6.556   2.853   5.289 -2.0756  0.7946 -1.8006
 6993TIP3    H242471   6.491   2.725   5.241 -0.1601 -1.2297  0.8272
 6994TIP3   OH242472   2.391   0.001  15.077 -0.2871 -0.2229  0.6473
 6994TIP3    H142473   2.363   0.077  15.027  1.6720  0.5311  0.6406
 6994TIP3    H242474   2.436   0.037  15.154  0.0860 -1.3585  0.9766
 6995TIP3   OH242475   2.418   4.229   4.722  0.3048  0.3004  0.6006
 6995TIP3    H142476   2.404   4.319   4.694 -2.5813 -0.4615 -0.5434
 6995TIP3    H242477   2.503   4.205   4.683  1.4449  2.6971  1.5155
 6996TIP3   OH242478   2.366   2.297  15.549 -0.7578 -0.1132  0.0746
 6996TIP3    H142479   2.354   2.216  15.597 -2.0077 -0.5868 -1.0003
 6996TIP3    H242480   2.377   2.364  15.616  1.1283 -1.2858  0.9587
 6997TIP3   OH242481   6.655   6.460  15.884  0.5138  0.0458 -0.3750
 6997TIP3    H142482   6.678   6.504  15.966  2.3209  0.1714 -0.9351
 6997TIP3    H242483   6.646   6.367  15.908  2.4322 -0.1344 -0.2811
 6998TIP3   OH242484   4.967   1.099   0.679 -0.1230  0.4887  0.4179
 6998TIP3    H142485   4.904   1.167   0.706 -2.9303 -1.3763 -1.1620
 6998TIP3    H242486   4.981   1.115   0.586 -0.1033 -0.5665  0.2363
 6999TIP3   OH242487   1.397   6.021  11.429  0.7426 -0.3613  0.2296
 6999TIP3    H142488   1.303   6.026  11.444  0.6508  1.1265 -0.6987
 6999TIP3    H242489   1.414   6.088  11.363  2.8424  1.2750  2.3275
 7000TIP3   OH242490   1.521   4.593   0.255  0.1077 -0.1386  0.2940
 7000TIP3    H142491   1.522   4.497   0.249 -1.1370 -0.2019  0.9459
 7000TIP3    H242492   1.518   4.611   0.349  0.1003  0.5392  0.1643
 7001TIP3   OH242493   1.417   6.210   5.974  0.3762 -0.0068 -0.3592
 7001TIP3    H142494   1.347   6.193   6.036  1.1924  0.2687  0.6432
 7001TIP3    H242495   1.488   6.151   6.000 -0.0387 -1.4409 -2.3361
 7002TIP3   OH242496   1.032   1.614   3.305  0.5646 -0.3628 -0.0761
 7002TIP3    H142497   0.977   1.584   3.232 -1.0405 -0.3868  1.1030
 7002TIP3    H242498   0.979   1.595   3.383  0.9507  2.4353  0.9048
 7003TIP3   OH242499   5.255   6.468  17.164  0.0129  0.0589  0.1827
 7003TIP3    H142500   5.275   6.406  17.094  1.1964  1.5802 -0.8802
 7003TIP3    H242501   5.339   6.512  17.181 -0.6043  0.7547  1.5204
 7004TIP3   OH242502   5.779   4.629  11.241  0.1915  0.1241  0.3203
 7004TIP3    H142503   5.712   4.666  11.185 -2.3688 -2.5105  1.5315
 7004TIP3    H242504   5.811   4.552  11.193 -0.9783 -1.2915  1.7558
 7005TIP3   OH242505   4.998   3.330  12.369  0.4369  0.1072 -0.3318
 7005TIP3    H142506   5.017   3.299  12.281  0.5444  0.2935 -0.3744
 7005TIP3    H242507   4.921   3.280  12.397  2.3995 -2.4575  0.7661
 7006TIP3   OH242508   0.029   3.490  16.277  0.0416 -0.2423  0.2780
 7006TIP3    H142509  -0.009   3.529  16.198  1.8761  1.2333  0.0908
 7006TIP3    H242510  -0.045   3.448  16.321 -1.1781 -0.2897 -1.7452
 7007TIP3   OH242511   0.093   1.729   1.473 -0.4337  0.0128  0.6827
 7007TIP3    H142512   0.016   1.768   1.430 -0.4446  0.0136  0.7029
 7007TIP3    H242513   0.069   1.637   1.484 -2.0279  0.7604  4.2515
 7008TIP3   OH242514   0.837   1.139  13.903 -0.1503  1.1222 -0.2525
 7008TIP3    H142515   0.892   1.203  13.949 -0.8501  1.4140  0.1785
 7008TIP3    H242516   0.807   1.186  13.825 -0.5742  1.2834  0.0068
 7009TIP3   OH242517   4.362   4.068   5.944  0.0549  0.1925  0.2402
 7009TIP3    H142518   4.278   4.051   5.986 -0.3206  1.5974  0.0845
 7009TIP3    H242519   4.389   4.153   5.978 -0.0189  1.1242 -1.9423
 7010TIP3   OH242520   4.625   1.142   4.024 -0.6402 -0.1861  0.4046
 7010TIP3    H142521   4.576   1.071   3.983 -1.1599 -0.5894  1.6962
 7010TIP3    H242522   4.569   1.219   4.013 -0.1569 -0.0080 -0.8410
 7011TIP3   OH242523   3.751   1.191  13.124  0.0602 -0.0303 -0.1300
 7011TIP3    H142524   3.835   1.235  13.110 -0.8175  1.3381 -1.2756
 7011TIP3    H242525   3.765   1.101  13.097  1.4091 -0.0247  0.5541
 7012TIP3   OH242526   4.032   1.919  11.347  0.4497 -0.3165  0.1994
 7012TIP3    H142527   3.940   1.945  11.346  0.6178  0.2569 -1.2916
 7012TIP3    H242528   4.063   1.943  11.434  0.4225  3.8907 -0.8617
 7013TIP3   OH242529   3.863   5.032   2.113  0.2072  0.3791  0.1204
 7013TIP3    H142530   3.823   4.975   2.179  0.2838  1.2718  0.9614
 7013TIP3    H242531   3.941   4.985   2.084 -0.0169 -0.1830  0.4282
 7014TIP3   OH242532   4.232   3.741  15.600 -0.1447  0.1961  0.0726
 7014TIP3    H142533   4.252   3.716  15.690 -1.7774  0.8524  0.6505
 7014TIP3    H242534   4.272   3.827  15.589  0.8241 -0.2806 -0.1259
 7015TIP3   OH242535   3.874   0.937  15.130  0.1315  0.0714 -0.3692
 7015TIP3    H142536   3.858   0.928  15.036  0.5078  0.3629 -0.4606
 7015TIP3    H242537   3.898   1.029  15.142  0.8977 -0.1536 -0.1099
 7016TIP3   OH242538   0.306   5.498   1.547 -0.7861  0.1630 -0.3224
 7016TIP3    H142539   0.321   5.403   1.541  2.0628  0.5049  0.4160
 7016TIP3    H242540   0.281   5.524   1.459 -0.6626 -1.1379 -0.7534
 7017TIP3   OH242541   3.778   5.603   6.439  0.3570 -0.6058  0.7956
 7017TIP3    H142542   3.795   5.527   6.384 -0.0908  0.7974 -1.3357
 7017TIP3    H242543   3.683   5.615   6.435  0.6520  1.4416 -0.8049
 7018TIP3   OH242544   4.612   4.519   2.538 -0.1525 -0.7373  0.3027
 7018TIP3    H142545   4.592   4.484   2.452  0.5882 -0.5587  0.0571
 7018TIP3    H242546   4.699   4.559   2.529 -1.1471  1.5708  0.4391
 7019TIP3   OH242547   4.345   4.505   5.597  0.0077 -0.5023  0.7274
 7019TIP3    H142548   4.371   4.413   5.585 -0.2294 -0.6036  0.9741
 7019TIP3    H242549   4.254   4.509   5.567 -0.0829 -0.4181  1.0088
 7020TIP3   OH242550   1.900   6.605  12.069 -0.4859 -0.1951  0.6173
 7020TIP3    H142551   1.816   6.573  12.036 -0.8213  0.1279  1.1489
 7020TIP3    H242552   1.953   6.526  12.081 -0.7427 -0.4060  0.3661
 7021TIP3   OH242553   5.046   6.064  12.342  0.3727  0.0791 -0.2019
 7021TIP3    H142554   5.131   6.021  12.356  0.5153  0.7329  1.0050
 7021TIP3    H242555   4.997   6.048  12.422  0.4690  2.2058  0.3327
 7022TIP3   OH242556   3.279   6.623  16.970 -0.0064 -0.2198  0.1680
 7022TIP3    H142557   3.321   6.654  16.890  0.7991 -0.5887  0.4401
 7022TIP3    H242558   3.240   6.540  16.946 -0.7491  0.2137 -0.1367
 7023TIP3   OH242559   1.330   3.344   2.621  0.1809 -0.0122  0.0662
 7023TIP3    H142560   1.259   3.354   2.684 -1.2533  1.6064 -1.7560
 7023TIP3    H242561   1.364   3.432   2.609  1.0224 -0.4401 -0.7520
 7024TIP3   OH242562   4.612   1.867   0.655 -0.3666  0.4038 -0.0252
 7024TIP3    H142563   4.539   1.928   0.650 -1.5781 -1.0425 -0.2673
 7024TIP3    H242564   4.617   1.829   0.567  0.8901  0.7397 -0.1033
 7025TIP3   OH242565   2.717   3.297  15.703  0.3773  0.0417  0.7575
 7025TIP3    H142566   2.718   3.207  15.671 -0.2229  0.3328 -0.1081
 7025TIP3    H242567   2.783   3.299  15.772  0.0903 -1.1630  1.0665
 7026TIP3   OH242568   1.477   2.233  16.085  0.0345  0.2211 -0.7896
 7026TIP3    H142569   1.444   2.146  16.109 -1.0921  0.4612 -1.4711
 7026TIP3    H242570   1.410   2.270  16.028  0.4188  1.6375 -0.3282
 7027TIP3   OH242571   6.300   3.132   1.913 -0.8169 -0.0841  0.5095
 7027TIP3    H142572   6.328   3.180   1.991 -0.6343 -1.4770  1.3321
 7027TIP3    H242573   6.209   3.155   1.901 -0.9758 -0.1991  1.4236
 7028TIP3   OH242574   4.629   5.152  12.098 -0.2166  0.0029  0.0158
 7028TIP3    H142575   4.660   5.113  12.180 -0.2555 -1.1960 -0.5207
 7028TIP3    H242576   4.705   5.198  12.063  0.1115 -0.3941  0.2000
 7029TIP3   OH242577   3.792   6.635   1.725  0.5859 -0.0648  0.4152
 7029TIP3    H142578   3.801   6.657   1.818 -0.5293  1.7338  0.1227
 7029TIP3    H242579   3.706   6.592   1.720  0.5701 -0.0067  0.2012
 7030TIP3   OH242580   1.819   2.458   5.414  0.1015  0.4775 -0.0684
 7030TIP3    H142581   1.895   2.401   5.413  0.3724  0.8470 -1.3368
 7030TIP3    H242582   1.854   2.545   5.396 -0.1949  1.1935  2.6352
 7031TIP3   OH242583   1.008   4.365   3.554  0.1551  0.0596 -0.0085
 7031TIP3    H142584   0.943   4.331   3.615 -0.1134 -0.0824 -0.3717
 7031TIP3    H242585   1.069   4.292   3.542 -0.0056 -0.0440 -0.2062
 7032TIP3   OH242586   1.645   0.500   4.855 -0.0022 -1.0897 -0.1364
 7032TIP3    H142587   1.700   0.544   4.790  0.2632  0.3424  1.0283
 7032TIP3    H242588   1.566   0.553   4.860 -0.5841 -1.9440 -0.2572
 7033TIP3   OH242589   4.660   5.730   1.122  0.3894 -0.6093 -0.3817
 7033TIP3    H142590   4.591   5.687   1.071  1.0507  1.1926 -2.8902
 7033TIP3    H242591   4.615   5.798   1.171  0.2182 -0.1633 -1.1546
 7034TIP3   OH242592   0.999   0.706  14.005  0.4185 -0.0499  0.3609
 7034TIP3    H142593   0.983   0.614  14.026  3.3208 -0.5605  0.4532
 7034TIP3    H242594   1.072   0.732  14.061  1.1510  1.6411 -1.3099
 7035TIP3   OH242595   1.804   0.736   3.184  0.0510 -0.4924 -0.9027
 7035TIP3    H142596   1.760   0.784   3.253 -0.9970 -3.1660  0.3589
 7035TIP3    H242597   1.817   0.801   3.114 -2.3435  1.3159  0.2504
 7036TIP3   OH242598   6.253   0.955  12.052 -0.1224  0.5416  0.5836
 7036TIP3    H142599   6.160   0.953  12.076 -0.2893 -0.5742 -0.1111
 7036TIP3    H242600   6.254   0.992  11.964  0.1179  0.8427  0.7127
 7037TIP3   OH242601   3.985   5.097  17.075 -0.4601  0.2226 -0.3869
 7037TIP3    H142602   4.063   5.081  17.022 -0.7216 -0.0180 -0.7061
 7037TIP3    H242603   3.954   5.183  17.048 -0.3904  0.2522 -0.3701
 7038TIP3   OH242604   3.187   5.314  16.961 -0.3254  0.0479  0.3074
 7038TIP3    H142605   3.143   5.399  16.953 -0.7601 -0.1242  0.9126
 7038TIP3    H242606   3.181   5.276  16.873 -0.8746  0.2791  0.2405
 7039TIP3   OH242607   4.233   6.371  13.285  0.0140 -0.3868  0.2461
 7039TIP3    H142608   4.295   6.435  13.251 -0.6095  0.2939  0.3710
 7039TIP3    H242609   4.170   6.423  13.335 -0.9673 -0.9965 -0.3282
 7040TIP3   OH242610   6.629   0.009   0.793 -0.0868  0.3159  0.7762
 7040TIP3    H142611   6.705   0.011   0.736 -0.4446  0.0936  0.2813
 7040TIP3    H242612   6.612  -0.085   0.806  0.3925  0.3661  1.7899
 7041TIP3   OH242613   1.535   4.421   1.841  0.1249  0.3226  0.3492
 7041TIP3    H142614   1.440   4.410   1.837  0.1794  0.2814 -1.4457
 7041TIP3    H242615   1.569   4.360   1.775  1.3236  1.1338  0.1978
 7042TIP3   OH242616   4.071   0.135  10.752 -0.0401  0.3173  0.0465
 7042TIP3    H142617   4.159   0.169  10.771  0.2423 -0.0599 -0.5453
 7042TIP3    H242618   4.015   0.173  10.819  0.6022  0.4680  0.5017
 7043TIP3   OH242619   5.184   4.841   2.375  0.5221 -0.0841  0.5477
 7043TIP3    H142620   5.123   4.801   2.437  0.9070 -0.8855  0.4269
 7043TIP3    H242621   5.223   4.914   2.423  0.6257 -0.5399  1.1605
 7044TIP3   OH242622   3.923   6.671  15.098  0.6791 -0.1737  0.4189
 7044TIP3    H142623   3.919   6.575  15.094 -0.9148 -0.1458  1.0425
 7044TIP3    H242624   3.863   6.700  15.029  1.7526  0.3826 -0.2858
 7045TIP3   OH242625   1.353   4.354  17.111  0.2678  1.0413  0.0806
 7045TIP3    H142626   1.402   4.303  17.046  0.1130  3.2487 -1.8397
 7045TIP3    H242627   1.308   4.288  17.165  0.6946 -0.8570 -1.8299
 7046TIP3   OH242628   3.230   2.356  13.087  0.0790  0.1056 -0.0702
 7046TIP3    H142629   3.261   2.445  13.075  1.4779 -0.4539 -0.7632
 7046TIP3    H242630   3.247   2.337  13.180 -2.5065  1.3763  0.7101
 7047TIP3   OH242631   2.104   2.112  13.356 -0.1980  0.5403  0.0994
 7047TIP3    H142632   2.018   2.070  13.347  0.2461 -0.0084 -1.9579
 7047TIP3    H242633   2.085   2.204  13.369 -1.1112  0.9717 -3.7342
 7048TIP3   OH242634   6.318   4.616   0.833 -0.2231 -0.1958 -1.2190
 7048TIP3    H142635   6.246   4.569   0.875  0.3309  0.8383  0.9410
 7048TIP3    H242636   6.276   4.686   0.783 -0.7250  0.5984  0.2856
 7049TIP3   OH242637   0.381   0.202   6.209  0.4105 -0.4512  0.4270
 7049TIP3    H142638   0.444   0.132   6.190 -0.3300 -1.2340  0.8127
 7049TIP3    H242639   0.350   0.230   6.123  0.2929 -0.9942  0.2884
 7050TIP3   OH242640   1.303   2.996   5.434 -0.0368 -0.3660  0.3094
 7050TIP3    H142641   1.369   3.061   5.458  0.2286 -0.8150  0.8082
 7050TIP3    H242642   1.354   2.922   5.401 -0.2901 -0.7290  0.7359
 7051TIP3   OH242643   3.303   2.265   5.643 -0.4116 -0.0987  0.0405
 7051TIP3    H142644   3.254   2.238   5.565  1.5747 -0.2110 -1.2035
 7051TIP3    H242645   3.307   2.360   5.637  0.0572 -0.1304 -0.2098
 7052TIP3   OH242646   3.669   5.909   1.737  0.4289  0.1037 -0.2722
 7052TIP3    H142647   3.756   5.943   1.714  0.4742  0.3034  0.1761
 7052TIP3    H242648   3.609   5.958   1.681  0.6615 -0.5481 -1.1003
 7053TIP3   OH242649   2.040   4.230  13.341 -0.3034  0.2791 -0.4686
 7053TIP3    H142650   2.038   4.323  13.317  0.3011  0.8767  1.6480
 7053TIP3    H242651   2.122   4.197  13.303  0.4221  1.0951  0.3527
 7054TIP3   OH242652   3.215   0.072  15.311 -0.2583 -0.0326 -0.2904
 7054TIP3    H142653   3.163  -0.004  15.286 -0.7299 -0.4314  1.8644
 7054TIP3    H242654   3.210   0.130  15.234  0.7163 -2.4420 -2.2497
 7055TIP3   OH242655   0.996   6.178  13.146  0.3996  0.0691 -0.4702
 7055TIP3    H142656   1.030   6.266  13.132  0.2702 -0.0610 -1.6406
 7055TIP3    H242657   1.001   6.136  13.060  0.4851 -1.0754  0.0868
 7056TIP3   OH242658   5.546   3.384  16.942 -0.2857 -0.2192  0.5699
 7056TIP3    H142659   5.476   3.353  16.884  1.8203  0.4646 -2.5203
 7056TIP3    H242660   5.518   3.470  16.970 -0.9536 -0.1726 -0.2227
 7057TIP3   OH242661   6.026   2.369  11.764  0.6486 -0.4802 -0.1206
 7057TIP3    H142662   6.084   2.438  11.732 -2.5685  1.4006 -2.2553
 7057TIP3    H242663   6.019   2.308  11.691  0.9857 -1.3914  0.6021
 7058TIP3   OH242664   2.693   1.170  15.866  0.5789 -0.0616 -0.6135
 7058TIP3    H142665   2.707   1.219  15.947  2.7960 -0.4703 -0.7104
 7058TIP3    H242666   2.598   1.166  15.856  0.2844  0.0670  1.9142
 7059TIP3   OH242667   5.029   1.305   1.642 -0.1801 -0.1123 -0.2773
 7059TIP3    H142668   5.102   1.314   1.581 -0.3904 -0.8006 -0.6334
 7059TIP3    H242669   5.064   1.252   1.714 -1.1102 -2.8469 -1.7700
 7060TIP3   OH242670   4.538   1.819  13.592 -0.0831  0.0320  0.3864
 7060TIP3    H142671   4.480   1.803  13.518  0.6074 -2.1949  0.2937
 7060TIP3    H242672   4.499   1.768  13.663  0.6219  0.2034  0.8965
 7061TIP3   OH242673   3.707   6.049  13.233 -0.5991  0.6038  0.4064
 7061TIP3    H142674   3.635   6.095  13.276 -2.5096 -1.4549 -0.4512
 7061TIP3    H242675   3.721   5.971  13.287  0.7149  0.7655  0.3184
 7062TIP3   OH242676   2.825   4.682  11.524  0.5034 -0.1701 -0.2339
 7062TIP3    H142677   2.735   4.694  11.554  0.6452 -1.7688  0.9414
 7062TIP3    H242678   2.845   4.590  11.545  2.3041  0.0884 -0.7236
 7063TIP3   OH242679   1.054   0.502  11.893  0.0590 -0.2670 -0.4470
 7063TIP3    H142680   1.026   0.521  11.982 -0.6322 -1.1082 -0.4663
 7063TIP3    H242681   0.997   0.556  11.838 -0.7924 -1.1350 -0.4410
 7064TIP3   OH242682   5.095   1.565  14.640 -0.4685  0.5548  0.8115
 7064TIP3    H142683   5.137   1.649  14.622  0.1821  0.0368 -0.0974
 7064TIP3    H242684   5.152   1.525  14.706 -1.0330  1.0098  1.5963
 7065TIP3   OH242685   1.844   4.186   0.451 -0.1799  0.3399  0.4204
 7065TIP3    H142686   1.886   4.104   0.426  1.1397  0.9068  0.7393
 7065TIP3    H242687   1.821   4.227   0.368 -2.0742 -0.9494  0.2635
 7066TIP3   OH242688   1.026   2.535   1.575  0.6616  0.3385  0.4519
 7066TIP3    H142689   1.049   2.585   1.498  1.1896  0.5457  0.7416
 7066TIP3    H242690   0.931   2.527   1.572  0.6652  0.5379 -0.0962
 7067TIP3   OH242691   1.662   2.645  10.911  0.1681 -0.4127 -0.1294
 7067TIP3    H142692   1.684   2.574  10.850 -0.8605 -0.4650 -0.4358
 7067TIP3    H242693   1.662   2.724  10.857 -0.1599 -0.3781 -0.0797
 7068TIP3   OH242694   2.116   1.485  11.742 -0.1437 -0.4803  0.5422
 7068TIP3    H142695   2.174   1.532  11.682 -0.4376  0.4068  0.9379
 7068TIP3    H242696   2.122   1.534  11.824 -2.2719  0.2857  0.2764
 7069TIP3   OH242697   0.214   0.286   6.990  0.5784 -0.1296  0.0119
 7069TIP3    H142698   0.261   0.223   6.934 -0.8928 -3.4141  2.3040
 7069TIP3    H242699   0.122   0.270   6.971  0.1296  0.1022  1.9063
 7070TIP3   OH242700   1.182   0.174  13.440  0.2677  0.3074 -0.3544
 7070TIP3    H142701   1.256   0.130  13.480  0.3674  0.5785 -0.2359
 7070TIP3    H242702   1.183   0.262  13.479 -0.8266 -0.0692  0.5571
 7071TIP3   OH242703   0.175   6.153   2.477  0.0177 -0.1832 -0.1645
 7071TIP3    H142704   0.109   6.110   2.530  1.1235 -0.5533  0.9278
 7071TIP3    H242705   0.245   6.089   2.469  0.9986  0.8360  0.1714
 7072TIP3   OH242706   1.272   2.893  15.365  0.1338 -0.2456 -0.3558
 7072TIP3    H142707   1.206   2.839  15.322  0.4740  0.6754 -2.0299
 7072TIP3    H242708   1.246   2.983  15.348  1.7180  0.1259 -0.8749
 7073TIP3   OH242709   1.557   1.772   1.418 -0.0039 -0.1246  0.0446
 7073TIP3    H142710   1.556   1.792   1.325  0.5790  1.7277  0.4140
 7073TIP3    H242711   1.475   1.808   1.452 -0.7926 -1.8728  0.0577
 7074TIP3   OH242712   2.989   6.438   2.096  0.2975  0.0621  0.3433
 7074TIP3    H142713   2.951   6.355   2.125 -1.1494  0.7367  0.4395
 7074TIP3    H242714   3.054   6.413   2.030 -0.6746 -1.1062 -0.1890
 7075TIP3   OH242715   2.440   3.025   3.769  0.2135  0.0114 -0.1365
 7075TIP3    H142716   2.415   3.089   3.702  0.0048  0.7760  0.6513
 7075TIP3    H242717   2.366   3.026   3.830  1.8640  1.8421  1.9106
 7076TIP3   OH242718   5.998   5.495   1.331 -0.6720  0.2678  0.7494
 7076TIP3    H142719   5.950   5.557   1.386 -0.3084  2.1746 -1.0178
 7076TIP3    H242720   6.088   5.526   1.333 -0.3570 -0.6030  0.3748
 7077TIP3   OH242721   2.499   0.935   4.817  0.5901 -0.6876  0.2597
 7077TIP3    H142722   2.518   0.842   4.812  1.4063 -0.4829 -0.4993
 7077TIP3    H242723   2.580   0.978   4.788 -0.8006  0.1919 -2.5178
 7078TIP3   OH242724   5.035   2.593  16.021 -0.0377 -0.1274 -0.1696
 7078TIP3    H142725   4.998   2.657  16.082 -0.4786  0.7515 -1.3335
 7078TIP3    H242726   5.130   2.604  16.029 -0.1010  0.2411  0.0853
 7079TIP3   OH242727   3.580   4.040  12.156 -0.3961  0.0833 -0.1498
 7079TIP3    H142728   3.627   4.059  12.076  1.0378 -0.1866  0.6209
 7079TIP3    H242729   3.632   4.079  12.226 -0.4974 -1.5276  0.8604
 7080TIP3   OH242730   6.054   3.549  13.503 -0.3712  0.4829  0.3316
 7080TIP3    H142731   6.115   3.601  13.555 -0.7299  1.2157  0.0151
 7080TIP3    H242732   5.997   3.507  13.567  0.0886  0.2554  0.5958
 7081TIP3   OH242733   3.579   6.269   0.848  0.5108 -0.2070  1.1374
 7081TIP3    H142734   3.493   6.228   0.858  0.8429 -1.4347 -0.8062
 7081TIP3    H242735   3.641   6.198   0.863  1.1627  0.3678  1.1676
 7082TIP3   OH242736   6.500   1.147  15.676 -0.2048 -1.0575  0.2408
 7082TIP3    H142737   6.472   1.210  15.610  0.0885  0.7345  1.7813
 7082TIP3    H242738   6.424   1.091  15.690 -0.2983 -1.3895 -1.5249
 7083TIP3   OH242739   3.991   2.992  12.691  0.3084 -0.5381 -0.6579
 7083TIP3    H142740   3.916   2.939  12.665  0.0457 -0.9441  0.8310
 7083TIP3    H242741   3.979   3.006  12.785  1.9715 -0.4334 -0.4297
 7084TIP3   OH242742   4.212   1.163   0.048 -0.1356  0.4493  0.6486
 7084TIP3    H142743   4.207   1.258   0.040 -1.0768  0.2986 -0.6182
 7084TIP3    H242744   4.219   1.148   0.142 -0.9946  1.7185  0.9316
 7085TIP3   OH242745   5.361   0.049   5.751 -0.1858  0.0202 -0.6392
 7085TIP3    H142746   5.444   0.033   5.706  0.3528  3.1653 -0.9189
 7085TIP3    H242747   5.384   0.056   5.843 -0.6704 -2.3399 -0.3125
 7086TIP3   OH242748   4.412   6.162   2.234  0.1871  0.2131 -0.4359
 7086TIP3    H142749   4.385   6.227   2.299 -1.7546 -0.9921 -0.0097
 7086TIP3    H242750   4.371   6.192   2.153 -1.9070 -1.2247  0.0602
 7087TIP3   OH242751   2.041   1.534  11.244 -0.0784 -0.1815 -0.6229
 7087TIP3    H142752   2.032   1.626  11.270  1.5683 -0.1000 -0.2470
 7087TIP3    H242753   2.005   1.530  11.156  1.1322  1.1478 -1.2166
 7088TIP3   OH242754   4.943   5.837  15.670  0.1081  0.1536  0.0940
 7088TIP3    H142755   4.895   5.906  15.624  1.0353 -0.6548 -2.1199
 7088TIP3    H242756   4.880   5.802  15.733 -1.6328  0.2970 -1.5433
 7089TIP3   OH242757   2.925   0.842   1.800  0.2374 -0.1215  0.4867
 7089TIP3    H142758   3.002   0.795   1.833  0.2704 -1.2261 -1.0765
 7089TIP3    H242759   2.961   0.907   1.740 -0.0017 -0.2762  0.1730
 7090TIP3   OH242760   3.043   6.069   4.297 -0.6540 -0.1339  0.3463
 7090TIP3    H142761   3.033   6.162   4.279 -0.3074 -0.1162  0.2490
 7090TIP3    H242762   3.101   6.037   4.228 -1.5384 -0.6151 -0.1923
 7091TIP3   OH242763   5.316   1.541   0.824 -0.1241  0.0318 -0.5986
 7091TIP3    H142764   5.392   1.487   0.804 -1.1982 -1.8565  0.2556
 7091TIP3    H242765   5.262   1.537   0.745 -1.0747 -1.6942  0.1203
 7092TIP3   OH242766   5.393   6.255   5.157  0.6062 -0.3555  0.4776
 7092TIP3    H142767   5.336   6.198   5.106 -0.6103  1.8114 -0.6454
 7092TIP3    H242768   5.401   6.335   5.104  1.1006  1.0722  2.6428
 7093TIP3   OH242769   2.821   0.227  13.396 -0.4344  0.6120  0.0502
 7093TIP3    H142770   2.763   0.215  13.321 -0.0244  1.0612 -0.3386
 7093TIP3    H242771   2.880   0.298  13.371 -0.7565  1.2548  1.0821
 7094TIP3   OH242772   4.656   2.633   1.274  0.4464  0.0230 -0.0948
 7094TIP3    H142773   4.730   2.626   1.335  0.9041 -0.6728 -0.7116
 7094TIP3    H242774   4.601   2.702   1.310  0.1554 -1.1088  1.6862
 7095TIP3   OH242775   1.723   2.477  15.701  0.0726 -0.2069  0.0445
 7095TIP3    H142776   1.792   2.498  15.764  0.6679 -0.6046 -0.4614
 7095TIP3    H242777   1.666   2.416  15.746  1.0554 -1.2652 -0.1346
 7096TIP3   OH242778   2.472   2.263  15.043 -0.4177  0.1368 -0.0748
 7096TIP3    H142779   2.558   2.290  15.011 -0.0591 -1.2882 -0.3319
 7096TIP3    H242780   2.481   2.263  15.139  0.4725 -1.9071 -0.1397
 7097TIP3   OH242781   2.310   0.227  13.589  0.1956 -0.3979  0.7011
 7097TIP3    H142782   2.400   0.259  13.591 -0.1520  1.1096 -3.4379
 7097TIP3    H242783   2.260   0.298  13.547 -2.0686 -3.0220 -1.2476
 7098TIP3   OH242784   5.819   0.851   1.501 -0.2726  0.2800  0.5315
 7098TIP3    H142785   5.882   0.828   1.434 -0.7598 -1.9538  0.8079
 7098TIP3    H242786   5.787   0.937   1.475  0.2859 -0.1161 -1.5413
 7099TIP3   OH242787   3.216   2.614   1.100 -0.2626  0.7628  0.1515
 7099TIP3    H142788   3.129   2.587   1.130 -1.0482  1.7826 -1.1600
 7099TIP3    H242789   3.264   2.532   1.089 -0.9046  0.2245  1.3573
 7100TIP3   OH242790   0.855   5.569  11.344 -0.0351 -0.2064 -0.8173
 7100TIP3    H142791   0.864   5.520  11.262  1.5092  0.2915 -0.9532
 7100TIP3    H242792   0.834   5.502  11.409 -0.0818 -0.7686 -1.4004
 7101TIP3   OH242793   4.637   5.692  13.398  0.0104  0.4919  0.4345
 7101TIP3    H142794   4.573   5.730  13.338  0.3277 -3.1888 -2.3208
 7101TIP3    H242795   4.610   5.601  13.409  2.9626 -0.2973  1.7285
 7102TIP3   OH242796   5.722   6.740   1.075  0.1131  0.1792  0.2705
 7102TIP3    H142797   5.664   6.788   1.133  1.2403  1.1885  0.5813
 7102TIP3    H242798   5.693   6.649   1.082 -0.9222  0.5605  1.0039
 7103TIP3   OH242799   6.003   1.269   3.906  0.3037 -0.0968  0.5826
 7103TIP3    H142800   6.037   1.313   3.828 -0.9709  0.4773  0.3431
 7103TIP3    H242801   5.942   1.204   3.872  2.4452 -2.3658  0.9129
 7104TIP3   OH242802   4.594   1.316  12.572  0.2297 -0.0782  0.0538
 7104TIP3    H142803   4.525   1.380  12.555 -0.8380 -0.8216  1.4362
 7104TIP3    H242804   4.551   1.249  12.626  1.3242 -1.9293 -1.3285
 7105TIP3   OH242805   4.290   2.983   0.771 -0.1977 -0.1460 -0.3368
 7105TIP3    H142806   4.235   2.946   0.702  1.4406  1.2930 -2.4701
 7105TIP3    H242807   4.358   2.918   0.785 -0.3211 -0.2784 -0.3502
 7106TIP3   OH242808   5.110   3.506   6.176 -0.1362 -0.1538  1.4619
 7106TIP3    H142809   5.017   3.485   6.182  0.3527 -2.6869  0.9006
 7106TIP3    H242810   5.121   3.542   6.088 -0.3489 -1.3066  0.9494
 7107TIP3   OH242811   4.524   1.146  16.408  0.1423  0.1229  0.3148
 7107TIP3    H142812   4.545   1.092  16.332  1.3694 -0.1502  0.8261
 7107TIP3    H242813   4.430   1.133  16.422  0.5768 -2.6536  0.9775
 7108TIP3   OH242814   2.717   3.027  10.376 -0.0614  0.1389  0.3485
 7108TIP3    H142815   2.794   3.083  10.364 -0.8606  1.3060  0.7008
 7108TIP3    H242816   2.682   3.051  10.462 -2.0281  1.0935 -0.6915
 7109TIP3   OH242817   6.001   2.430  15.500 -0.2884  0.1722  0.0152
 7109TIP3    H142818   6.018   2.468  15.587  0.4703  1.5188 -0.6993
 7109TIP3    H242819   6.036   2.341  15.506 -1.0143 -0.0483  1.3520
 7110TIP3   OH242820   1.258   3.520  15.291 -0.5333  0.9639 -0.6851
 7110TIP3    H142821   1.338   3.541  15.338 -0.0273 -0.1704 -1.0264
 7110TIP3    H242822   1.189   3.530  15.356  0.0111  0.8353 -0.0868
 7111TIP3   OH242823   2.292   0.745  13.550 -0.1308  0.0176  0.0184
 7111TIP3    H142824   2.282   0.790  13.634  2.6069  1.2934 -0.2964
 7111TIP3    H242825   2.292   0.652  13.572 -0.5398  0.3059  1.3042
 7112TIP3   OH242826   6.301   1.014  14.784  0.2885  0.5712  0.3331
 7112TIP3    H142827   6.395   1.011  14.763  0.3359  1.8670  0.3642
 7112TIP3    H242828   6.294   0.975  14.871  0.5238 -1.5797 -0.5746
 7113TIP3   OH242829   6.422   5.238   0.751 -0.0818  0.0114 -0.2624
 7113TIP3    H142830   6.394   5.162   0.701 -0.1867 -0.8554  1.1039
 7113TIP3    H242831   6.499   5.209   0.799  0.2512  0.9514 -0.2176
 7114TIP3   OH242832   5.884   3.592   5.163  0.2205 -0.4392 -0.1610
 7114TIP3    H142833   5.849   3.632   5.083 -2.1468  0.5873  1.3321
 7114TIP3    H242834   5.877   3.661   5.229  0.7753 -1.7395  1.2892
 7115TIP3   OH242835   4.505   0.404   1.933 -0.0173  0.0934  0.1018
 7115TIP3    H142836   4.526   0.433   1.844 -0.2032  1.0520  0.3661
 7115TIP3    H242837   4.538   0.475   1.990 -1.5747  0.3670  0.6783
 7116TIP3   OH242838   1.770   2.059   5.961 -0.1678 -0.1554  0.1384
 7116TIP3    H142839   1.757   2.152   5.942  0.2348 -0.2745 -0.7417
 7116TIP3    H242840   1.858   2.040   5.930  0.7903 -0.2184  2.7608
 7117TIP3   OH242841   3.384   4.962  13.261 -0.6718 -0.0177  0.4982
 7117TIP3    H142842   3.293   4.944  13.281 -0.4326  1.8480  3.7401
 7117TIP3    H242843   3.430   4.880  13.280 -1.4477 -0.4274  0.6161
 7118TIP3   OH242844   5.976   3.963  16.336 -0.1634  0.0505  0.0323
 7118TIP3    H142845   5.966   4.058  16.333  0.5651  0.1510  0.6831
 7118TIP3    H242846   5.888   3.930  16.356 -0.6341  0.5214 -1.2319
 7119TIP3   OH242847   3.775   5.004  14.498 -0.0948 -0.0773 -0.5777
 7119TIP3    H142848   3.861   4.971  14.524  0.6512  1.5434 -0.9289
 7119TIP3    H242849   3.730   4.927  14.462  0.3166 -1.4628  1.7354
 7120TIP3   OH242850   3.966   2.979   1.691 -0.2850  1.3854 -0.6952
 7120TIP3    H142851   3.922   3.054   1.651 -0.2636  1.5309 -0.4437
 7120TIP3    H242852   4.016   3.015   1.763  0.1322  1.1943 -0.8874
 7121TIP3   OH242853   2.342   6.328   2.393  0.3202  0.1065 -0.8218
 7121TIP3    H142854   2.323   6.240   2.427 -0.6328  0.7162  0.2323
 7121TIP3    H242855   2.383   6.312   2.307 -1.7350 -1.3183 -1.5678
 7122TIP3   OH242856   0.543   6.175   3.392  0.0098 -0.0538  0.3235
 7122TIP3    H142857   0.635   6.199   3.393 -0.3986  1.8426 -2.4025
 7122TIP3    H242858   0.496   6.258   3.402 -1.4000 -0.7024 -0.6680
 7123TIP3   OH242859   1.063   6.596  15.088  0.4671 -0.1723  0.0417
 7123TIP3    H142860   0.984   6.613  15.038  0.2465 -2.3159 -0.3504
 7123TIP3    H242861   1.064   6.666  15.154 -0.9335  0.7574 -0.8882
 7124TIP3   OH242862   2.242   0.839  13.056 -0.3955 -0.2391 -0.1937
 7124TIP3    H142863   2.295   0.855  13.134 -0.5889  2.6256 -0.5807
 7124TIP3    H242864   2.283   0.764  13.013  1.1088 -0.3581  1.4181
 7125TIP3   OH242865   3.755   1.334  15.178 -0.2766  0.2035 -0.1216
 7125TIP3    H142866   3.730   1.388  15.102 -1.4318 -1.1620 -0.7322
 7125TIP3    H242867   3.837   1.293  15.152 -0.8224 -0.4970 -0.7691
 7126TIP3   OH242868   3.067   0.009  16.844 -0.0106  0.7047 -0.2232
 7126TIP3    H142869   3.116  -0.042  16.779 -1.3175  1.7101 -2.0627
 7126TIP3    H242870   3.123   0.084  16.863 -0.3967  1.3593 -1.6005
 7127TIP3   OH242871   1.419   6.486   6.417 -0.4050  0.1278  0.0861
 7127TIP3    H142872   1.384   6.544   6.484 -2.0254 -0.4530 -0.2408
 7127TIP3    H242873   1.469   6.420   6.466 -0.8536  0.2063  0.6449
 7128TIP3   OH242874   3.231   4.557   4.418  0.0016  0.2634 -0.0140
 7128TIP3    H142875   3.226   4.462   4.428 -1.0408  0.3008 -0.1814
 7128TIP3    H242876   3.219   4.571   4.324  0.9163  0.5133 -0.0963
 7129TIP3   OH242877   0.767   6.472  11.475  0.6940  0.1764 -0.1749
 7129TIP3    H142878   0.673   6.457  11.467  0.6046  0.6812 -0.1148
 7129TIP3    H242879   0.803   6.442  11.392  0.7700 -2.1618  0.6612
 7130TIP3   OH242880   1.150   4.494   1.597 -0.0865  0.0884  0.4351
 7130TIP3    H142881   1.145   4.481   1.502  1.2424  1.6206  0.1453
 7130TIP3    H242882   1.120   4.583   1.611  0.8918  0.2801  1.3316
 7131TIP3   OH242883   1.254   1.316   5.200  0.4949  0.3196 -0.2760
 7131TIP3    H142884   1.200   1.294   5.276  2.2100 -0.0564  0.8593
 7131TIP3    H242885   1.232   1.249   5.135 -1.2109  0.8262 -0.2498
 7132TIP3   OH242886   6.776   5.465   5.537 -0.7749 -0.0279 -0.2010
 7132TIP3    H142887   6.754   5.498   5.624 -1.6560  1.2730 -0.9120
 7132TIP3    H242888   6.812   5.377   5.554 -2.1557 -0.3203  1.3601
 7133TIP3   OH242889   3.551   6.393   2.983 -0.4167 -0.2267  0.4263
 7133TIP3    H142890   3.458   6.412   2.985 -0.3727  0.1532 -0.5461
 7133TIP3    H242891   3.587   6.441   3.057 -0.6592  1.5880 -0.5971
 7134TIP3   OH242892   5.817   2.301  12.887  0.0972  0.2845 -0.0838
 7134TIP3    H142893   5.842   2.269  12.973  1.7464 -0.5932 -0.8832
 7134TIP3    H242894   5.721   2.308  12.891  0.0064 -1.4545  1.2267
 7135TIP3   OH242895   2.324   5.587   3.134 -0.5275  0.3066 -0.4227
 7135TIP3    H142896   2.297   5.658   3.193 -0.5211 -0.7269  0.8301
 7135TIP3    H242897   2.360   5.520   3.192 -0.4625 -0.6906 -1.6132
 7136TIP3   OH242898   1.767   2.196  10.725 -0.2910 -0.4240  0.2416
 7136TIP3    H142899   1.854   2.156  10.724  0.3354  0.9314 -0.9906
 7136TIP3    H242900   1.708   2.127  10.693  0.7006 -0.5284 -1.4170
 7137TIP3   OH242901   1.339   0.520  17.068 -0.3459  0.7550 -0.1385
 7137TIP3    H142902   1.278   0.568  17.012 -0.4226 -0.3342 -1.0025
 7137TIP3    H242903   1.313   0.428  17.059  0.2596  0.4658  0.9256
 7138TIP3   OH242904   3.418   3.994   6.278  0.7051 -0.1272  0.4792
 7138TIP3    H142905   3.425   4.075   6.329  0.1077 -1.2674  2.4245
 7138TIP3    H242906   3.341   4.006   6.223 -0.0405  0.1898  1.5859
 7139TIP3   OH242907   1.424   0.431  15.710  0.0663 -0.0235 -0.5523
 7139TIP3    H142908   1.479   0.390  15.643  0.8655  0.7306 -0.3703
 7139TIP3    H242909   1.359   0.365  15.731  1.6749 -1.4125  0.1545
 7140TIP3   OH242910   3.328   6.116   0.924 -0.1366 -0.5846  0.2697
 7140TIP3    H142911   3.375   6.043   0.964  1.4363 -0.2691 -0.9597
 7140TIP3    H242912   3.305   6.084   0.837  0.7134  0.4355 -0.3397
 7141TIP3   OH242913   4.002   6.529  10.899 -0.5210 -0.1383 -0.0939
 7141TIP3    H142914   4.003   6.613  10.854 -1.0656  1.0777  2.0962
 7141TIP3    H242915   4.090   6.493  10.885 -0.2221  0.8880 -0.8883
 7142TIP3   OH242916   3.771   4.727   1.902 -0.0425 -0.0385  0.0423
 7142TIP3    H142917   3.681   4.753   1.883 -0.0409 -1.5472 -2.1417
 7142TIP3    H242918   3.764   4.676   1.983 -1.0746  0.3274  0.1946
 7143TIP3   OH242919   1.143   1.694   6.248  0.0686 -0.0529  0.5124
 7143TIP3    H142920   1.230   1.716   6.281  0.3058 -0.3003  0.0612
 7143TIP3    H242921   1.121   1.765   6.188 -0.3121  0.3347  1.0976
 7144TIP3   OH242922   0.074   0.683   1.654 -0.1738  0.0300  0.2151
 7144TIP3    H142923   0.168   0.667   1.655  0.2326  2.2114 -0.3073
 7144TIP3    H242924   0.055   0.711   1.564 -0.9490  1.4827  0.8095
 7145TIP3   OH242925   2.090   3.823  13.103  0.8419  0.2367 -0.1287
 7145TIP3    H142926   2.082   3.916  13.083  2.2196  0.8447  1.9334
 7145TIP3    H242927   2.046   3.779  13.031 -1.1865  2.5281 -0.3662
 7146TIP3   OH242928   0.023   1.841   4.038 -0.1671  0.5702  0.0785
 7146TIP3    H142929   0.076   1.762   4.027  0.0163  0.5790  0.8638
 7146TIP3    H242930  -0.023   1.827   4.121  0.5321  1.6671  0.6607
 7147TIP3   OH242931   2.772   0.696   3.741 -0.0197 -0.0089 -0.0799
 7147TIP3    H142932   2.756   0.687   3.646 -0.4794  1.3385 -0.1364
 7147TIP3    H242933   2.856   0.740   3.747 -0.8576  1.6023  0.1017
 7148TIP3   OH242934   4.334   5.938  16.881  0.5631  0.0102 -0.1859
 7148TIP3    H142935   4.342   5.986  16.963  0.9196 -0.7753  0.2404
 7148TIP3    H242936   4.271   5.989  16.830 -0.9184 -0.3956  1.2139
 7149TIP3   OH242937   0.164   3.485  17.248  0.4389  0.2910 -0.1122
 7149TIP3    H142938   0.077   3.516  17.223 -0.2575 -0.9089  0.7840
 7149TIP3    H242939   0.148   3.403  17.295  1.9304  0.8714  1.4725
 7150TIP3   OH242940   3.069   4.836   5.059  0.3353 -0.0976  0.2106
 7150TIP3    H142941   3.027   4.889   5.126  0.5778  0.6254 -0.1875
 7150TIP3    H242942   2.997   4.801   5.007  0.1478 -0.7056  0.8839
 7151TIP3   OH242943   0.359   6.125  11.480 -0.0668  0.1579  0.1788
 7151TIP3    H142944   0.362   6.123  11.385 -1.7111 -0.7731  0.1413
 7151TIP3    H242945   0.450   6.145  11.506  0.7681 -1.2978 -1.5203
 7152TIP3   OH242946   2.194   1.726  12.226  0.0263 -0.6837  0.3820
 7152TIP3    H142947   2.210   1.750  12.317 -2.6507  0.0164  0.7074
 7152TIP3    H242948   2.256   1.655  12.209  1.0283 -0.3672  2.5313
 7153TIP3   OH242949   4.222   2.318   2.156  0.1306  0.3899  0.0474
 7153TIP3    H142950   4.258   2.337   2.070 -0.7290  1.0705 -0.1710
 7153TIP3    H242951   4.136   2.361   2.156 -0.8098 -1.4388  0.4425
 7154TIP3   OH242952   2.175   5.869  15.639  0.2282  0.1012  0.0775
 7154TIP3    H142953   2.118   5.796  15.663  0.9120  0.1124  1.8138
 7154TIP3    H242954   2.165   5.878  15.544 -1.3492 -0.9860  0.1314
 7155TIP3   OH242955   3.487   5.868  14.048 -0.0409  0.5857 -0.1026
 7155TIP3    H142956   3.459   5.781  14.020  0.3357  0.3711  0.1910
 7155TIP3    H242957   3.414   5.902  14.099 -1.0449  1.2724 -1.9515
 7156TIP3   OH242958   3.160   5.846   3.630  0.0537  0.2759 -0.3844
 7156TIP3    H142959   3.079   5.885   3.599  1.1210  1.1766 -2.1207
 7156TIP3    H242960   3.185   5.783   3.562  0.9800  0.2512 -0.0314
 7157TIP3   OH242961   0.845   0.459   4.424 -0.0929  0.5296  0.1682
 7157TIP3    H142962   0.915   0.460   4.359 -0.0989  0.4590  0.1606
 7157TIP3    H242963   0.886   0.425   4.504  0.4628  2.7375  0.8466
 7158TIP3   OH242964   0.074   3.041  11.555  0.3835 -0.0567 -0.0620
 7158TIP3    H142965   0.118   3.032  11.471  1.1841  0.4042  0.2978
 7158TIP3    H242966   0.060   3.135  11.566  0.9381 -0.0494  0.6416
 7159TIP3   OH242967   2.453   0.291   4.368  0.0140  0.0053 -0.0810
 7159TIP3    H142968   2.537   0.267   4.409 -0.5292 -0.4486  0.7762
 7159TIP3    H242969   2.392   0.223   4.396 -0.7732  0.6313 -0.2621
 7160TIP3   OH242970   0.176   6.123   0.136 -0.0306  0.5912  0.0834
 7160TIP3    H142971   0.148   6.045   0.184 -0.1369  1.1822  0.9897
 7160TIP3    H242972   0.096   6.174   0.122 -0.0453  0.3001 -0.9685
 7161TIP3   OH242973   2.985   2.690   2.983 -0.0587 -0.2992  0.2785
 7161TIP3    H142974   3.050   2.693   3.053 -1.4561 -0.4718  1.6017
 7161TIP3    H242975   2.983   2.779   2.948  0.3429 -0.1090  0.7328
 7162TIP3   OH242976   3.020   3.933   3.200  0.3027 -0.7589  0.0869
 7162TIP3    H142977   2.944   3.876   3.186  0.3317 -0.4016 -1.6360
 7162TIP3    H242978   2.996   3.987   3.275 -1.9306  0.6327 -1.5646
 7163TIP3   OH242979   2.083   3.524  11.718 -0.0179  0.1974 -0.0919
 7163TIP3    H142980   1.993   3.531  11.685 -0.1548 -0.3447  0.1758
 7163TIP3    H242981   2.137   3.517  11.639 -0.3328 -0.9430 -0.2028
 7164TIP3   OH242982   5.799   1.021   4.717  0.2062  0.1633 -0.7683
 7164TIP3    H142983   5.865   1.028   4.648 -0.9396 -1.2953 -2.0433
 7164TIP3    H242984   5.746   0.946   4.691 -0.6089 -0.0261  1.4025
 7165TIP3   OH242985   1.611   1.708  14.339 -0.3494  0.9675  0.5601
 7165TIP3    H142986   1.576   1.776  14.397 -0.3670  0.6091  0.9755
 7165TIP3    H242987   1.703   1.702  14.363 -0.6503 -0.1187  1.4930
 7166TIP3   OH242988   4.324   6.085   1.753 -0.2484 -0.6122  0.1274
 7166TIP3    H142989   4.405   6.104   1.802 -1.6071  0.3402  2.0668
 7166TIP3    H242990   4.288   6.009   1.797 -0.5474 -0.8696 -0.5684
 7167TIP3   OH242991   3.166   1.176  11.723 -0.6522 -0.0406 -0.0974
 7167TIP3    H142992   3.153   1.191  11.816 -2.5976  1.3940 -0.5622
 7167TIP3    H242993   3.189   1.083  11.716 -0.9754 -0.2738  1.7549
 7168TIP3   OH242994   5.564   4.699  15.215 -0.1513  0.2914 -0.7677
 7168TIP3    H142995   5.598   4.756  15.285  0.8786 -1.3598  0.0968
 7168TIP3    H242996   5.549   4.758  15.142  3.7874  1.2449 -0.9221
 7169TIP3   OH242997   0.293   4.426  13.765  0.4070 -0.0966  0.6362
 7169TIP3    H142998   0.313   4.491  13.832  1.7069  0.1444  0.0284
 7169TIP3    H242999   0.378   4.402  13.728 -0.1685 -1.2579  0.0289
 7170TIP3   OH243000   1.333   0.745  13.869  0.5575 -0.5216  0.5584
 7170TIP3    H143001   1.284   0.782  13.942  1.2250 -0.5328  1.0157
 7170TIP3    H243002   1.419   0.724  13.905  0.0153 -3.1083  0.5127
 7171TIP3   OH243003   3.744   5.642  14.893 -0.1216 -0.3960  0.0716
 7171TIP3    H143004   3.742   5.547  14.901 -1.1456 -0.3408  0.6430
 7171TIP3    H243005   3.691   5.661  14.816 -0.5582 -0.2502  0.4061
 7172TIP3   OH243006   4.787   6.076  15.265 -0.3041  0.0332 -0.1174
 7172TIP3    H143007   4.734   6.104  15.190 -1.8154  0.6010  1.1414
 7172TIP3    H243008   4.832   6.155  15.295 -1.0596  0.1731  0.6530
 7173TIP3   OH243009   3.602   0.683   5.099 -0.2096  0.2313 -0.1687
 7173TIP3    H143010   3.690   0.703   5.129 -0.1333 -1.0927  0.5393
 7173TIP3    H243011   3.554   0.658   5.178 -0.5493 -1.3994 -0.8548
 7174TIP3   OH243012   0.796   1.205   1.900 -0.4268 -0.0581 -0.2559
 7174TIP3    H143013   0.802   1.297   1.925 -0.9423  0.8089 -3.1380
 7174TIP3    H243014   0.705   1.181   1.917  0.0046 -0.4359  1.6712
 7175TIP3   OH243015   5.570   0.919   3.449 -0.3867 -0.1633  0.8210
 7175TIP3    H143016   5.509   0.854   3.484  0.3577 -0.3463  1.7711
 7175TIP3    H243017   5.578   0.896   3.356 -0.8456 -0.8526  0.9472
 7176TIP3   OH243018   1.139   2.450  13.839  0.2772 -0.0355  0.1902
 7176TIP3    H143019   1.106   2.531  13.878  0.9011  0.4317 -0.2372
 7176TIP3    H243020   1.191   2.409  13.908  1.5956  0.9194 -0.2199
 7177TIP3   OH243021   3.098   2.670  16.332 -0.1544 -0.3638  0.0229
 7177TIP3    H143022   3.016   2.678  16.381  1.9019  2.0419  3.2697
 7177TIP3    H243023   3.114   2.759  16.299  0.8812 -0.9454 -1.0631
 7178TIP3   OH243024   2.990   5.817   2.415  0.2233 -0.1633 -0.2073
 7178TIP3    H143025   3.017   5.908   2.410  0.7692 -0.2539  0.9540
 7178TIP3    H243026   2.894   5.820   2.414  0.2407  0.3795 -0.5956
 7179TIP3   OH243027   0.373   6.627   2.821 -0.0608 -0.1429  0.1315
 7179TIP3    H143028   0.398   6.536   2.835  1.8972  0.4852  0.8655
 7179TIP3    H243029   0.362   6.634   2.726  0.2617 -1.0258  0.0264
 7180TIP3   OH243030   6.009   6.116   2.253 -0.0929 -0.0395 -0.2279
 7180TIP3    H143031   5.982   6.167   2.177  0.0664 -1.5069 -1.3061
 7180TIP3    H243032   5.926   6.095   2.298 -0.2201  0.5002 -0.2084
 7181TIP3   OH243033   3.536   0.681  15.872  0.2367 -0.3545 -0.1093
 7181TIP3    H143034   3.459   0.701  15.927  1.3548  0.8788  1.0645
 7181TIP3    H243035   3.546   0.586  15.878 -0.3282 -0.3572  0.9384
 7182TIP3   OH243036   4.787   2.391   2.596  0.3298 -0.4071  0.0257
 7182TIP3    H143037   4.811   2.474   2.639 -0.0852  0.1542 -0.8146
 7182TIP3    H243038   4.861   2.333   2.613  0.7855  0.2523  0.3191
 7183TIP3   OH243039   2.419   3.921   2.936  0.1040  0.5816 -0.3065
 7183TIP3    H143040   2.474   3.959   3.005 -2.5624  0.2474  2.1003
 7183TIP3    H243041   2.458   3.836   2.918  0.5694  0.4625  1.1905
 7184TIP3   OH243042   6.446   3.465  16.087  0.0682 -0.0497 -0.5657
 7184TIP3    H143043   6.406   3.514  16.159  1.4617 -0.8439  0.7762
 7184TIP3    H243044   6.490   3.531  16.034 -1.5161  0.6169 -1.0757
 7185TIP3   OH243045   2.995   4.781   0.747 -0.2456  0.2471  0.0019
 7185TIP3    H143046   3.055   4.771   0.821  0.4759  0.8747 -0.5010
 7185TIP3    H243047   3.042   4.836   0.685 -1.5831  1.2740 -0.1224
 7186TIP3   OH243048   3.198   4.139   2.773  0.6792 -0.2329  0.3490
 7186TIP3    H143049   3.154   4.192   2.707  1.8161  0.0110 -0.2161
 7186TIP3    H243050   3.163   4.050   2.761  0.1196  0.0226  0.1108
 7187TIP3   OH243051   1.751   6.082  15.548 -0.0637  0.1445  0.4760
 7187TIP3    H143052   1.722   6.022  15.616  0.9118 -2.3833 -1.2665
 7187TIP3    H243053   1.837   6.113  15.578  0.7999 -1.7096 -0.0247
 7188TIP3   OH243054   5.491   6.653  11.797 -0.5104 -0.3164  0.1787
 7188TIP3    H143055   5.580   6.629  11.821  0.2889  1.7687 -0.5083
 7188TIP3    H243056   5.443   6.655  11.879  0.2808 -0.6546  0.6557
 7189TIP3   OH243057   4.631   2.020   0.226 -0.1378  0.3334  0.3223
 7189TIP3    H143058   4.582   2.080   0.283 -0.5666  0.2842  0.0064
 7189TIP3    H243059   4.610   2.048   0.137  1.6443  1.2936  0.1977
 7190TIP3   OH243060   5.625   2.617  12.903 -0.0632 -0.1166 -0.6598
 7190TIP3    H143061   5.615   2.703  12.862  1.2928 -0.3593 -1.5328
 7190TIP3    H243062   5.541   2.601  12.946  0.0411  2.1447  0.4706
 7191TIP3   OH243063   1.863   6.773  14.674 -0.4378 -0.6691  0.2127
 7191TIP3    H143064   1.819   6.824  14.607  0.3480 -0.5155 -0.1910
 7191TIP3    H243065   1.954   6.803  14.672 -0.3060 -0.9932  1.0214
 7192TIP3   OH243066   5.852   4.489   3.405 -0.0919  0.2284 -0.2332
 7192TIP3    H143067   5.944   4.498   3.377 -0.2334 -0.7506 -1.0224
 7192TIP3    H243068   5.821   4.411   3.360 -0.9898 -0.0843  0.9297
 7193TIP3   OH243069   3.222   1.157   0.036  0.6668  0.5219 -0.1325
 7193TIP3    H143070   3.144   1.117   0.075 -0.0166  0.7110 -1.2850
 7193TIP3    H243071   3.280   1.172   0.110 -0.4872  0.5886  0.7827
 7194TIP3   OH243072   1.564   1.664  12.088  0.0319 -0.2257 -0.4291
 7194TIP3    H143073   1.507   1.669  12.012  0.2920  1.9156 -0.5192
 7194TIP3    H243074   1.653   1.665  12.051  0.1476 -0.0861 -0.1511
 7195TIP3   OH243075   3.135   5.524  11.426 -0.1293 -0.0607 -0.3434
 7195TIP3    H143076   3.139   5.518  11.331  1.4055  0.4172 -0.3195
 7195TIP3    H243077   3.189   5.600  11.448  1.6077 -1.6469  1.0569
 7196TIP3   OH243078   0.778   4.577  12.004  0.6083  0.7464 -0.1270
 7196TIP3    H143079   0.755   4.518  11.932 -2.1117  3.3395 -1.5556
 7196TIP3    H243080   0.693   4.609  12.035  1.9157  2.0962  2.1402
 7197TIP3   OH243081   6.642   5.783   4.811 -0.4451 -0.0432  0.0486
 7197TIP3    H143082   6.609   5.865   4.773  0.0492 -0.5773 -1.5758
 7197TIP3    H243083   6.726   5.808   4.851  0.1848  0.0590 -1.3150
 7198TIP3   OH243084   3.655   0.976   2.093  0.5532 -0.2475  0.1434
 7198TIP3    H143085   3.719   1.025   2.041 -0.0752 -0.0797 -0.4789
 7198TIP3    H243086   3.691   0.888   2.099  1.6030  0.2250  1.1076
 7199TIP3   OH243087   1.608   0.858   1.862  0.2823 -0.4982  0.3264
 7199TIP3    H143088   1.550   0.833   1.790 -1.1750  1.7235  0.6671
 7199TIP3    H243089   1.643   0.775   1.894  0.8338 -1.5594 -2.8021
 7200TIP3   OH243090   4.198   3.207  16.268  0.3808  0.3080  0.0167
 7200TIP3    H143091   4.115   3.163  16.285  0.5992 -0.3710 -0.6811
 7200TIP3    H243092   4.264   3.148  16.304  0.5654  0.8082  0.4958
 7201TIP3   OH243093   5.888   2.774  12.049 -0.2036  0.0080  0.1910
 7201TIP3    H143094   5.840   2.856  12.066  0.3371  0.4435 -0.3740
 7201TIP3    H243095   5.944   2.794  11.975  0.1472 -0.7982  0.2352
 7202TIP3   OH243096   6.496   2.964  13.734  0.7912 -0.1936 -0.2091
 7202TIP3    H143097   6.535   3.011  13.660  0.1263  0.6999 -0.0023
 7202TIP3    H243098   6.559   2.977  13.806  0.8074  0.0334 -0.2635
 7203TIP3   OH243099   5.430   5.466   0.100  0.0573 -0.0346  0.0607
 7203TIP3    H143100   5.380   5.433   0.174  1.3805 -0.0303  0.9889
 7203TIP3    H243101   5.515   5.490   0.138  1.1703 -1.1414 -1.6540
 7204TIP3   OH243102   4.605   6.671  15.261 -0.0058  0.4720  0.4085
 7204TIP3    H143103   4.512   6.694  15.262 -0.3391 -0.8766  2.1232
 7204TIP3    H243104   4.646   6.736  15.319 -0.3330 -0.6727  1.9580
 7205TIP3   OH243105   0.387   0.486   3.928  0.3493  0.3939 -0.0149
 7205TIP3    H143106   0.460   0.512   3.984 -0.5044  1.1468  0.7585
 7205TIP3    H243107   0.385   0.552   3.858  1.1507 -0.3080 -0.7143
 7206TIP3   OH243108   6.670   4.623   5.612  0.5404 -0.5381  0.3667
 7206TIP3    H143109   6.611   4.665   5.549  1.2248 -0.2127 -0.0608
 7206TIP3    H243110   6.758   4.653   5.587  1.0497 -2.3260 -0.0288
 7207TIP3   OH243111   1.922   0.935   2.593  0.3898  0.0528 -0.0207
 7207TIP3    H143112   1.908   0.988   2.672  0.4341  0.4171 -0.2597
 7207TIP3    H243113   2.014   0.910   2.597  0.0315 -1.2071  0.8388
 7208TIP3   OH243114   3.340   3.464   2.215 -1.2125  0.0664 -0.1449
 7208TIP3    H143115   3.312   3.447   2.125  0.7530  0.3831 -0.8426
 7208TIP3    H243116   3.377   3.381   2.245 -0.5802  0.3535 -0.1271
 7209TIP3   OH243117   3.630   5.171  16.918 -0.1140 -0.0607 -0.6489
 7209TIP3    H143118   3.595   5.249  16.961  0.1001 -1.1096  1.4906
 7209TIP3    H243119   3.724   5.187  16.912 -0.1465  0.0900 -0.8008
 7210TIP3   OH243120   1.572   6.660  14.466  0.1192  0.3839 -0.4235
 7210TIP3    H143121   1.583   6.655  14.561  0.9747 -0.3136 -0.5551
 7210TIP3    H243122   1.646   6.711  14.435  0.2808 -0.0696 -0.7985
 7211TIP3   OH243123   0.266   2.763  11.640 -0.3081 -0.0144  0.4124
 7211TIP3    H143124   0.208   2.807  11.703  0.1880 -0.8251  1.4609
 7211TIP3    H243125   0.209   2.701  11.594 -0.7515  0.8396 -0.2002
 7212TIP3   OH243126   5.173   4.905  13.454  0.4285  0.7439 -0.6967
 7212TIP3    H143127   5.212   4.826  13.490 -1.0122 -0.5620 -1.9307
 7212TIP3    H243128   5.133   4.949  13.529  2.7368  1.2244  0.2847
 7213TIP3   OH243129   1.631   5.396  15.463 -1.1178 -0.6915  0.0271
 7213TIP3    H143130   1.579   5.455  15.408  0.4291  0.2797 -0.4389
 7213TIP3    H243131   1.655   5.323  15.406 -0.5295 -0.2829 -0.2534
 7214TIP3   OH243132   2.962   3.539  15.574 -0.5660 -0.6390 -0.2038
 7214TIP3    H143133   2.940   3.503  15.488  1.7679 -2.2595 -0.1611
 7214TIP3    H243134   3.049   3.578  15.562 -0.2021 -0.9263  1.4239
 7215TIP3   OH243135   0.497   6.489   0.306 -0.1577 -0.1937  0.2321
 7215TIP3    H143136   0.496   6.394   0.302  2.5619 -0.2261 -0.5973
 7215TIP3    H243137   0.497   6.517   0.214  1.2888  0.5281  0.4387
 7216TIP3   OH243138   5.987   1.054   4.533 -0.4795  0.2088  0.1733
 7216TIP3    H143139   6.060   0.993   4.519  0.0531  0.5091  1.5430
 7216TIP3    H243140   6.021   1.139   4.505 -0.5325  0.2275  0.1667
 7217TIP3   OH243141   3.448   3.430  11.255  0.0746 -0.0164 -0.1308
 7217TIP3    H143142   3.370   3.454  11.205  0.3837  0.1656 -0.5280
 7217TIP3    H243143   3.454   3.496  11.324 -0.4360 -0.3537  0.2364
 7218TIP3   OH243144   5.892   3.107   1.222 -0.0075 -0.4189  0.7371
 7218TIP3    H143145   5.878   3.121   1.316 -0.4099 -0.4837  0.6869
 7218TIP3    H243146   5.808   3.127   1.182  0.1761 -0.3538  0.3841
 7219TIP3   OH243147   1.865   5.840  12.608  0.0022  0.2234  0.0549
 7219TIP3    H143148   1.941   5.885  12.643  1.3261 -1.6914 -0.2804
 7219TIP3    H243149   1.895   5.800  12.527 -1.2394 -0.8953  0.1217
 7220TIP3   OH243150   0.264   0.963  15.184 -0.4912  0.1960 -1.0423
 7220TIP3    H143151   0.250   0.892  15.247 -0.7621  2.0799  1.0967
 7220TIP3    H243152   0.266   1.042  15.237 -1.4501  1.9431 -3.5023
 7221TIP3   OH243153   6.354   1.526  11.629  0.1354  0.2507  1.1181
 7221TIP3    H143154   6.389   1.534  11.541 -1.8056 -1.3023  0.1780
 7221TIP3    H243155   6.410   1.460  11.671 -0.7489 -1.1538  0.0989
 7222TIP3   OH243156   5.951   0.218  15.051 -0.1413  0.0131  0.0829
 7222TIP3    H143157   6.035   0.204  15.009 -1.0518  0.2080 -1.8656
 7222TIP3    H243158   5.968   0.281  15.121  1.2727  0.2639 -0.4840
 7223TIP3   OH243159   2.200   6.513   0.647 -0.4186  0.5294 -0.4729
 7223TIP3    H143160   2.154   6.590   0.681 -0.3212 -0.7756  2.7473
 7223TIP3    H243161   2.130   6.452   0.623 -0.4293  0.5446 -0.4816
 7224TIP3   OH243162   3.508   3.399  12.448 -0.1195  0.0315 -0.2466
 7224TIP3    H143163   3.582   3.422  12.504 -0.0647  2.6078 -1.2852
 7224TIP3    H243164   3.535   3.319  12.403  1.5267  0.2588  0.3158
 7225TIP3   OH243165   6.244   3.629   3.598  0.0389 -0.5522  0.1205
 7225TIP3    H143166   6.223   3.555   3.541  0.8246  0.5880 -1.6967
 7225TIP3    H243167   6.339   3.625   3.610  0.5469  1.9369 -2.5927
 7226TIP3   OH243168   4.278   6.639  14.286 -0.0148 -0.1724 -0.0154
 7226TIP3    H143169   4.263   6.589  14.366  0.7191 -1.9227 -0.9530
 7226TIP3    H243170   4.259   6.730  14.311 -1.4636 -0.9109  1.6763
 7227TIP3   OH243171   4.006   3.064   4.606  0.8976 -0.5377 -0.0398
 7227TIP3    H143172   4.054   3.038   4.528 -0.8583 -0.7131 -1.0877
 7227TIP3    H243173   4.020   2.993   4.668  2.7563 -0.1405  0.0235
 7228TIP3   OH243174   0.425   2.724  16.620  1.0310  0.1031  0.3658
 7228TIP3    H143175   0.478   2.800  16.643  0.5744  0.7093 -0.5452
 7228TIP3    H243176   0.397   2.688  16.704  0.9471  1.1588  0.7979
 7229TIP3   OH243177   1.137   0.442   0.898  0.0756 -0.1118  0.3672
 7229TIP3    H143178   1.063   0.483   0.853  0.2087 -0.1979  0.0672
 7229TIP3    H243179   1.164   0.507   0.963 -0.4257 -0.1882  0.6525
 7230TIP3   OH243180   6.353   4.516   5.502  0.1029  0.2690  0.5090
 7230TIP3    H143181   6.433   4.479   5.463 -0.3247  0.4234 -0.5290
 7230TIP3    H243182   6.328   4.587   5.443 -1.6600 -0.7589 -0.0247
 7231TIP3   OH243183   2.614   3.694   0.442  0.5793  0.4552 -0.2544
 7231TIP3    H143184   2.596   3.688   0.348  1.0616  2.7591 -0.5307
 7231TIP3    H243185   2.694   3.643   0.454  0.8760  0.6781 -1.2012
 7232TIP3   OH243186   4.686   0.008   5.632  0.2502  0.1769 -0.2206
 7232TIP3    H143187   4.761   0.063   5.608 -0.3491  0.2134 -2.0745
 7232TIP3    H243188   4.625   0.018   5.559 -1.5091  0.0279  1.1896
 7233TIP3   OH243189   3.738   3.917  13.908 -0.1512 -0.5266  0.5922
 7233TIP3    H143190   3.793   3.890  13.981  0.9444  2.2338  0.8493
 7233TIP3    H243191   3.673   3.975  13.946  1.1616  1.9064 -0.7083
 7234TIP3   OH243192   2.925   0.134   4.021 -0.2765 -0.2763 -0.2074
 7234TIP3    H143193   2.894   0.158   3.933 -0.6449  0.0609  0.0136
 7234TIP3    H243194   2.845   0.107   4.067 -0.0719 -0.5263 -0.0007
 7235TIP3   OH243195   3.513   3.449   6.451  0.1597 -0.3385  0.4729
 7235TIP3    H143196   3.486   3.541   6.455 -0.1222 -0.3769 -0.5621
 7235TIP3    H243197   3.594   3.446   6.501 -0.6436  0.1736  1.8244
 7236TIP3   OH243198   0.991   2.957   4.478 -0.0406  0.6285 -0.3138
 7236TIP3    H143199   0.991   2.867   4.447  2.9662  0.3315  0.3912
 7236TIP3    H243200   0.995   3.010   4.399  0.1745  0.0741 -0.6773
 7237TIP3   OH243201   1.636   5.531  15.727 -0.0586 -0.5439  0.0819
 7237TIP3    H143202   1.657   5.517  15.635 -1.5340 -1.4359 -0.1219
 7237TIP3    H243203   1.553   5.485  15.741 -0.4961  0.6320  1.5407
 7238TIP3   OH243204   2.237   3.316   0.872  0.3358 -0.2451  0.6558
 7238TIP3    H143205   2.274   3.389   0.922  1.8956  0.2470 -1.1358
 7238TIP3    H243206   2.160   3.289   0.922  0.1806  2.1065  1.7698
 7239TIP3   OH243207   2.945   5.066   2.699  1.1828 -0.2550  0.0226
 7239TIP3    H143208   2.887   5.089   2.771  0.3183  2.2083 -1.3720
 7239TIP3    H243209   2.989   4.986   2.727 -3.1939 -2.5002  0.9464
 7240TIP3   OH243210   1.272   6.670  13.618  0.8185 -0.5020 -0.0124
 7240TIP3    H143211   1.182   6.683  13.648 -0.0848 -0.2539 -2.7490
 7240TIP3    H243212   1.266   6.607  13.547  2.8390 -0.6396 -0.1116
 7241TIP3   OH243213   6.446   6.546   2.918  0.2139 -0.0201  0.3763
 7241TIP3    H143214   6.534   6.523   2.891  0.4634 -0.0927  1.2372
 7241TIP3    H243215   6.389   6.497   2.859  0.7487  0.3356 -0.4369
 7242TIP3   OH243216   3.347   0.414  15.301 -0.0313  0.6122 -0.4523
 7242TIP3    H143217   3.377   0.404  15.211  1.5984 -1.5115  0.2770
 7242TIP3    H243218   3.290   0.491  15.299 -0.8536  0.0156 -3.4852
 7243TIP3   OH243219   5.564   3.502  17.245  0.1603  0.2144 -0.3027
 7243TIP3    H143220   5.570   3.513  17.340 -1.7153  0.3468 -0.1798
 7243TIP3    H243221   5.556   3.408  17.231  0.0325  0.2243 -0.2998
 7244TIP3   OH243222   3.738   6.501  16.261  0.3353 -0.3810  0.2564
 7244TIP3    H143223   3.797   6.571  16.232  1.1187 -0.7846  0.8850
 7244TIP3    H243224   3.777   6.421  16.228  1.1535 -0.8374  2.2874
 7245TIP3   OH243225   3.143   3.555   1.385  0.2637  0.2117  0.3717
 7245TIP3    H143226   3.078   3.590   1.446  1.0382 -0.5240  1.6608
 7245TIP3    H243227   3.223   3.548   1.438  1.5632  1.7075 -1.3577
 7246TIP3   OH243228   1.479   4.563  14.168  0.6057 -0.2062 -0.2176
 7246TIP3    H143229   1.470   4.556  14.073  1.6718 -2.5654 -0.1988
 7246TIP3    H243230   1.462   4.474  14.200  0.1687  0.5664  1.8201
 7247TIP3   OH243231   2.584   6.713   1.076  0.0225 -0.0547 -0.2769
 7247TIP3    H143232   2.606   6.728   1.168 -1.6552 -1.8955  0.4488
 7247TIP3    H243233   2.661   6.667   1.041 -0.1229 -1.0611  0.6992
 7248TIP3   OH243234   1.324   5.162  13.009  0.3522  0.4593  0.2326
 7248TIP3    H143235   1.390   5.103  13.047 -1.3870 -1.9507 -0.4162
 7248TIP3    H243236   1.257   5.169  13.077 -0.7348 -0.4657 -0.7388
 7249TIP3   OH243237   2.656   0.710   2.362  0.0947  0.1278  0.1561
 7249TIP3    H143238   2.739   0.743   2.398 -0.3657  0.3804  1.0154
 7249TIP3    H243239   2.626   0.781   2.305 -0.0607  0.5015  0.6925
 7250TIP3   OH243240   0.742   0.482   3.108 -0.1894 -0.1551  0.2901
 7250TIP3    H143241   0.830   0.465   3.075 -0.5133  0.0845 -0.7039
 7250TIP3    H243242   0.687   0.416   3.067 -0.6068  0.1910  0.2829
 7251TIP3   OH243243   6.124   1.451   0.368 -0.2999 -0.8769  0.4837
 7251TIP3    H143244   6.164   1.535   0.390 -0.3579 -0.6736 -0.2010
 7251TIP3    H243245   6.090   1.462   0.280 -3.4516 -0.4749  1.6855
 7252TIP3   OH243246   1.571   0.735  14.005 -0.6487 -0.3309 -0.0536
 7252TIP3    H143247   1.649   0.702  14.049 -1.3721 -1.6123  0.2908
 7252TIP3    H243248   1.535   0.799  14.066  0.1782  0.3388 -0.2570
 7253TIP3   OH243249   1.754   3.474  16.790  0.1337 -0.3689  0.1351
 7253TIP3    H143250   1.809   3.437  16.860 -0.0288  0.1028  0.5147
 7253TIP3    H243251   1.816   3.495  16.720  0.4419  0.1686  0.5638
 7254TIP3   OH243252   2.745   2.519  13.770  0.3255  0.1069  0.5677
 7254TIP3    H143253   2.738   2.609  13.802 -0.7527 -0.8846  3.3187
 7254TIP3    H243254   2.768   2.528  13.678 -0.3166  3.2071  0.6429
 7255TIP3   OH243255   3.595   1.855  11.687  0.3413  0.4787  0.1071
 7255TIP3    H143256   3.516   1.803  11.705  0.0025  0.7843 -0.4859
 7255TIP3    H243257   3.562   1.936  11.648  0.9896  0.3328 -0.7583
 7256TIP3   OH243258   6.585   0.162  14.809 -0.0986  0.3969  0.1534
 7256TIP3    H143259   6.523   0.126  14.873 -0.5616  0.2828 -0.3631
 7256TIP3    H243260   6.564   0.117  14.727  0.5523  0.4861 -0.0587
 7257TIP3   OH243261   5.181   3.010   1.304 -0.3371  0.1721 -0.5372
 7257TIP3    H143262   5.104   2.997   1.359 -0.1547 -1.4899 -0.6251
 7257TIP3    H243263   5.194   3.105   1.302 -1.4041  0.3676  0.8080
 7258TIP3   OH243264   3.204   1.110   0.471 -0.1579  0.0959  0.5201
 7258TIP3    H143265   3.291   1.122   0.510  1.0393 -1.0226 -1.7121
 7258TIP3    H243266   3.199   1.016   0.453 -0.9721  0.4818 -1.3168
 7259TIP3   OH243267   4.819   4.220  14.937 -0.4244  0.4584  0.4258
 7259TIP3    H143268   4.739   4.272  14.943 -0.3855  0.5460  0.2223
 7259TIP3    H243269   4.881   4.263  14.996 -0.2015  1.0008 -0.1942
 7260TIP3   OH243270   1.836   1.339  16.903  0.3364 -0.0156  0.3991
 7260TIP3    H143271   1.768   1.391  16.859  2.0097 -0.4858 -2.8915
 7260TIP3    H243272   1.802   1.250  16.904  0.0051  0.1098  0.7387
 7261TIP3   OH243273   4.328   2.477   1.560 -0.4918  0.2915 -0.3750
 7261TIP3    H143274   4.260   2.422   1.598  0.4095  0.6381  1.7759
 7261TIP3    H243275   4.396   2.416   1.532 -1.2982  0.0122 -1.7487
 7262TIP3   OH243276   0.999   5.032   3.252  0.2626  0.3559  0.2795
 7262TIP3    H143277   1.029   4.943   3.267  0.6568  0.2848 -0.8796
 7262TIP3    H243278   1.027   5.052   3.162 -0.5568  1.3392  0.2329
 7263TIP3   OH243279   0.191   4.659   3.026  0.1550  0.4704 -0.3893
 7263TIP3    H143280   0.274   4.612   3.028 -0.1935 -0.1273  0.4327
 7263TIP3    H243281   0.166   4.667   3.118 -1.3020 -0.4509 -0.6793
 7264TIP3   OH243282   4.122   0.071  14.009  0.0634  0.7333 -0.1082
 7264TIP3    H143283   4.089  -0.001  13.955  0.6320 -1.7665  2.7671
 7264TIP3    H243284   4.048   0.095  14.065  0.5477  0.8689  0.4812
 7265TIP3   OH243285   6.217   5.506   4.620  0.7956  0.0900 -0.0972
 7265TIP3    H143286   6.238   5.583   4.673  1.3630  0.9083 -1.4985
 7265TIP3    H243287   6.229   5.433   4.680 -0.1333  1.1012  1.3714
 7266TIP3   OH243288   3.821   6.655  11.629 -0.4148  0.3578 -0.2877
 7266TIP3    H143289   3.860   6.725  11.578 -1.7904  1.0555 -0.4067
 7266TIP3    H243290   3.829   6.684  11.720  2.1706 -0.9538 -0.0498
 7267TIP3   OH243291   1.681   3.636   2.396  0.0332  0.0749 -0.4948
 7267TIP3    H143292   1.681   3.667   2.486  1.2035 -1.2823 -0.0015
 7267TIP3    H243293   1.595   3.595   2.384 -0.5693  1.3025 -0.3741
 7268TIP3   OH243294   1.044   3.286  10.926 -0.6706  0.3621 -0.1604
 7268TIP3    H143295   1.126   3.333  10.912 -1.0005  1.1076  0.3911
 7268TIP3    H243296   0.995   3.298  10.845 -0.0279 -0.5253 -0.6930
 7269TIP3   OH243297   2.170   2.521   2.894  0.2406  0.2759  0.3357
 7269TIP3    H143298   2.105   2.566   2.840  0.0563 -0.3091  0.0684
 7269TIP3    H243299   2.118   2.472   2.958  0.3655 -1.1217 -0.6030
 7270TIP3   OH243300   4.752   0.284  16.748  0.5097 -0.1877 -0.0810
 7270TIP3    H143301   4.774   0.371  16.782  1.3964  0.0105 -1.1399
 7270TIP3    H243302   4.773   0.288  16.655  0.2569 -1.4379 -0.2081
 7271TIP3   OH243303   2.532   0.762  16.386  0.3194  0.4667  0.4167
 7271TIP3    H143304   2.449   0.801  16.357  0.0532  1.2716  2.1650
 7271TIP3    H243305   2.600   0.811  16.340 -0.1498 -0.0305 -0.8345
 7272TIP3   OH243306   2.238   0.011  14.126 -0.4175 -0.1314 -0.3528
 7272TIP3    H143307   2.237  -0.084  14.134  2.2359  0.0531  3.2241
 7272TIP3    H243308   2.256   0.027  14.033 -0.7049 -3.0934 -0.9608
 7273TIP3   OH243309   1.029   0.075  17.043  0.0640  0.2950 -0.1394
 7273TIP3    H143310   1.052   0.077  16.950 -0.8768  1.3617 -0.3611
 7273TIP3    H243311   1.090   0.012  17.082 -0.3075 -1.0686 -1.6910
 7274TIP3   OH243312   2.388   2.625  12.922 -0.2391 -0.2339  0.2025
 7274TIP3    H143313   2.298   2.627  12.954 -0.4616  1.4177 -0.4845
 7274TIP3    H243314   2.436   2.680  12.984  0.3894 -1.3894  0.7716
 7275TIP3   OH243315   5.476   1.896   5.214  0.0203  0.2512  0.1054
 7275TIP3    H143316   5.531   1.941   5.278 -0.1127  0.6291 -0.0422
 7275TIP3    H243317   5.437   1.967   5.162 -0.5650 -0.0112  0.1760
 7276TIP3   OH243318   0.426   1.970   3.103 -0.6268  0.3213  0.6894
 7276TIP3    H143319   0.362   1.899   3.101  0.8477 -1.0186  0.6355
 7276TIP3    H243320   0.430   2.002   3.013 -2.1720  1.2912  0.9451
 7277TIP3   OH243321   0.129   4.793  15.464 -0.2791  0.2704  0.5700
 7277TIP3    H143322   0.224   4.797  15.477 -0.2255 -0.1176  0.3107
 7277TIP3    H243323   0.093   4.835  15.541  0.1186  0.9020  0.4146
 7278TIP3   OH243324   5.544   3.451  13.256 -0.0220  0.2940  0.5436
 7278TIP3    H143325   5.482   3.440  13.184 -0.1519 -1.8665  0.9372
 7278TIP3    H243326   5.608   3.514  13.223 -1.1615  0.8189 -0.7143
 7279TIP3   OH243327   6.036   5.212  14.797 -0.1036  0.4620  0.0456
 7279TIP3    H143328   5.941   5.200  14.788 -0.2071  1.1296  0.1620
 7279TIP3    H243329   6.066   5.134  14.844 -0.0837 -1.3382 -2.8650
 7280TIP3   OH243330   3.670   1.938  12.509  0.0584  0.5023  0.2444
 7280TIP3    H143331   3.735   1.963  12.576 -0.6092 -0.1436  1.1435
 7280TIP3    H243332   3.586   1.957  12.550 -0.3319  2.1627 -1.2528
 7281TIP3   OH243333   0.593   4.638  11.558 -0.1573  0.4364  0.5571
 7281TIP3    H143334   0.562   4.692  11.631 -1.4646  0.0484  0.3040
 7281TIP3    H243335   0.516   4.626  11.503  0.0732 -1.8186  0.6879
 7282TIP3   OH243336   6.349   2.682  15.401  0.9474 -0.4029  0.2153
 7282TIP3    H143337   6.367   2.748  15.334  2.4764 -0.9538  0.0460
 7282TIP3    H243338   6.268   2.640  15.372  1.7434 -0.8263 -1.4691
 7283TIP3   OH243339   0.425   3.598  15.980  0.2908  0.5608  0.4992
 7283TIP3    H143340   0.349   3.540  15.990  1.2377 -0.7592  0.2116
 7283TIP3    H243341   0.451   3.619  16.070 -1.9735  3.1387  0.6008
 7284TIP3   OH243342   6.374   4.887   1.788 -0.1231 -0.0969  0.0535
 7284TIP3    H143343   6.413   4.856   1.870  2.0845 -0.9295 -1.2633
 7284TIP3    H243344   6.280   4.887   1.805  0.2590 -0.8298  2.3909
 7285TIP3   OH243345   5.665   1.726   2.528  0.1678 -0.3587  0.0702
 7285TIP3    H143346   5.624   1.640   2.515 -0.9795  0.2330 -0.3193
 7285TIP3    H243347   5.668   1.737   2.623 -1.0731 -0.1983  0.1061
 7286TIP3   OH243348   2.082   6.352   0.318 -0.4606 -0.1648 -0.1229
 7286TIP3    H143349   2.057   6.324   0.230  0.1494 -0.3593 -0.2415
 7286TIP3    H243350   2.165   6.308   0.334  1.0068  2.2810 -0.6704
 7287TIP3   OH243351   1.706   1.573   5.120 -0.2524 -0.6075 -0.1481
 7287TIP3    H143352   1.753   1.628   5.182 -2.1366 -0.7490  1.4683
 7287TIP3    H243353   1.772   1.545   5.057  1.6311 -0.0918  1.5503
 7288TIP3   OH243354   0.913   5.772   6.451  0.0758  0.2009 -0.4634
 7288TIP3    H143355   0.872   5.846   6.495 -0.4185 -0.1047 -0.3968
 7288TIP3    H243356   0.984   5.745   6.510  0.0337  0.4043 -0.3210
 7289TIP3   OH243357   0.127   6.223  15.763 -0.3463 -0.0258 -0.0947
 7289TIP3    H143358   0.202   6.168  15.738 -0.6531 -0.6987  0.4415
 7289TIP3    H243359   0.092   6.180  15.841 -1.8904 -0.2823 -0.9218
 7290TIP3   OH243360   1.592   0.616   2.910  0.1968  0.2114 -0.1223
 7290TIP3    H143361   1.626   0.532   2.941 -0.7471  0.1261  0.7084
 7290TIP3    H243362   1.598   0.674   2.985  0.7934  0.8820 -0.6782
 7291TIP3   OH243363   5.892   0.543   4.265 -0.6122 -0.5383 -0.5499
 7291TIP3    H143364   5.857   0.469   4.314  1.1978 -0.3365  1.1254
 7291TIP3    H243365   5.890   0.616   4.327  2.0801 -0.3581 -0.5840
 7292TIP3   OH243366   5.063   5.733   1.133 -0.1592  0.7239  0.1531
 7292TIP3    H143367   5.141   5.776   1.097  0.3479  0.0026  0.3700
 7292TIP3    H243368   5.085   5.718   1.226  0.1064 -0.9503 -0.1564
 7293TIP3   OH243369   6.657   0.528   0.992 -0.3497  0.3406  0.0813
 7293TIP3    H143370   6.570   0.544   1.028 -0.6755  0.5129 -0.7824
 7293TIP3    H243371   6.652   0.557   0.901  0.7706  0.8810  0.1762
 7294TIP3   OH243372   0.625   6.012  13.584  0.0771 -0.2811  0.3452
 7294TIP3    H143373   0.578   6.046  13.661  0.0848  1.6399 -0.4846
 7294TIP3    H243374   0.703   5.970  13.621  1.7664  3.4441  1.2217
 7295TIP3   OH243375   3.718   0.323  16.481 -0.1935  0.1315  0.2387
 7295TIP3    H143376   3.686   0.367  16.402  2.1375 -0.9267 -1.3325
 7295TIP3    H243377   3.639   0.306  16.532 -1.8865 -0.1853 -2.3749
 7296TIP3   OH243378   1.940   3.027  17.282 -0.7547 -0.0396  0.2460
 7296TIP3    H143379   1.894   3.102  17.320 -2.0178 -0.9435  0.5220
 7296TIP3    H243380   2.024   3.025  17.329  0.2862  2.5615 -1.3602
 7297TIP3   OH243381   1.225   5.579   4.874 -0.1059  0.2478  0.4123
 7297TIP3    H143382   1.272   5.532   4.943 -0.6733 -0.8624  0.0579
 7297TIP3    H243383   1.148   5.615   4.918  0.5355  1.1890  0.7709
 7298TIP3   OH243384   3.901   3.346   3.472  0.2347 -0.2346 -0.1402
 7298TIP3    H143385   3.895   3.373   3.564 -0.4922  0.4456 -0.3750
 7298TIP3    H243386   3.995   3.337   3.456  0.3923  0.1519  0.5289
 7299TIP3   OH243387   3.275   2.300  14.861  0.3809  0.2794  0.8349
 7299TIP3    H143388   3.283   2.331  14.951 -0.1244 -0.1291  1.0202
 7299TIP3    H243389   3.363   2.268  14.839  1.0859  2.4694  0.4048
 7300TIP3   OH243390   0.408   1.896  14.664  0.2626 -0.3149  0.3177
 7300TIP3    H143391   0.436   1.981  14.631 -0.9096  0.2283  0.7165
 7300TIP3    H243392   0.406   1.907  14.760  1.1603 -1.1194  0.4395
 7301TIP3   OH243393   5.828   1.720  16.984  0.9329 -0.0054 -0.0311
 7301TIP3    H143394   5.770   1.757  17.050 -0.8084 -0.3202 -1.3272
 7301TIP3    H243395   5.886   1.791  16.959 -0.1547  0.8733 -0.0769
 7302TIP3   OH243396   0.760   5.278  12.931  0.3026 -0.0051  0.2640
 7302TIP3    H143397   0.701   5.352  12.948 -0.7442 -0.7017 -0.2406
 7302TIP3    H243398   0.768   5.275  12.835 -0.5089 -1.1695  0.2172
 7303TIP3   OH243399   4.171   1.742  14.691  0.9984  0.2224 -0.1996
 7303TIP3    H143400   4.243   1.682  14.710  1.0644  0.1691 -0.5986
 7303TIP3    H243401   4.093   1.698  14.721  1.3682  1.2955  2.4841
 7304TIP3   OH243402   3.964   0.827  16.063  0.2745 -0.0983 -0.3095
 7304TIP3    H143403   4.040   0.849  16.010  1.4624  1.5903  2.0063
 7304TIP3    H243404   3.899   0.893  16.040  0.9605  0.9299  0.6609
 7305TIP3   OH243405   0.135   5.482  15.532  0.2394 -0.3866 -1.2924
 7305TIP3    H143406   0.218   5.511  15.495 -0.1651 -0.1791 -2.0355
 7305TIP3    H243407   0.068   5.534  15.487 -0.3131 -0.7292 -0.8794
 7306TIP3   OH243408   4.260   3.922   0.372 -0.6228  0.0448  0.5212
 7306TIP3    H143409   4.328   3.866   0.408 -0.1811 -0.5944 -1.2791
 7306TIP3    H243410   4.304   3.970   0.301 -1.1632  2.1571  1.5820
 7307TIP3   OH243411   1.002   3.017   2.142 -0.0101 -0.1331 -0.1722
 7307TIP3    H143412   1.035   2.937   2.181 -0.0402 -0.2103 -0.3061
 7307TIP3    H243413   0.951   3.058   2.211  0.2987 -0.0523  0.0106
 7308TIP3   OH243414   3.162   3.496  11.199  0.1544  0.2496  0.1122
 7308TIP3    H143415   3.092   3.464  11.142  0.7423 -0.1774 -0.3711
 7308TIP3    H243416   3.164   3.434  11.272  0.2940  0.0335 -0.0741
 7309TIP3   OH243417   2.118   2.675  12.964  0.0052  0.4892  0.3397
 7309TIP3    H143418   2.029   2.665  12.932 -0.3607  2.4229  0.6683
 7309TIP3    H243419   2.109   2.719  13.049  1.2764  1.1522  0.1579
 7310TIP3   OH243420   6.628   4.556  11.834 -0.1619 -0.1814 -0.6674
 7310TIP3    H143421   6.560   4.524  11.776  0.5687 -0.9139 -1.1317
 7310TIP3    H243422   6.710   4.530  11.792  0.4584  1.8503 -0.8092
 7311TIP3   OH243423   0.132   4.471   5.976  0.3860 -0.6408 -0.4996
 7311TIP3    H143424   0.184   4.511   5.906  1.7550  0.3283  1.0255
 7311TIP3    H243425   0.197   4.434   6.036 -0.4436  3.1116  2.9455
 7312TIP3   OH243426   2.985   2.158  13.830  0.0578  1.0352  0.6415
 7312TIP3    H143427   2.993   2.064  13.813 -2.0674  1.1163 -0.9981
 7312TIP3    H243428   2.999   2.199  13.745 -0.4057  2.1161  1.0827
 7313TIP3   OH243429   4.606   6.402  16.167 -0.8861  0.1760  0.5150
 7313TIP3    H143430   4.659   6.374  16.241 -1.1048 -1.4369  0.0747
 7313TIP3    H243431   4.528   6.346  16.170 -0.5827 -0.3917 -1.3275
 7314TIP3   OH243432   2.761   1.822  12.979 -0.1341 -0.0190  0.1549
 7314TIP3    H143433   2.680   1.825  12.928 -0.1627 -0.4642  0.1748
 7314TIP3    H243434   2.829   1.847  12.916 -0.6137  3.1406  0.8433
 7315TIP3   OH243435   6.380   3.968   5.339 -0.1876  0.3288  0.5689
 7315TIP3    H143436   6.342   4.052   5.316 -0.2419  0.5356  1.4166
 7315TIP3    H243437   6.379   3.918   5.257  0.8270  1.5147 -0.1835
 7316TIP3   OH243438   1.755   4.804  16.742  0.2749  0.2357  0.0669
 7316TIP3    H143439   1.748   4.732  16.678  0.9826  1.7526 -1.7826
 7316TIP3    H243440   1.723   4.767  16.824  0.5335 -2.1643 -0.8776
 7317TIP3   OH243441   5.205   3.161  12.598  0.4903  0.0339  0.0001
 7317TIP3    H143442   5.120   3.128  12.566  1.4279 -2.1944 -0.2850
 7317TIP3    H243443   5.247   3.197  12.520  0.9465 -1.4077 -0.4394
 7318TIP3   OH243444   4.002   1.774   4.125  0.2239 -0.2145  0.2823
 7318TIP3    H143445   4.007   1.733   4.212  0.9692 -0.6678  0.0307
 7318TIP3    H243446   4.084   1.823   4.117  0.7659 -1.2337 -0.6782
 7319TIP3   OH243447   5.675   2.325  10.769 -0.1045 -0.0662  0.0908
 7319TIP3    H143448   5.668   2.419  10.751  1.4495  0.0508 -0.0123
 7319TIP3    H243449   5.702   2.321  10.861  1.4514 -0.3486 -0.3662
 7320TIP3   OH243450   0.710   5.115  12.334  0.5028  0.2335 -0.7975
 7320TIP3    H143451   0.741   5.138  12.246  0.9706  0.2666 -0.6230
 7320TIP3    H243452   0.654   5.189  12.359 -1.0120 -0.5515 -1.7495
 7321TIP3   OH243453   0.050   1.606  11.522  0.0549 -0.3145 -0.3282
 7321TIP3    H143454   0.033   1.536  11.585  0.1335 -1.2579 -1.3389
 7321TIP3    H243455  -0.022   1.668  11.534 -0.7859 -1.2764 -0.4306
 7322TIP3   OH243456   6.525   0.159  10.629  0.4008  0.0105  0.5814
 7322TIP3    H143457   6.580   0.195  10.560 -1.0129  3.0934  0.9909
 7322TIP3    H243458   6.461   0.104  10.583  2.0710 -1.3766 -0.1279
 7323TIP3   OH243459   4.718   2.269   0.529 -0.8219  0.3699  0.1456
 7323TIP3    H143460   4.768   2.228   0.459 -3.1523 -1.2003 -0.6768
 7323TIP3    H243461   4.646   2.313   0.485 -2.6432 -1.1035  1.5647
 7324TIP3   OH243462   5.785   0.706  11.794  0.2723  0.1454  0.0795
 7324TIP3    H143463   5.858   0.645  11.796 -0.0513 -0.2765 -0.8923
 7324TIP3    H243464   5.826   0.792  11.799  0.6941 -0.1577  2.0631
 7325TIP3   OH243465   5.711   1.562   6.412 -0.1886  0.5877 -0.3525
 7325TIP3    H143466   5.616   1.561   6.423  0.0228 -1.2588  1.6933
 7325TIP3    H243467   5.731   1.479   6.369  0.5922  0.3833  0.3782
 7326TIP3   OH243468   4.411   3.566  12.246 -0.0322  0.4442 -0.0876
 7326TIP3    H143469   4.429   3.592  12.155  2.0080 -4.7044 -1.3152
 7326TIP3    H243470   4.324   3.526  12.242 -0.0410  0.4326  0.2708
 7327TIP3   OH243471   3.082   5.666  13.212 -0.2783 -0.6262 -0.2069
 7327TIP3    H143472   3.127   5.727  13.270  1.7316 -0.8164 -1.4914
 7327TIP3    H243473   3.006   5.636  13.262  0.7247  0.1396  1.8257
 7328TIP3   OH243474   1.821   1.522   1.813 -0.1323 -0.2071 -0.3433
 7328TIP3    H143475   1.790   1.563   1.732  1.5520  1.2221 -0.2961
 7328TIP3    H243476   1.851   1.596   1.867  0.5977 -1.3048  0.7728
 7329TIP3   OH243477   1.408   0.638   5.651 -0.6654  0.4589  0.0410
 7329TIP3    H143478   1.325   0.654   5.606 -0.7429  2.0557  0.6973
 7329TIP3    H243479   1.413   0.543   5.660 -0.6713  0.0942 -3.2531
 7330TIP3   OH243480   2.268   4.423  11.027  0.0423  0.4274  0.4600
 7330TIP3    H143481   2.242   4.335  11.055 -0.3320 -1.0517 -4.0495
 7330TIP3    H243482   2.331   4.408  10.957 -0.1300  3.7706 -0.4833
 7331TIP3   OH243483   0.195   2.825   4.065 -0.7637 -0.0638  0.0801
 7331TIP3    H143484   0.235   2.911   4.050 -2.3733  0.0980 -3.7520
 7331TIP3    H243485   0.224   2.801   4.153  1.4178  3.4594  0.4415
 7332TIP3   OH243486   3.860   1.586   0.539  0.2040 -0.0219  0.3440
 7332TIP3    H143487   3.766   1.565   0.537  0.5207 -1.4082 -1.7314
 7332TIP3    H243488   3.870   1.654   0.473  0.4947  1.0229  1.4378
 7333TIP3   OH243489   5.947   0.002  16.043 -0.3996 -0.5619  0.3904
 7333TIP3    H143490   5.866  -0.038  16.011  0.0105 -1.5533  0.5892
 7333TIP3    H243491   5.991  -0.068  16.091  1.7096 -0.7507 -1.6985
 7334TIP3   OH243492   2.045   6.364   3.033  0.2810  0.5334  0.1043
 7334TIP3    H143493   2.102   6.296   2.997 -2.3193 -0.6190 -2.0193
 7334TIP3    H243494   1.992   6.320   3.099 -0.1802  0.8955 -0.0137
 7335TIP3   OH243495   3.487   3.208  14.196  0.1738  0.1696 -0.1425
 7335TIP3    H143496   3.409   3.261  14.184  1.1917  1.8840  0.6057
 7335TIP3    H243497   3.559   3.271  14.202  1.6034 -1.3591 -0.6788
 7336TIP3   OH243498   1.614   6.044   4.422  0.2357 -0.1081  0.3045
 7336TIP3    H143499   1.590   6.081   4.507 -0.0408  0.3316  0.0383
 7336TIP3    H243500   1.705   6.018   4.432  0.0899 -0.4027  0.8567
 7337TIP3   OH243501   4.151   1.502   1.893  0.0647 -0.5994  0.5549
 7337TIP3    H143502   4.105   1.433   1.942  0.3334 -2.0340 -1.1521
 7337TIP3    H243503   4.082   1.561   1.865 -0.8975 -2.9982 -2.3947
 7338TIP3   OH243504   0.426   3.177  15.317  0.2373 -0.4447 -0.3478
 7338TIP3    H143505   0.429   3.195  15.223 -1.3847  0.3441 -0.2547
 7338TIP3    H243506   0.411   3.262  15.358  1.9319 -0.6256  0.7077
 7339TIP3   OH243507   0.940   2.854   0.052 -0.3353  0.0284  0.3811
 7339TIP3    H143508   0.863   2.814   0.095  0.1080 -0.3655  0.8199
 7339TIP3    H243509   0.919   2.947   0.047 -0.9935 -0.1297  0.1889
 7340TIP3   OH243510   3.116   0.308   3.745 -0.0888 -0.0107 -0.1780
 7340TIP3    H143511   3.155   0.339   3.663 -2.5804  0.1973 -1.3339
 7340TIP3    H243512   3.131   0.214   3.745  0.3673  0.0584 -0.6207
 7341TIP3   OH243513   0.845   4.487  13.287 -0.1871 -0.1774 -0.5343
 7341TIP3    H143514   0.838   4.448  13.200  0.9892 -0.3764 -0.5466
 7341TIP3    H243515   0.824   4.579  13.275 -0.6702 -0.3335 -0.9066
 7342TIP3   OH243516   4.855   2.593   2.288  0.3739 -0.1787 -0.0638
 7342TIP3    H143517   4.832   2.673   2.336  0.7543  0.7811 -1.4491
 7342TIP3    H243518   4.851   2.618   2.196  1.0148 -1.6309 -0.5065
 7343TIP3   OH243519   0.599   1.166  11.165 -0.2837 -0.0617 -0.3886
 7343TIP3    H143520   0.579   1.140  11.075 -1.8101  0.3104 -0.1581
 7343TIP3    H243521   0.514   1.178  11.207  0.3533 -2.6207  1.8148
 7344TIP3   OH243522   2.702   4.015  14.795  0.2909 -0.2287 -0.2666
 7344TIP3    H143523   2.725   3.939  14.741 -0.0378 -0.9818  0.6358
 7344TIP3    H243524   2.650   4.070  14.737  3.4563  1.0121 -2.0203
 7345TIP3   OH243525   5.466   4.883   0.578 -0.5066 -0.0797 -0.3803
 7345TIP3    H143526   5.519   4.906   0.502 -0.3372 -3.4464 -1.3521
 7345TIP3    H243527   5.399   4.824   0.544 -1.5071 -0.2444  1.7898
 7346TIP3   OH243528   6.089   4.243   3.376 -0.0451 -0.5315  0.4944
 7346TIP3    H143529   6.163   4.222   3.433  0.4534 -0.5496 -0.1405
 7346TIP3    H243530   6.020   4.182   3.401  0.7179 -1.6166  0.0007
 7347TIP3   OH243531   5.036   6.271   0.522  0.5940  0.0733  0.3160
 7347TIP3    H143532   5.005   6.310   0.604 -0.8919  0.6528 -0.4975
 7347TIP3    H243533   4.972   6.299   0.457  0.8149 -1.7797 -0.7351
 7348TIP3   OH243534   6.396   4.937   2.480  0.5115  0.4538 -0.7353
 7348TIP3    H143535   6.439   4.995   2.417  1.1730 -1.5263 -2.1679
 7348TIP3    H243536   6.460   4.867   2.495 -1.1371 -1.1052 -0.8229
 7349TIP3   OH243537   1.008   3.186  17.289 -0.4781  0.0926 -0.6482
 7349TIP3    H143538   1.014   3.274  17.326  0.4363 -0.8795  1.6236
 7349TIP3    H243539   0.971   3.199  17.202 -4.9474  2.2927  1.4207
 7350TIP3   OH243540   3.423   5.313  10.874 -0.6597 -0.0392 -0.0128
 7350TIP3    H143541   3.341   5.266  10.886  0.0191 -1.4778 -0.9688
 7350TIP3    H243542   3.397   5.404  10.861 -1.8709  0.3773  4.5150
 7351TIP3   OH243543   1.422   3.614   2.567 -0.1788 -0.9218  0.2256
 7351TIP3    H143544   1.460   3.647   2.648 -0.7736 -0.4198  0.3032
 7351TIP3    H243545   1.330   3.640   2.571 -0.5746 -2.2599  0.1232
 7352TIP3   OH243546   1.711   6.664   4.106 -0.2644 -0.2915  0.1439
 7352TIP3    H143547   1.787   6.639   4.158  0.3414  0.3293 -0.4358
 7352TIP3    H243548   1.729   6.754   4.079 -1.3629 -0.0154  0.2991
 7353TIP3   OH243549   0.814   5.193   0.012  0.3316  0.0231 -0.6562
 7353TIP3    H143550   0.750   5.138  -0.034 -1.1073  2.4777 -1.7121
 7353TIP3    H243551   0.899   5.162  -0.018 -0.5346  0.5372 -3.7922
 7354TIP3   OH243552   1.476   5.506   2.006 -0.3953 -0.2422  0.0376
 7354TIP3    H143553   1.569   5.483   2.007 -0.5290 -0.8374  2.5515
 7354TIP3    H243554   1.455   5.523   2.098 -2.6323  0.4801 -0.5895
 7355TIP3   OH243555   4.168   1.222  11.060  0.0914 -0.0794 -0.0069
 7355TIP3    H143556   4.218   1.290  11.106 -2.0383  1.3041  0.3277
 7355TIP3    H243557   4.092   1.268  11.024  0.0072 -1.7851 -2.1099
 7356TIP3   OH243558   3.105   3.954  14.623  0.3072  0.0641 -0.4332
 7356TIP3    H143559   3.116   3.913  14.537  0.7125 -1.2666  0.2329
 7356TIP3    H243560   3.138   4.043  14.611 -2.5585  0.9308 -2.4663
 7357TIP3   OH243561   3.215   0.307   5.675  0.1673 -0.4453 -0.2614
 7357TIP3    H143562   3.293   0.281   5.722  0.2790  0.4787  0.0797
 7357TIP3    H243563   3.242   0.382   5.622 -0.4762 -0.1270 -0.1549
 7358TIP3   OH243564   2.103   3.910   1.309 -0.3313  0.1136 -0.1010
 7358TIP3    H143565   2.096   3.815   1.301  0.9561  0.0183 -0.1417
 7358TIP3    H243566   2.085   3.943   1.221 -2.7116  0.0388  0.3172
 7359TIP3   OH243567   4.076   4.895  14.613  0.0544 -0.6276  0.1364
 7359TIP3    H143568   4.076   4.981  14.654  2.3915 -1.5480  2.2189
 7359TIP3    H243569   4.094   4.912  14.520 -0.0108  1.1417  0.4311
 7360TIP3   OH243570   0.621   6.096  16.829 -0.1020 -0.0350 -0.3001
 7360TIP3    H143571   0.627   6.165  16.895 -1.4366 -0.8337  0.6842
 7360TIP3    H243572   0.641   6.016  16.877 -0.7412 -0.5789 -0.9449
 7361TIP3   OH243573   1.604   5.973  14.563  0.0861  0.3660 -0.1474
 7361TIP3    H143574   1.662   5.986  14.488 -1.4144 -0.0090 -1.4151
 7361TIP3    H243575   1.662   5.970  14.638  1.7951 -0.8941 -1.4701
 7362TIP3   OH243576   4.764   2.780  15.116  0.0858 -0.2447 -0.2099
 7362TIP3    H143577   4.830   2.764  15.183 -0.5045 -1.2977  0.1432
 7362TIP3    H243578   4.787   2.720  15.045  0.1824  0.2133 -0.5648
 7363TIP3   OH243579   4.731   4.196   4.461 -0.2772 -0.5706 -0.1692
 7363TIP3    H143580   4.739   4.131   4.531  0.2054 -0.0184  0.2833
 7363TIP3    H243581   4.639   4.193   4.436 -0.5467 -0.4285  0.8092
 7364TIP3   OH243582   6.816   3.990  14.525  0.1177 -0.4538  0.3431
 7364TIP3    H143583   6.821   3.913  14.467  0.2250 -0.6936  0.6713
 7364TIP3    H243584   6.897   4.037  14.508  1.0021 -1.4817  1.6418
 7365TIP3   OH243585   1.939   2.990   3.359 -0.1106 -0.1995 -0.0912
 7365TIP3    H143586   1.951   3.082   3.336 -0.2295  0.2336  1.4905
 7365TIP3    H243587   2.026   2.951   3.349  0.0866  0.2406 -0.0899
 7366TIP3   OH243588   3.417   1.946  12.606 -0.3308  0.4040 -0.1027
 7366TIP3    H143589   3.387   1.875  12.662 -0.0362 -0.2487 -0.7681
 7366TIP3    H243590   3.348   2.012  12.612 -0.5207  0.1449  0.6507
 7367TIP3   OH243591   5.179   2.620   1.703  0.1922  0.1114  0.0863
 7367TIP3    H143592   5.126   2.550   1.664 -0.8684  0.9944 -0.0787
 7367TIP3    H243593   5.262   2.617   1.655 -0.0046 -0.7507 -0.2116
 7368TIP3   OH243594   6.277   5.221  16.214 -0.4387 -0.5838  0.4357
 7368TIP3    H143595   6.371   5.238  16.224 -0.8851  1.9144  0.7381
 7368TIP3    H243596   6.256   5.163  16.287  0.5866  0.0948  1.2962
 7369TIP3   OH243597   3.026   4.972  11.601  0.6387  0.1253  0.6690
 7369TIP3    H143598   2.966   4.985  11.675  0.9458  0.0254  0.9378
 7369TIP3    H243599   2.992   5.029  11.532 -1.1758 -1.7363 -0.0250
 7370TIP3   OH243600   5.078   2.007   5.076  0.2391 -0.8033  0.3484
 7370TIP3    H143601   5.080   1.942   5.146 -1.6942 -0.9350  0.3022
 7370TIP3    H243602   5.155   2.062   5.092  2.6941 -3.8542 -0.3735
 7371TIP3   OH243603   2.285   2.550  15.925 -0.0845 -0.1982 -0.3100
 7371TIP3    H143604   2.326   2.574  15.842  0.6905 -2.9115 -0.7541
 7371TIP3    H243605   2.347   2.490  15.966 -0.6831  0.7487  2.0223
 7372TIP3   OH243606   0.334   6.297   4.870 -0.2784  0.3684 -0.1541
 7372TIP3    H143607   0.298   6.208   4.862 -1.5051  0.9657 -1.5812
 7372TIP3    H243608   0.261   6.349   4.903 -0.1862  1.2434 -1.3149
 7373TIP3   OH243609   5.344   1.051   0.682  0.1340 -0.5110 -0.0407
 7373TIP3    H143610   5.296   1.118   0.634 -1.4911  0.3094  2.6264
 7373TIP3    H243611   5.362   0.983   0.617  2.6383  2.8488 -3.0255
 7374TIP3   OH243612   2.936   3.612   2.379  0.3215 -0.6493 -0.1327
 7374TIP3    H143613   2.998   3.543   2.406  1.6529  0.1572 -1.0947
 7374TIP3    H243614   2.975   3.693   2.412  0.9467  0.1254 -2.7001
 7375TIP3   OH243615   4.901   3.965  10.772  0.0005  0.4932  0.5711
 7375TIP3    H143616   4.840   4.038  10.763 -1.3065 -0.7201 -0.6602
 7375TIP3    H243617   4.852   3.899  10.822  0.3896 -0.3935 -0.2089
 7376TIP3   OH243618   0.228   1.040   5.835 -0.2178 -0.4919  0.3544
 7376TIP3    H143619   0.259   1.130   5.848 -1.7425  0.3221 -1.4889
 7376TIP3    H243620   0.273   1.011   5.756  1.1398 -1.7939  1.5596
 7377TIP3   OH243621   5.728   5.951   5.312  0.1621 -0.8411  0.0383
 7377TIP3    H143622   5.754   6.015   5.246  1.0644  0.0348  1.2173
 7377TIP3    H243623   5.633   5.962   5.321  0.4283  0.8982  0.8152
 7378TIP3   OH243624   5.945   1.634  12.625 -0.0582  0.5989 -0.1968
 7378TIP3    H143625   5.875   1.650  12.561  0.2956 -1.5876 -1.1454
 7378TIP3    H243626   6.021   1.610  12.572  0.5038 -0.2539  0.9931
 7379TIP3   OH243627   4.869   4.435   4.726 -0.0839 -0.1413 -0.9493
 7379TIP3    H143628   4.911   4.348   4.724 -1.4674 -0.8140 -1.3236
 7379TIP3    H243629   4.883   4.470   4.638  0.7266  0.1410 -0.7122
 7380TIP3   OH243630   1.248   4.876  13.092  0.6054 -0.4897  0.2897
 7380TIP3    H143631   1.180   4.934  13.126  0.9217 -0.3335  0.6621
 7380TIP3    H243632   1.213   4.788  13.106 -1.8224 -0.4166 -4.2233
 7381TIP3   OH243633   6.444   5.562  11.880 -0.1526 -0.2805 -0.2760
 7381TIP3    H143634   6.402   5.481  11.852  0.1676 -0.2683 -0.7850
 7381TIP3    H243635   6.461   5.549  11.974 -1.8771 -0.0218  0.0863
 7382TIP3   OH243636   5.217   6.530   4.816  0.0699  0.0201  0.1701
 7382TIP3    H143637   5.216   6.445   4.773 -1.0995 -0.2394  0.6833
 7382TIP3    H243638   5.269   6.516   4.895 -3.7482 -1.4418  2.5841
 7383TIP3   OH243639   1.449   6.033   2.035  0.2810 -0.4182 -0.5003
 7383TIP3    H143640   1.488   6.083   1.963 -2.4919  1.2240 -0.9428
 7383TIP3    H243641   1.395   5.967   1.992  1.1884 -1.5577  0.0920
 7384TIP3   OH243642   4.277   0.210  10.966 -0.1419 -0.3220  0.4805
 7384TIP3    H143643   4.333   0.286  10.951  0.2126 -0.1541  2.4799
 7384TIP3    H243644   4.307   0.174  11.050  0.2004 -3.1301 -0.7826
 7385TIP3   OH243645   1.480   6.090   5.236  0.1503  0.1965 -0.0405
 7385TIP3    H143646   1.446   6.163   5.288 -1.0488  0.1521 -0.7253
 7385TIP3    H243647   1.418   6.019   5.251 -0.5513  0.3667 -1.9533
 7386TIP3   OH243648   1.566   0.504  11.679  0.2333 -0.1076  0.1910
 7386TIP3    H143649   1.546   0.525  11.587 -0.9303  0.4510  0.5592
 7386TIP3    H243650   1.502   0.554  11.729  0.0405 -1.4016  1.2551
 7387TIP3   OH243651   3.985   5.635  13.693  0.3307  0.2865 -0.1936
 7387TIP3    H143652   4.020   5.720  13.668  2.7223 -1.1764 -1.9599
 7387TIP3    H243653   3.971   5.642  13.788  0.7494  2.5370 -0.2757
 7388TIP3   OH243654   5.745   2.622   5.619  0.6895 -0.3454 -0.5382
 7388TIP3    H143655   5.698   2.677   5.682  1.8406  1.8017 -1.5140
 7388TIP3    H243656   5.831   2.608   5.658  1.8403  2.0051 -2.1064
 7389TIP3   OH243657   2.807   6.384   3.343  0.0434  0.0932  0.1909
 7389TIP3    H143658   2.767   6.315   3.396 -1.1364  0.9648  0.4399
 7389TIP3    H243659   2.803   6.351   3.253 -2.0596  0.5390  0.0940
 7390TIP3   OH243660   6.249   2.252   0.232 -0.3167 -0.0596 -0.1297
 7390TIP3    H143661   6.342   2.265   0.213 -0.4187  0.1136 -0.5273
 7390TIP3    H243662   6.244   2.165   0.271 -0.0146 -0.1647 -0.3266
 7391TIP3   OH243663   2.910   6.118   1.593  0.3219  0.3939 -0.1883
 7391TIP3    H143664   2.931   6.024   1.591  2.9172  0.9048  0.7859
 7391TIP3    H243665   2.832   6.126   1.538  1.6316 -1.9483 -2.5423
 7392TIP3   OH243666   6.229   6.530  15.967 -0.2002 -0.4425 -0.1362
 7392TIP3    H143667   6.317   6.564  15.981 -0.6578  0.4296  0.6404
 7392TIP3    H243668   6.181   6.552  16.046 -0.8518 -1.8118 -0.1256
 7393TIP3   OH243669   4.535   2.649  11.169 -0.1658  0.1112  0.1919
 7393TIP3    H143670   4.439   2.653  11.177 -0.1582  1.0811 -0.1493
 7393TIP3    H243671   4.567   2.677  11.255 -0.1855 -0.2437  0.3153
 7394TIP3   OH243672   5.373   5.179   1.070  0.3873 -0.4911 -0.2621
 7394TIP3    H143673   5.307   5.139   1.125  0.5319 -0.1397  0.1675
 7394TIP3    H243674   5.362   5.137   0.984 -2.4133  1.7209 -1.0413
 7395TIP3   OH243675   6.683   1.805   3.773 -0.2701  0.5026  0.4249
 7395TIP3    H143676   6.721   1.801   3.861  0.9763  1.4802 -0.0530
 7395TIP3    H243677   6.599   1.851   3.786  0.0905  0.9992  1.0424
 7396TIP3   OH243678   6.004   1.065   4.939  0.7667  0.5477 -0.4909
 7396TIP3    H143679   5.918   1.059   4.900  2.2723 -1.3048 -3.7060
 7396TIP3    H243680   5.998   1.138   5.000 -2.8458  0.8728 -1.1650
 7397TIP3   OH243681   3.422   3.855  17.258 -0.3674 -0.6836  0.4218
 7397TIP3    H143682   3.381   3.933  17.295  0.6568 -0.5277  1.2651
 7397TIP3    H243683   3.369   3.782  17.289  1.0303 -0.6421  3.0929
 7398TIP3   OH243684   2.826   5.795   3.798  0.4605 -0.2165 -0.1477
 7398TIP3    H143685   2.748   5.747   3.827  1.2237 -1.8568 -0.7888
 7398TIP3    H243686   2.807   5.817   3.707 -0.1554  1.2819  0.3257
 7399TIP3   OH243687   2.807   3.474  11.685  0.5448 -0.1408  0.1987
 7399TIP3    H143688   2.901   3.492  11.686  0.1237  2.2201  1.6146
 7399TIP3    H243689   2.767   3.557  11.658 -1.2711 -0.1809  2.6054
 7400TIP3   OH243690   6.129   2.216  15.281  0.0028 -0.2299  0.2543
 7400TIP3    H143691   6.080   2.295  15.258  0.3987 -0.4364 -1.4021
 7400TIP3    H243692   6.091   2.147  15.226  0.2605 -1.0012  1.0301
 7401TIP3   OH243693   6.141   6.647  15.048 -0.3975 -0.1374  0.1820
 7401TIP3    H143694   6.185   6.656  15.133 -1.2422 -0.7609  0.6889
 7401TIP3    H243695   6.071   6.583  15.064 -1.1960  0.5060 -0.7380
 7402TIP3   OH243696   4.067   4.154  12.007 -0.3888 -0.2159  0.3792
 7402TIP3    H143697   4.089   4.062  11.987  1.8926  0.6329 -1.2572
 7402TIP3    H243698   4.019   4.184  11.930 -1.5839 -0.1482  1.1349
 7403TIP3   OH243699   1.936   6.548   4.877 -0.2191 -0.0533  0.0720
 7403TIP3    H143700   1.921   6.636   4.910  0.5788 -0.0461  0.4179
 7403TIP3    H243701   1.865   6.534   4.814  0.3515  1.2897 -0.8993
 7404TIP3   OH243702   0.424   1.986  16.082 -0.3055  0.4713 -0.1575
 7404TIP3    H143703   0.447   2.034  16.162  0.1221 -0.1296  0.0888
 7404TIP3    H243704   0.434   2.049  16.011  0.9409  0.5460  0.0842
 7405TIP3   OH243705   0.684   1.421   5.358  0.1747 -0.5682  0.1688
 7405TIP3    H143706   0.674   1.358   5.286  0.4898 -1.3947  0.8371
 7405TIP3    H243707   0.740   1.376   5.421  0.3752  0.3819  0.6680
 7406TIP3   OH243708   4.866   6.509  13.226 -0.0279 -0.1371  0.1702
 7406TIP3    H143709   4.786   6.469  13.190 -0.3202  0.8692 -0.3173
 7406TIP3    H243710   4.922   6.434  13.247 -0.7346 -0.8262 -0.3345
 7407TIP3   OH243711   2.145   0.050  10.828  0.1234  0.1798  0.2161
 7407TIP3    H143712   2.227   0.072  10.871  0.1818  0.1184  0.1352
 7407TIP3    H243713   2.106   0.135  10.807 -0.2509  0.2229  1.0378
 7408TIP3   OH243714   4.293   5.035  12.052  0.2264  0.2063  0.0106
 7408TIP3    H143715   4.344   5.085  11.988 -1.3166  0.6966 -0.8600
 7408TIP3    H243716   4.271   5.099  12.120 -1.0978  0.5308 -0.7209
 7409TIP3   OH243717   2.832   3.166  12.026 -0.4472  0.5165  0.0787
 7409TIP3    H143718   2.853   3.176  11.933  0.8038  1.1793  0.4159
 7409TIP3    H243719   2.827   3.255  12.059 -4.6194  0.4646 -0.1032
 7410TIP3   OH243720   1.302   0.490  12.205 -0.0205 -0.1764  0.7492
 7410TIP3    H143721   1.385   0.532  12.183  1.0206 -1.7546  1.5238
 7410TIP3    H243722   1.282   0.520  12.294 -0.8843  1.0995  0.1377
 7411TIP3   OH243723   2.439   3.821  13.778 -0.6034  0.1226 -0.7039
 7411TIP3    H143724   2.438   3.740  13.828  1.1946 -0.9894 -2.4145
 7411TIP3    H243725   2.504   3.876  13.822 -2.4414  1.0239  0.9731
 7412TIP3   OH243726   3.701   4.426  15.825 -0.0627 -0.2262 -0.2300
 7412TIP3    H143727   3.746   4.460  15.747  0.0506  0.7952  0.2743
 7412TIP3    H243728   3.632   4.370  15.790  0.2635 -0.1182 -1.0605
 7413TIP3   OH243729   5.701   5.902  12.405 -0.5941 -0.1269  0.1762
 7413TIP3    H143730   5.753   5.825  12.383  0.1107  0.9450 -2.1504
 7413TIP3    H243731   5.644   5.914  12.329  0.6530  2.7407 -0.3704
 7414TIP3   OH243732   1.803   3.491  11.658  0.5040 -0.7451 -0.2656
 7414TIP3    H143733   1.720   3.479  11.611  0.4396  0.7249 -0.5691
 7414TIP3    H243734   1.851   3.410  11.643 -0.7786 -1.5054 -0.3081
 7415TIP3   OH243735   3.545   2.807   1.345  0.2309  0.0257  0.2405
 7415TIP3    H143736   3.585   2.838   1.426 -0.8061 -1.5282  1.4056
 7415TIP3    H243737   3.451   2.801   1.366  0.2160 -2.4093 -0.3786
 7416TIP3   OH243738   6.615   4.762   0.975 -0.1034  0.2329  0.1762
 7416TIP3    H143739   6.547   4.816   0.935  0.0410 -1.3741 -2.2716
 7416TIP3    H243740   6.679   4.826   1.007 -0.4506  1.5699 -1.7121
 7417TIP3   OH243741   1.924   3.124  15.849  0.6407  0.5189  0.1995
 7417TIP3    H143742   1.971   3.200  15.884  2.1886 -0.0915 -0.4675
 7417TIP3    H243743   1.940   3.055  15.912  0.1216  0.4702  0.2761
 7418TIP3   OH243744   3.544   4.879   3.940  0.7180 -0.1387  0.1708
 7418TIP3    H143745   3.548   4.784   3.933  1.4952 -0.0471 -0.7088
 7418TIP3    H243746   3.632   4.909   3.917 -0.3298  0.9711 -2.6573
 7419TIP3   OH243747   6.734   0.445   1.802  0.4908 -0.6610 -0.0463
 7419TIP3    H143748   6.738   0.529   1.756 -0.5246 -0.6003 -0.0212
 7419TIP3    H243749   6.685   0.464   1.882  0.2745 -1.2817 -0.0318
 7420TIP3   OH243750   4.980   5.722  11.658  0.3839  0.0525  0.5312
 7420TIP3    H143751   4.943   5.710  11.745  1.3987  1.1655  1.1355
 7420TIP3    H243752   4.952   5.810  11.632  0.3409 -0.1572 -0.1347
 7421TIP3   OH243753   5.020   1.009   5.601 -0.4261  0.1789 -0.1381
 7421TIP3    H143754   5.012   1.103   5.581 -0.9074  0.1016 -0.3101
 7421TIP3    H243755   5.071   1.007   5.682  0.2146  0.5568 -0.5263
 7422TIP3   OH243756   5.649   3.446   4.386  0.0004  0.3751 -0.4119
 7422TIP3    H143757   5.702   3.426   4.309 -1.4602 -0.8905 -1.0903
 7422TIP3    H243758   5.593   3.519   4.359 -0.5795 -0.1316 -0.5682
 7423TIP3   OH243759   6.586   3.411  11.400  0.9922  0.3547 -0.5544
 7423TIP3    H143760   6.526   3.486  11.397  0.1265 -0.2784  0.5154
 7423TIP3    H243761   6.665   3.442  11.356  0.7356  1.9824  0.0810
 7424TIP3   OH243762   5.633   2.080  10.941  0.5623  0.4418 -0.1677
 7424TIP3    H143763   5.567   2.034  10.992  0.9010 -1.2983 -1.2310
 7424TIP3    H243764   5.716   2.056  10.982  0.8802 -1.4080 -1.7913
 7425TIP3   OH243765   6.714   4.291  14.587 -0.1926  0.4329 -0.4682
 7425TIP3    H143766   6.702   4.205  14.628  1.7119 -0.3110 -1.3960
 7425TIP3    H243767   6.659   4.289  14.510 -0.1255  0.0137 -0.5065
 7426TIP3   OH243768   2.158   3.698   2.181  0.4649 -0.4317  0.1425
 7426TIP3    H143769   2.069   3.664   2.185  0.6588 -0.7830  2.0924
 7426TIP3    H243770   2.210   3.626   2.145 -0.2292  0.2411 -2.2990
 7427TIP3   OH243771   6.748   2.264  13.560  0.2739  0.0591 -0.6357
 7427TIP3    H143772   6.689   2.195  13.591 -0.1152  0.5781 -0.2113
 7427TIP3    H243773   6.692   2.340  13.544  0.7729  0.4497 -0.5695
 7428TIP3   OH243774   2.059   4.011   1.715 -0.5898  0.4488  0.2573
 7428TIP3    H143775   1.970   4.008   1.750 -0.9615  3.3812 -0.3294
 7428TIP3    H243776   2.112   4.044   1.787 -0.2923  0.4323  0.0447
 7429TIP3   OH243777   5.375   1.415   2.507  0.1018 -0.3667 -0.1136
 7429TIP3    H143778   5.281   1.411   2.495  0.1445 -2.1136  0.0122
 7429TIP3    H243779   5.391   1.370   2.591  1.1830 -1.6106 -0.9550
 7430TIP3   OH243780   5.073   5.498   4.449  0.3613 -0.1908 -0.2849
 7430TIP3    H143781   4.987   5.509   4.489  0.3881 -2.5892  0.5503
 7430TIP3    H243782   5.055   5.490   4.355 -0.0571  1.8083 -0.3960
 7431TIP3   OH243783   3.483   3.304   5.334  0.1873  0.0210 -0.6109
 7431TIP3    H143784   3.556   3.287   5.394  0.7988  0.3404 -1.2435
 7431TIP3    H243785   3.490   3.398   5.315  0.1605 -0.1309 -1.3837
 7432TIP3   OH243786   2.580   6.014  15.887  0.0058 -0.3641 -0.2023
 7432TIP3    H143787   2.503   6.064  15.912  0.5930 -0.2871  1.5057
 7432TIP3    H243788   2.565   5.991  15.795 -1.3961  0.8338 -0.2892
 7433TIP3   OH243789   2.843   2.075   3.671  0.3319 -0.0543  0.6018
 7433TIP3    H143790   2.895   2.003   3.706  1.0662 -0.2644 -0.8987
 7433TIP3    H243791   2.875   2.152   3.717 -1.0234 -0.7558  2.8338
 7434TIP3   OH243792   5.513   1.479   4.636 -0.5527 -0.0420  0.3424
 7434TIP3    H143793   5.560   1.410   4.589 -1.1520  0.0123 -0.3384
 7434TIP3    H243794   5.561   1.488   4.718 -0.3099 -1.0933  0.3295
 7435TIP3   OH243795   5.685   3.194   2.347  0.0476 -0.2093 -0.4827
 7435TIP3    H143796   5.593   3.191   2.320  0.6182  1.9776 -2.7859
 7435TIP3    H243797   5.733   3.162   2.271  1.2973 -0.1894  0.2957
 7436TIP3   OH243798   2.261   4.377   1.396  0.2410 -0.0840 -0.2820
 7436TIP3    H143799   2.323   4.316   1.435  1.4656  1.1796 -0.2044
 7436TIP3    H243800   2.197   4.394   1.465  1.9020  1.4630  0.9241
 7437TIP3   OH243801   6.610   2.973   1.952  0.4072  0.0690  0.0656
 7437TIP3    H143802   6.574   3.052   1.991  1.8371  0.9914 -0.4399
 7437TIP3    H243803   6.684   2.950   2.008 -0.2887 -1.2086  0.4900
 7438TIP3   OH243804   0.542   1.770  15.725  0.7992  0.5056  0.0666
 7438TIP3    H143805   0.485   1.803  15.655  0.8306  0.9157  0.2343
 7438TIP3    H243806   0.498   1.692  15.758  0.0396  1.1595  0.5987
 7439TIP3   OH243807   1.851   4.779  14.297  0.0261  0.7417  0.2841
 7439TIP3    H143808   1.772   4.826  14.269 -0.7480  1.0913  2.9843
 7439TIP3    H243809   1.836   4.688  14.269 -1.3088  0.8247  0.6992
 7440TIP3   OH243810   6.150   2.674   1.959 -0.5025  0.1570 -0.1773
 7440TIP3    H143811   6.109   2.748   1.914 -1.6580 -0.7408 -0.6267
 7440TIP3    H243812   6.194   2.714   2.034 -1.5795  1.2459 -0.0920
 7441TIP3   OH243813   6.269   4.480  16.954 -0.3319 -0.0595  0.2566
 7441TIP3    H143814   6.178   4.488  16.982 -0.2289 -0.8178  0.8276
 7441TIP3    H243815   6.285   4.385  16.951  0.4312  0.0690  0.1547
 7442TIP3   OH243816   1.505   1.501   6.381  0.0649 -0.1494 -0.1048
 7442TIP3    H143817   1.585   1.541   6.347  0.3815  0.2458  1.0778
 7442TIP3    H243818   1.524   1.408   6.384  0.2871 -0.1109 -0.3176
 7443TIP3   OH243819   0.638   0.084   0.984  0.2639  0.3550 -0.0155
 7443TIP3    H143820   0.543   0.076   0.998  0.3675 -0.0505  0.4748
 7443TIP3    H243821   0.646   0.139   0.906 -0.3730  0.5389  0.0437
 7444TIP3   OH243822   2.695   3.121  15.322 -0.1230  0.0403 -0.2344
 7444TIP3    H143823   2.719   3.093  15.234 -0.9277  1.2866 -0.8666
 7444TIP3    H243824   2.618   3.177  15.309 -0.7643 -0.4638  1.3388
 7445TIP3   OH243825   5.386   4.597  12.226  0.1723 -0.3427  0.0265
 7445TIP3    H143826   5.366   4.515  12.271 -2.4456 -0.0890 -0.5928
 7445TIP3    H243827   5.373   4.577  12.133  0.4515  0.5249 -0.2022
 7446TIP3   OH243828   4.874   1.832   5.859  0.4120 -0.1045  0.3603
 7446TIP3    H143829   4.847   1.797   5.944  1.3782  0.0105  0.7196
 7446TIP3    H243830   4.957   1.789   5.840  0.2420 -0.0763 -0.4999
 7447TIP3   OH243831   6.327   5.287   4.719 -0.9463 -0.5286 -0.4221
 7447TIP3    H143832   6.323   5.257   4.810  0.7328 -2.4951 -0.9749
 7447TIP3    H243833   6.421   5.293   4.699 -1.2881  0.5728 -1.8255
 7448TIP3   OH243834   6.089   5.786   3.364  0.4029 -0.2552  0.5978
 7448TIP3    H143835   6.043   5.722   3.419  0.1964 -0.4595  0.1908
 7448TIP3    H243836   6.031   5.798   3.289  0.7875 -0.1368  0.3233
 7449TIP3   OH243837   0.318   3.193   3.806 -0.3230 -0.5071 -0.3634
 7449TIP3    H143838   0.327   3.181   3.900 -0.0520  1.1582 -0.1554
 7449TIP3    H243839   0.322   3.105   3.769  0.0010 -1.1270  1.1450
 7450TIP3   OH243840   5.113   4.170   3.538  0.2035  0.3568 -0.1096
 7450TIP3    H143841   5.153   4.248   3.577 -2.2073  2.0781 -0.9222
 7450TIP3    H243842   5.035   4.154   3.592 -0.5653 -0.0841 -1.3216
 7451TIP3   OH243843   6.810   1.880  11.718  0.1537  0.3395 -0.4623
 7451TIP3    H143844   6.766   1.890  11.802  3.1041 -0.1426  1.1775
 7451TIP3    H243845   6.758   1.814  11.672 -1.0153  0.0117  1.2861
 7452TIP3   OH243846   0.682   3.639   4.480 -0.4585  0.0424  0.3217
 7452TIP3    H143847   0.761   3.623   4.429 -0.0716  0.2222  0.8655
 7452TIP3    H243848   0.637   3.709   4.433 -0.3245 -0.0934 -0.0121
 7453TIP3   OH243849   2.502   4.280  12.630 -0.1077 -0.2907 -0.0492
 7453TIP3    H143850   2.597   4.275  12.615  0.0427  0.4000  0.6470
 7453TIP3    H243851   2.463   4.260  12.545  0.6689 -0.1855 -0.4340
 7454TIP3   OH243852   2.516   5.955   3.826 -0.0717  0.5698 -0.2460
 7454TIP3    H143853   2.571   6.032   3.834 -0.4289  0.8562 -0.5439
 7454TIP3    H243854   2.428   5.985   3.852  0.2939 -0.3627  2.1901
 7455TIP3   OH243855   3.391   6.710  16.016  0.2050 -0.1641 -0.5273
 7455TIP3    H143856   3.297   6.709  15.997  0.3998  0.3686 -1.5906
 7455TIP3    H243857   3.413   6.803  16.022  0.6896 -0.2836 -0.4447
 7456TIP3   OH243858   5.992   0.059   0.794 -0.0363  0.6048 -0.1989
 7456TIP3    H143859   6.002   0.040   0.887 -0.9073  1.6590  0.1115
 7456TIP3    H243860   5.905   0.026   0.772  0.2971  0.0639 -0.7204
 7457TIP3   OH243861   6.547   3.156  15.776 -0.4644  0.1619  0.3618
 7457TIP3    H143862   6.462   3.188  15.805 -0.2559 -0.4025  1.6636
 7457TIP3    H243863   6.528   3.082  15.719 -0.8318 -0.6205  1.4905
 7458TIP3   OH243864   2.543   4.821   0.767 -0.1452 -0.2791  0.5105
 7458TIP3    H143865   2.488   4.893   0.800 -0.2109 -0.1183  0.0566
 7458TIP3    H243866   2.500   4.742   0.799 -1.0004 -0.1830 -0.3538
 7459TIP3   OH243867   3.845   6.654   4.088 -0.3084 -0.3445 -0.0705
 7459TIP3    H143868   3.753   6.671   4.070 -0.1096  2.2147  1.1368
 7459TIP3    H243869   3.855   6.668   4.182  1.3513 -0.3530 -0.2238
 7460TIP3   OH243870   5.275   4.620   5.191  0.2917  0.0746 -0.3439
 7460TIP3    H143871   5.366   4.629   5.219  0.0571  0.9800  0.1636
 7460TIP3    H243872   5.235   4.705   5.213 -1.4234 -1.3330  2.2117
 7461TIP3   OH243873   2.855   3.665   5.286 -0.1864  0.3328  0.3469
 7461TIP3    H143874   2.783   3.661   5.349 -0.9916  0.6236 -0.5480
 7461TIP3    H243875   2.865   3.758   5.267 -0.0016  0.2378 -0.0228
 7462TIP3   OH243876   4.535   2.665   0.752  0.3196 -0.6001 -0.0678
 7462TIP3    H143877   4.613   2.645   0.804  0.9999 -1.7319 -1.4870
 7462TIP3    H243878   4.566   2.728   0.686 -0.3943  0.3537  0.4962
 7463TIP3   OH243879   3.571   6.470   4.673 -0.4128 -0.0395 -0.2374
 7463TIP3    H143880   3.650   6.452   4.725  0.0197 -0.1321 -0.9215
 7463TIP3    H243881   3.532   6.384   4.658  1.3361 -0.4153 -3.0071
 7464TIP3   OH243882   6.385   4.961   0.906  0.0554 -0.4421  0.2639
 7464TIP3    H143883   6.304   4.925   0.870  0.1174  0.3740 -0.7223
 7464TIP3    H243884   6.369   4.966   1.000  0.3999 -3.8895  0.5673
 7465TIP3   OH243885   4.353   3.369  16.076 -0.4724 -0.1158  0.1689
 7465TIP3    H143886   4.423   3.317  16.035 -0.7675  0.9999 -1.8339
 7465TIP3    H243887   4.307   3.307  16.132  1.7393 -1.0104  1.0549
 7466TIP3   OH243888   4.393   0.453  16.106 -0.0731  0.0101  0.3863
 7466TIP3    H143889   4.339   0.483  16.033 -1.0688 -0.8871  0.7421
 7466TIP3    H243890   4.331   0.412  16.166  0.9556 -0.6910  0.9736
 7467TIP3   OH243891   2.689   2.635  14.353  0.7557  0.0325  0.0823
 7467TIP3    H143892   2.681   2.542  14.331 -0.4336 -0.8602  4.0395
 7467TIP3    H243893   2.777   2.644  14.390  1.3709  0.8046 -1.5005
 7468TIP3   OH243894   1.855   5.451   2.112 -0.3758  0.3314  0.2393
 7468TIP3    H143895   1.814   5.423   2.030 -2.6993  0.3755  1.3498
 7468TIP3    H243896   1.935   5.496   2.084 -0.6504 -0.4422 -1.9496
 7469TIP3   OH243897   3.212   4.436  14.182  0.0347  0.1805  0.4371
 7469TIP3    H143898   3.132   4.407  14.140 -0.3638  1.5483  0.2045
 7469TIP3    H243899   3.239   4.363  14.237 -1.4546 -0.2335  0.6368
 7470TIP3   OH243900   1.836   0.115   5.648  0.5433 -0.1306  0.4223
 7470TIP3    H143901   1.845   0.089   5.739  0.2559 -0.4665  0.3544
 7470TIP3    H243902   1.892   0.053   5.599  0.0705 -0.4522  0.2891
 7471TIP3   OH243903   3.648   3.617   1.191 -0.5429  0.5542  0.1049
 7471TIP3    H143904   3.605   3.578   1.115 -2.1329  0.4951  1.0029
 7471TIP3    H243905   3.634   3.554   1.261  1.7233  0.1753  0.2396
 7472TIP3   OH243906   1.442   2.784   4.778  0.1266  0.3679 -0.7387
 7472TIP3    H143907   1.368   2.747   4.826  0.2966  1.4115  0.3539
 7472TIP3    H243908   1.405   2.813   4.695 -0.2059 -1.3170 -1.1910
 7473TIP3   OH243909   5.754   4.811  14.860 -1.2318  0.2909  0.1067
 7473TIP3    H143910   5.833   4.786  14.909  0.7779  0.9881 -2.6431
 7473TIP3    H243911   5.717   4.729  14.830  0.5372  0.0991 -1.6522
 7474TIP3   OH243912   1.259   0.351   3.884  0.0630  0.6460  0.6878
 7474TIP3    H143913   1.318   0.373   3.812  1.1857  0.3701  1.5141
 7474TIP3    H243914   1.281   0.414   3.953 -0.8707  0.7779  0.8756
 7475TIP3   OH243915   0.192   6.442   2.299  1.0870  0.3144  0.0019
 7475TIP3    H143916   0.257   6.503   2.334  1.5327 -0.1993  0.0727
 7475TIP3    H243917   0.173   6.383   2.372  0.2935  0.6606  0.0844
 7476TIP3   OH243918   3.803   6.230  13.062 -0.5490  0.3484 -0.3623
 7476TIP3    H143919   3.772   6.148  13.101 -1.4869  1.3031  0.9404
 7476TIP3    H243920   3.769   6.298  13.119  0.6125  1.6384 -1.1774
 7477TIP3   OH243921   2.406   6.032   2.982  0.4697 -0.3829  0.9393
 7477TIP3    H143922   2.458   6.089   3.040  1.8620 -2.1586  1.4824
 7477TIP3    H243923   2.453   5.949   2.982 -1.2429 -1.3775 -0.2878
 7478TIP3   OH243924   2.946   1.116   1.689 -0.0226  0.1090 -0.2798
 7478TIP3    H143925   2.925   1.120   1.596  2.8609 -0.7296 -1.0113
 7478TIP3    H243926   2.957   1.207   1.716  0.6158  0.2780 -1.1222
 7479TIP3   OH243927   3.352   4.867   5.017  0.0170  0.1961  0.1243
 7479TIP3    H143928   3.346   4.930   4.945  0.5039 -2.5871 -2.4658
 7479TIP3    H243929   3.261   4.846   5.038 -0.1288  1.0841  0.3932
 7480TIP3   OH243930   0.765   1.934   0.182  0.0733  0.3116  0.2253
 7480TIP3    H143931   0.760   2.023   0.218  1.9116  0.1843  0.8688
 7480TIP3    H243932   0.708   1.936   0.106 -1.3170  1.5300  1.2709
 7481TIP3   OH243933   3.482   1.323   5.271 -0.4733 -0.2713  0.1581
 7481TIP3    H143934   3.472   1.415   5.294 -2.1834  0.4368 -3.1554
 7481TIP3    H243935   3.559   1.320   5.215 -2.0506 -0.3554 -2.0729
 7482TIP3   OH243936   5.277   0.299   1.721 -0.3361  0.4426 -0.4776
 7482TIP3    H143937   5.316   0.321   1.636 -0.8591 -1.8482 -1.3494
 7482TIP3    H243938   5.340   0.329   1.785  2.8855 -2.9840 -1.8565
 7483TIP3   OH243939   0.119   5.274  15.823  0.0138  0.2513  0.0238
 7483TIP3    H143940   0.026   5.297  15.823  0.1276  0.7072  0.0555
 7483TIP3    H243941   0.134   5.238  15.911 -0.4611 -1.1609 -0.4661
 7484TIP3   OH243942   4.265   5.187   1.364  0.2896  0.2033 -0.2846
 7484TIP3    H143943   4.281   5.207   1.456  0.9265 -0.1851 -0.3021
 7484TIP3    H243944   4.207   5.257   1.334  0.4514  0.5956  0.2929
 7485TIP3   OH243945   0.376   1.283   2.871  0.1389 -0.8741  0.5414
 7485TIP3    H143946   0.335   1.361   2.832 -1.5944 -1.8889  0.2571
 7485TIP3    H243947   0.323   1.210   2.839  1.0114 -2.0693  1.7701
 7486TIP3   OH243948   3.852   5.107   6.969  0.2377  0.6806 -0.0891
 7486TIP3    H143949   3.807   5.121   7.052  1.3196  0.8857  0.4727
 7486TIP3    H243950   3.909   5.032   6.985  2.7156  2.5735  0.3147
 7487TIP3   OH243951   0.742   1.230  15.048  0.0059  0.3638  0.3260
 7487TIP3    H143952   0.729   1.161  15.114  1.2231  0.7287  0.9802
 7487TIP3    H243953   0.818   1.200  14.998 -0.3561  0.5359 -0.3196
 7488TIP3   OH243954   0.988   4.353  17.138 -0.0981  0.4440  1.1838
 7488TIP3    H143955   1.061   4.327  17.195 -0.7001  0.3359  1.9110
 7488TIP3    H243956   1.028   4.366  17.052  0.2785 -2.7945  0.7928
 7489TIP3   OH243957   2.674   0.240  14.001  0.9312  0.2668  0.3703
 7489TIP3    H143958   2.750   0.298  13.993  1.6405 -0.2943  2.6763
 7489TIP3    H243959   2.710   0.152  13.992  0.0250  0.1066 -1.9351
 7490TIP3   OH243960   5.597   2.878  11.368  0.1065 -0.2309 -0.4712
 7490TIP3    H143961   5.627   2.908  11.282 -1.1788  0.5414 -0.6759
 7490TIP3    H243962   5.666   2.821  11.400  1.0391  0.2500 -1.6040
 7491TIP3   OH243963   5.648   1.036   2.794  0.8395 -0.5546 -0.1754
 7491TIP3    H143964   5.688   1.041   2.881  1.2635  1.8072 -0.4718
 7491TIP3    H243965   5.722   1.043   2.733  0.3667 -0.3649 -0.7343
 7492TIP3   OH243966   0.747   3.586  15.207 -0.0685 -0.7497  0.4502
 7492TIP3    H143967   0.818   3.528  15.179  0.3354  0.3225 -0.8107
 7492TIP3    H243968   0.766   3.669  15.164 -2.2106 -0.4947 -0.0645
 7493TIP3   OH243969   5.924   2.330  10.642  0.6492  0.1013  0.1272
 7493TIP3    H143970   5.908   2.346  10.735 -1.1448 -1.5980  0.1499
 7493TIP3    H243971   5.847   2.280  10.613  1.2122  0.5731 -2.2556
 7494TIP3   OH243972   5.180   1.111   2.294 -0.0651 -0.1670 -0.7842
 7494TIP3    H143973   5.257   1.146   2.340 -3.4390  2.9472  2.7875
 7494TIP3    H243974   5.169   1.023   2.331  0.3186  0.3241  0.5345
 7495TIP3   OH243975   6.797   2.376  14.417  0.1175  0.0572  0.2007
 7495TIP3    H143976   6.885   2.344  14.396  0.5606  0.1678  1.7908
 7495TIP3    H243977   6.807   2.419  14.502 -1.4690  0.1078  0.3798
 7496TIP3   OH243978   1.921   1.789  15.340 -0.0586  0.2831  0.2138
 7496TIP3    H143979   1.909   1.878  15.371 -2.4374 -0.7517  2.3696
 7496TIP3    H243980   1.997   1.756  15.389 -0.9754  0.1773  1.5839
 7497TIP3   OH243981   3.029   4.060  11.877 -0.2529 -0.0178 -0.0695
 7497TIP3    H143982   3.021   4.067  11.782 -0.4057 -1.0938 -0.1440
 7497TIP3    H243983   3.090   3.988  11.890 -0.2949  0.0785  0.6565
 7498TIP3   OH243984   3.548   3.338  16.676  0.0749  0.7516  0.5228
 7498TIP3    H143985   3.503   3.311  16.596  1.6404  0.8527 -0.4135
 7498TIP3    H243986   3.480   3.340  16.742 -0.5349 -3.1315  0.0950
 7499TIP3   OH243987   5.430   2.935   4.736  0.5029 -0.2641  0.5762
 7499TIP3    H143988   5.480   2.934   4.818  0.9664 -0.1082  0.2989
 7499TIP3    H243989   5.464   3.011   4.688  0.5367 -0.6004  0.0559
 7500TIP3   OH243990   6.707   3.170   2.253 -0.0278 -0.1811 -0.3871
 7500TIP3    H143991   6.673   3.144   2.339  0.2146 -1.2304 -0.6007
 7500TIP3    H243992   6.793   3.128   2.248  0.4931  0.9094 -0.6270
 7501TIP3   OH243993   5.350   5.268   4.803 -0.1995  0.1289  0.1645
 7501TIP3    H143994   5.315   5.248   4.717  1.4317  1.3533 -0.8045
 7501TIP3    H243995   5.440   5.236   4.801 -0.2752 -0.2339  1.5806
 7502TIP3   OH243996   1.186   2.044  12.530 -0.1950 -0.1404  0.1149
 7502TIP3    H143997   1.092   2.055  12.514 -0.0762  0.0486 -0.4334
 7502TIP3    H243998   1.206   2.108  12.598 -0.1390  0.8968 -0.8751
 7503TIP3   OH243999   5.845   2.581   1.375  0.1983 -0.7025  0.5526
 7503TIP3    H144000   5.895   2.558   1.453  0.0980  0.2429  0.8993
 7503TIP3    H244001   5.902   2.643   1.328  0.0964 -0.9748  0.0670
 7504TIP3   OH244002   4.678   1.000  11.689  0.4362 -0.5006  0.0250
 7504TIP3    H144003   4.603   1.057  11.672  1.6164  0.7074 -1.2333
 7504TIP3    H244004   4.672   0.980  11.782 -1.4613 -0.4493 -0.0593
 7505TIP3   OH244005   4.240   0.971   1.934  0.2273  0.0728 -0.4650
 7505TIP3    H144006   4.174   0.928   1.989 -1.5807  1.7078 -1.2891
 7505TIP3    H244007   4.234   1.063   1.957  1.3197  0.4101 -1.4849
 7506TIP3   OH244008   0.692   4.136   0.168 -0.4345  0.2822  0.6161
 7506TIP3    H144009   0.713   4.160   0.258  2.0848 -0.8377  0.3660
 7506TIP3    H244010   0.664   4.219   0.128 -2.1462  0.6813  2.5393
 7507TIP3   OH244011   6.028   0.552   2.265  0.4281 -0.3596 -0.9797
 7507TIP3    H144012   6.069   0.492   2.328 -1.8044 -1.6967 -0.7449
 7507TIP3    H244013   5.988   0.619   2.320 -0.7398 -1.0232 -1.0141
 7508TIP3   OH244014   2.041   4.579  12.448  0.0702  0.5757  0.0577
 7508TIP3    H144015   2.052   4.497  12.400 -2.2955 -0.1783  0.7801
 7508TIP3    H244016   2.048   4.554  12.540  0.6046  1.3843  0.2370
 7509TIP3   OH244017   2.970   0.265   2.775 -0.8116 -0.4293  0.1822
 7509TIP3    H144018   3.008   0.188   2.734  0.8525  0.0988  0.6846
 7509TIP3    H244019   2.971   0.245   2.869 -3.3602 -1.0883  0.1086
 7510TIP3   OH244020   2.052   6.207  15.625 -0.8583 -0.1632  0.3309
 7510TIP3    H144021   2.027   6.140  15.561 -2.6700  0.2823  0.5567
 7510TIP3    H244022   2.032   6.169  15.710  2.2044 -1.0318  0.7420
 7511TIP3   OH244023   3.436   4.719   6.507  0.3038  0.1794 -0.2674
 7511TIP3    H144024   3.426   4.632   6.469  0.7641  0.0402 -0.0746
 7511TIP3    H244025   3.348   4.745   6.532  0.2893 -0.6066  0.4975
 7512TIP3   OH244026   2.969   0.347  11.141  0.2985  0.0839 -0.2377
 7512TIP3    H144027   3.053   0.302  11.143 -0.6324 -1.6653 -0.0081
 7512TIP3    H244028   2.924   0.310  11.065  0.1495  1.7752 -0.9911
 7513TIP3   OH244029   1.831   6.247  16.331  0.6998  1.0400  0.5060
 7513TIP3    H144030   1.901   6.187  16.356  1.4610  1.6920 -0.0333
 7513TIP3    H244031   1.868   6.298  16.258 -1.1622 -0.2393 -1.4030
 7514TIP3   OH244032   6.568   5.990   0.451  0.0486 -0.0735  0.8783
 7514TIP3    H144033   6.562   5.905   0.494 -0.3998 -0.3999  0.1557
 7514TIP3    H244034   6.478   6.023   0.450 -0.1634 -0.6891 -1.0961
 7515TIP3   OH244035   6.312   6.376  15.269 -1.3523  0.4128 -0.5969
 7515TIP3    H144036   6.260   6.455  15.252 -0.4283  1.5460  1.6446
 7515TIP3    H244037   6.359   6.396  15.350 -1.1584 -2.4728  0.0353
 7516TIP3   OH244038   2.584   3.921  17.042  0.3846 -0.7038  0.1407
 7516TIP3    H144039   2.510   3.924  16.981  1.5615  1.8139 -1.2289
 7516TIP3    H244040   2.548   3.953  17.125 -0.0229  0.6561 -0.5581
 7517TIP3   OH244041   3.352   4.543  14.602 -0.5515  0.3368  0.2415
 7517TIP3    H144042   3.414   4.606  14.640 -1.7035  2.3575 -1.1485
 7517TIP3    H244043   3.408   4.482  14.554  0.6469 -0.1663  2.1989
 7518TIP3   OH244044   2.455   6.079   0.084 -0.4473  0.3536 -0.4653
 7518TIP3    H144045   2.534   6.122   0.117 -0.2795 -0.5384  0.3354
 7518TIP3    H244046   2.425   6.135   0.013 -0.3484  1.8933  0.6743
 7519TIP3   OH244047   0.766   0.484   0.404  0.0881  0.3898  0.5696
 7519TIP3    H144048   0.724   0.507   0.321 -0.1146 -0.1991  0.5039
 7519TIP3    H244049   0.737   0.395   0.421  0.9475  0.1443  0.7615
 7520TIP3   OH244050   0.066   3.949  13.556  0.5299  0.0235 -0.0028
 7520TIP3    H144051   0.130   3.986  13.617  0.5388  1.5181 -0.8816
 7520TIP3    H244052  -0.016   3.993  13.578  0.3965  0.0999 -0.6488
 7521TIP3   OH244053   0.523   2.282   4.580 -0.6464 -0.1673 -0.1567
 7521TIP3    H144054   0.514   2.226   4.503  1.4971 -1.5294  0.5283
 7521TIP3    H244055   0.440   2.274   4.625 -0.9622 -1.4886 -0.9400
 7522TIP3   OH244056   2.503   4.765   6.217 -0.0553 -0.2396 -0.2868
 7522TIP3    H144057   2.438   4.698   6.241 -1.9843  1.9290  0.7949
 7522TIP3    H244058   2.450   4.843   6.200  2.1836  1.1113 -1.1852
 7523TIP3   OH244059   3.209   1.420  14.131  0.4212  0.7191  0.0626
 7523TIP3    H144060   3.226   1.512  14.110  0.4643  0.6449 -0.2345
 7523TIP3    H244061   3.123   1.420  14.173  1.0944  1.0864  1.4777
 7524TIP3   OH244062   3.640   6.801  13.410 -0.2632  0.2594 -0.4482
 7524TIP3    H144063   3.625   6.894  13.426  1.3866  0.4799 -0.1656
 7524TIP3    H244064   3.714   6.779  13.466 -0.6793 -1.2494 -0.4697
 7525TIP3   OH244065   3.706   3.926   4.841 -0.2835  0.7575  0.0089
 7525TIP3    H144066   3.755   3.849   4.812 -1.2933  0.1276 -0.0529
 7525TIP3    H244067   3.664   3.959   4.762 -0.0975  1.1884  0.0908
 7526TIP3   OH244068   5.221   1.687  12.736  0.3262  0.0476 -0.2549
 7526TIP3    H144069   5.313   1.660  12.739  0.3733  0.3854  1.4639
 7526TIP3    H244070   5.185   1.660  12.821 -0.6297  1.8196 -0.0814
 7527TIP3   OH244071   3.272   6.015  14.221 -0.0199 -0.0696 -0.2357
 7527TIP3    H144072   3.195   5.974  14.261  0.4711 -0.8313 -0.0699
 7527TIP3    H244073   3.239   6.051  14.139 -0.5656 -0.3592 -0.1478
 7528TIP3   OH244074   3.589   1.386   4.788 -0.1011  0.5190  0.7161
 7528TIP3    H144075   3.542   1.304   4.808  0.3906 -0.3978 -1.7543
 7528TIP3    H244076   3.519   1.451   4.776 -0.5824  0.0017  0.6976
 7529TIP3   OH244077   2.902   1.088   6.368  0.5860 -0.2019 -0.5185
 7529TIP3    H144078   2.821   1.079   6.318 -0.7192  0.2769  1.4935
 7529TIP3    H244079   2.883   1.152   6.436  3.0572  0.9087 -0.7873
 7530TIP3   OH244080   2.072   0.187   0.039  0.2202  0.1286  0.1172
 7530TIP3    H144081   2.150   0.219  -0.007 -0.9286  2.8288 -0.0129
 7530TIP3    H244082   2.020   0.144  -0.030  0.3862  0.6268 -0.3251
 7531TIP3   OH244083   6.590   0.819   1.213 -0.6782 -0.1562 -0.3936
 7531TIP3    H144084   6.654   0.789   1.148 -2.7257  1.3824 -3.2710
 7531TIP3    H244085   6.620   0.907   1.236 -1.6814  0.5784 -1.7678
 7532TIP3   OH244086   3.407   0.534   1.781  0.6122 -0.1456 -0.0991
 7532TIP3    H144087   3.446   0.467   1.837  1.7610 -0.0166 -0.7508
 7532TIP3    H244088   3.476   0.598   1.768 -0.3282  0.9223  0.1034
 7533TIP3   OH244089   0.208   5.600   5.643 -0.1575 -0.0184 -0.0989
 7533TIP3    H144090   0.245   5.553   5.718  0.2104 -0.9602 -0.8757
 7533TIP3    H244091   0.117   5.572   5.639 -0.5598  1.0869  0.8309
 7534TIP3   OH244092   2.220   0.613  12.479 -0.1737  0.4239  0.0181
 7534TIP3    H144093   2.253   0.579  12.562  0.6852  0.8337 -0.1500
 7534TIP3    H244094   2.254   0.554  12.413 -0.0131  0.6842 -0.1327
 7535TIP3   OH244095   0.548   1.182   4.533 -0.1503 -0.2984  0.3955
 7535TIP3    H144096   0.553   1.277   4.519  0.0043 -0.3357  0.2048
 7535TIP3    H244097   0.635   1.150   4.513 -0.7017 -0.7290 -1.3990
 7536TIP3   OH244098   6.465   4.012  11.838 -0.1721  0.0195  0.2363
 7536TIP3    H144099   6.455   4.079  11.771  0.5274  0.1135  0.2167
 7536TIP3    H244100   6.484   4.060  11.918  0.2253 -0.1424  0.2422
 7537TIP3   OH244101   6.105   4.983   5.389  0.5199  0.4970  0.1161
 7537TIP3    H144102   6.089   4.915   5.454 -1.6687  0.5750 -0.3132
 7537TIP3    H244103   6.151   5.051   5.437  1.7330 -0.7871  0.8204
 7538TIP3   OH244104   0.829   5.699   5.867 -0.1013  0.2526  0.1581
 7538TIP3    H144105   0.859   5.761   5.801 -0.4438  0.6886  0.4084
 7538TIP3    H244106   0.770   5.640   5.819  1.6768 -1.0464 -0.4899
 7539TIP3   OH244107   4.894   3.555   5.853 -0.1947  0.0423 -0.6395
 7539TIP3    H144108   4.888   3.556   5.949  0.6410  1.3927 -0.5747
 7539TIP3    H244109   4.839   3.482   5.826 -2.4162  1.1319  0.7447
 7540TIP3   OH244110   3.164   3.800  10.768  0.0782 -0.2230 -0.6799
 7540TIP3    H144111   3.122   3.722  10.804  0.0162  0.3706  0.5643
 7540TIP3    H244112   3.121   3.813  10.684 -1.4528 -0.2773  0.0764
 7541TIP3   OH244113   1.702   1.009  12.344  0.0522 -0.2049  0.0540
 7541TIP3    H144114   1.711   1.036  12.435  3.0427 -1.2213  0.0860
 7541TIP3    H244115   1.687   0.914  12.348 -0.0207 -0.2220 -0.5103
 7542TIP3   OH244116   4.132   4.099  16.748 -0.1821 -0.6750  0.1713
 7542TIP3    H144117   4.098   4.038  16.813  0.1393 -2.4378 -1.2405
 7542TIP3    H244118   4.201   4.049  16.703  0.4429  0.9225 -0.6745
 7543TIP3   OH244119   0.165   0.780  12.030  0.0898  0.1297 -0.3002
 7543TIP3    H144120   0.080   0.792  12.071  0.6648  0.7004  0.7562
 7543TIP3    H244121   0.165   0.689  12.000 -1.2943  0.4395 -1.2601
 7544TIP3   OH244122   5.703   4.765   1.608 -0.8789 -0.6886 -0.2805
 7544TIP3    H144123   5.660   4.812   1.537  0.6976 -0.2560 -0.9812
 7544TIP3    H244124   5.747   4.691   1.565  2.0967  0.9244 -0.1749
 7545TIP3   OH244125   1.895   2.267   3.342 -0.2476  0.0150  0.0498
 7545TIP3    H144126   1.978   2.315   3.347  0.8928 -2.0931  2.6578
 7545TIP3    H244127   1.833   2.322   3.390 -0.0273  0.9022 -0.6546
 7546TIP3   OH244128   1.399   6.795   0.331  0.6745 -0.1584 -0.3967
 7546TIP3    H144129   1.472   6.736   0.347  2.3814  2.1938  0.9201
 7546TIP3    H244130   1.338   6.778   0.402  0.5787 -1.1611 -0.7126
 7547TIP3   OH244131   6.669   5.407  16.560 -0.1641 -0.3802  0.0829
 7547TIP3    H144132   6.745   5.405  16.501  0.2148 -0.4255  0.5665
 7547TIP3    H244133   6.615   5.333  16.533 -0.8956  0.6636 -1.3823
 7548TIP3   OH244134   2.565   1.294  15.085 -0.3573 -1.2057  0.3360
 7548TIP3    H144135   2.492   1.352  15.106  0.5773  0.0044  0.3061
 7548TIP3    H244136   2.527   1.228  15.026 -1.6156 -1.1114  1.0202
 7549TIP3   OH244137   4.460   1.217  14.214 -0.2783 -0.4827 -0.3349
 7549TIP3    H144138   4.406   1.281  14.260 -0.5169 -0.5909 -0.4622
 7549TIP3    H244139   4.418   1.133  14.232  1.2040 -0.8541  1.5244
 7550TIP3   OH244140   2.350   4.515  13.015  0.0253 -0.0253 -0.1725
 7550TIP3    H144141   2.276   4.573  13.034 -0.1465  0.1041 -1.1809
 7550TIP3    H244142   2.319   4.461  12.942  0.8305 -0.1613 -0.4202
 7551TIP3   OH244143   0.646   2.312   2.110 -0.1868 -0.4769  0.1419
 7551TIP3    H144144   0.733   2.322   2.071 -0.1778 -0.4953  0.1571
 7551TIP3    H244145   0.663   2.283   2.200 -0.1790  0.5672  0.4775
 7552TIP3   OH244146   1.502   4.060  15.607  0.0364 -0.2617  0.1672
 7552TIP3    H144147   1.448   4.027  15.679  0.3564  0.7082  0.8657
 7552TIP3    H244148   1.517   4.152  15.629 -0.2068  0.1532 -1.3616
 7553TIP3   OH244149   5.418   0.058   3.809  0.0280  0.6566 -0.2414
 7553TIP3    H144150   5.477   0.078   3.736 -1.2918  0.2257 -1.4426
 7553TIP3    H244151   5.335   0.037   3.768 -0.8107  0.6410  1.4120
 7554TIP3   OH244152   6.648   1.359  11.457  0.0701 -0.5767  0.1203
 7554TIP3    H144153   6.638   1.303  11.380 -2.0138  1.1303 -0.8846
 7554TIP3    H244154   6.630   1.447  11.425  2.0989  0.5566  1.9444
 7555TIP3   OH244155   2.833   2.930  12.862  0.4082  0.1358  0.8911
 7555TIP3    H144156   2.757   2.931  12.921 -0.9231  1.2273 -0.8003
 7555TIP3    H244157   2.909   2.940  12.920 -0.5697 -2.9789  2.7947
 7556TIP3   OH244158   2.296   2.757   3.606  0.7905  0.5146 -0.5153
 7556TIP3    H144159   2.388   2.780   3.614  1.0488 -0.3922 -0.8048
 7556TIP3    H244160   2.280   2.753   3.512  1.1826 -2.1059 -0.4967
 7557TIP3   OH244161   2.015   5.135   3.717 -0.7236  0.5519 -1.1827
 7557TIP3    H144162   2.025   5.220   3.674  1.5353  1.4047  0.8865
 7557TIP3    H244163   2.096   5.088   3.695 -0.3818  0.2997  0.5451
 7558TIP3   OH244164   1.243   1.614   0.546  0.1576 -0.0435 -0.0460
 7558TIP3    H144165   1.186   1.612   0.470  1.9863 -2.5680 -1.4129
 7558TIP3    H244166   1.218   1.537   0.597  1.2846 -0.2977  0.1346
 7559TIP3   OH244167   3.098   1.335   2.272  0.2946 -0.1085 -0.1273
 7559TIP3    H144168   3.143   1.254   2.297  0.6407  0.3850  0.8966
 7559TIP3    H244169   3.007   1.309   2.257  0.1184 -0.4760  1.4708
 7560TIP3   OH244170   4.676   3.384   1.491  0.3578  0.4310 -0.2170
 7560TIP3    H144171   4.762   3.405   1.528  0.6050 -1.3623  0.2488
 7560TIP3    H244172   4.677   3.425   1.404  1.7036  0.3706 -0.2454
 7561TIP3   OH244173   0.849   3.800  13.164 -0.2437 -0.1970 -0.2979
 7561TIP3    H144174   0.893   3.861  13.223  0.3610  0.1328 -1.0759
 7561TIP3    H244175   0.756   3.823  13.171 -0.1719 -0.1747  0.5375
 7562TIP3   OH244176   0.571   4.032  13.666 -0.3455  0.4133  0.7603
 7562TIP3    H144177   0.586   3.954  13.719 -1.1872  0.0715  0.4950
 7562TIP3    H244178   0.531   4.000  13.585  1.2439  0.9045 -0.2436
 7563TIP3   OH244179   2.675   4.343   4.895 -0.3096 -0.3595 -0.1905
 7563TIP3    H144180   2.647   4.434   4.891 -2.7835 -1.1155 -0.7517
 7563TIP3    H244181   2.700   4.322   4.805  1.8753  0.2269  0.2530
 7564TIP3   OH244182   6.812   4.296   2.523  0.2279 -0.0301 -0.4127
 7564TIP3    H144183   6.744   4.301   2.591  0.6286  0.0878 -0.0210
 7564TIP3    H244184   6.890   4.266   2.569  0.8157  1.2067 -0.5902
 7565TIP3   OH244185   5.476   3.260  13.879  0.0165  0.2756  0.3954
 7565TIP3    H144186   5.509   3.227  13.963  0.6021 -0.0045  0.0513
 7565TIP3    H244187   5.442   3.182  13.835 -0.0021  0.3745  0.2356
 7566TIP3   OH244188   0.040   2.631   4.949 -0.2101 -0.1833  0.1040
 7566TIP3    H144189   0.049   2.711   4.897 -1.6016  0.1999  0.4253
 7566TIP3    H244190   0.055   2.658   5.039 -0.5139 -0.3070  0.1937
 7567TIP3   OH244191   6.260   6.577   5.169  0.2314  0.4054  0.4481
 7567TIP3    H144192   6.313   6.497   5.170 -0.6845 -0.2123 -0.3608
 7567TIP3    H244193   6.301   6.633   5.236  0.3253 -1.0986  1.6864
 7568TIP3   OH244194   4.493   1.442  15.794  0.0004 -0.3696  0.0869
 7568TIP3    H144195   4.548   1.441  15.872  0.3435 -3.7337 -0.1356
 7568TIP3    H244196   4.555   1.433  15.721 -0.3524  2.3413 -0.6037
 7569TIP3   OH244197   2.668   1.711   5.719  0.6417 -0.1270  0.0292
 7569TIP3    H144198   2.615   1.781   5.757 -1.5446 -0.9257 -1.4237
 7569TIP3    H244199   2.673   1.733   5.626  0.1145 -1.7642 -0.4015
 7570TIP3   OH244200   1.056   5.065  14.294  0.7236  0.4957  0.1941
 7570TIP3    H144201   1.031   5.155  14.313 -0.5409 -0.0844  1.3188
 7570TIP3    H244202   1.030   5.052  14.202 -0.7754  0.7280  0.5626
 7571TIP3   OH244203   5.995   6.112  13.089  0.1431  0.8199 -0.4501
 7571TIP3    H144204   5.998   6.034  13.144 -1.8437 -1.0160 -2.8044
 7571TIP3    H244205   5.906   6.146  13.101  1.0555  2.8786  0.7081
 7572TIP3   OH244206   3.550   6.283   3.327 -0.6077  0.0698 -0.1112
 7572TIP3    H144207   3.456   6.265   3.332 -0.7426  0.4371 -1.2531
 7572TIP3    H244208   3.584   6.215   3.267 -0.2530  0.3265 -0.2020
 7573TIP3   OH244209   0.314   6.416  12.374 -0.1658  0.7220 -0.1177
 7573TIP3    H144210   0.229   6.452  12.399 -0.1067  0.3231  0.6719
 7573TIP3    H244211   0.330   6.451  12.287 -0.8424  1.3202 -0.0069
 7574TIP3   OH244212   1.644   2.481   1.261  0.2639 -0.5282 -0.3052
 7574TIP3    H144213   1.618   2.572   1.280 -1.6930 -1.0145 -0.5759
 7574TIP3    H244214   1.616   2.432   1.338  1.7952 -0.8446  0.0666
 7575TIP3   OH244215   6.350   4.680  13.497 -0.0976 -0.0203  0.1502
 7575TIP3    H144216   6.421   4.617  13.490 -0.2961 -0.1926 -0.2748
 7575TIP3    H244217   6.291   4.642  13.563 -0.1938 -0.2599 -0.0715
 7576TIP3   OH244218   4.684   4.549  17.006 -0.0366  0.2563 -0.3638
 7576TIP3    H144219   4.658   4.532  16.915 -2.9623  1.0163  0.3043
 7576TIP3    H244220   4.765   4.600  16.998 -0.0949  0.0860 -2.5275
 7577TIP3   OH244221   3.013   5.819  13.908  0.0083  0.7787 -0.2447
 7577TIP3    H144222   3.035   5.728  13.929  0.3834  0.8200 -0.4521
 7577TIP3    H244223   2.954   5.846  13.978 -0.7194  0.1326 -0.6020
 7578TIP3   OH244224   1.429   5.463   2.283 -0.8554  0.0580  0.6169
 7578TIP3    H144225   1.353   5.505   2.323 -2.2306  2.1048 -3.8488
 7578TIP3    H244226   1.400   5.375   2.261 -1.9309  0.7758 -0.9024
 7579TIP3   OH244227   5.259   0.250  14.685  0.3947 -0.4728  0.0232
 7579TIP3    H144228   5.340   0.289  14.719  0.9157 -1.9724  0.5285
 7579TIP3    H244229   5.200   0.248  14.760 -0.0984  0.5153 -0.3186
 7580TIP3   OH244230   0.779   2.671  13.365 -0.0085  0.1683 -0.2300
 7580TIP3    H144231   0.736   2.703  13.286 -1.4261 -0.0916  0.4192
 7580TIP3    H244232   0.732   2.590  13.387  0.4128  0.2049  0.8410
 7581TIP3   OH244233   1.661   5.404  12.252 -0.5971  0.2050  0.2946
 7581TIP3    H144234   1.658   5.429  12.160 -0.3925  0.4740  0.3596
 7581TIP3    H244235   1.730   5.337  12.256 -0.5657  0.2348  0.2596
 7582TIP3   OH244236   3.543   5.823   4.579  0.1558 -0.2377 -0.1261
 7582TIP3    H144237   3.579   5.839   4.666  0.2821 -0.6939 -0.0948
 7582TIP3    H244238   3.448   5.824   4.592  0.1912 -1.4980  0.2292
 7583TIP3   OH244239   3.998   6.602   1.202  0.1155 -0.5018 -0.3019
 7583TIP3    H144240   3.943   6.604   1.124 -1.0997  0.5919  0.5559
 7583TIP3    H244241   3.975   6.520   1.246  0.1670 -0.7042 -0.6577
 7584TIP3   OH244242   1.153   2.597   1.323 -0.1376  0.1081  0.0662
 7584TIP3    H144243   1.152   2.693   1.318 -0.5576  0.0410 -1.2975
 7584TIP3    H244244   1.074   2.570   1.277 -0.4092 -0.8689  1.1124
 7585TIP3   OH244245   4.239   4.586   3.564 -0.1424  0.3324  0.3952
 7585TIP3    H144246   4.223   4.671   3.521 -1.0587 -0.5313 -0.9984
 7585TIP3    H244247   4.334   4.577   3.564 -0.1010  0.7037 -0.7537
 7586TIP3   OH244248   5.479   5.394  17.131 -0.2050  0.2152 -0.3415
 7586TIP3    H144249   5.461   5.424  17.220  0.3314 -0.3650 -0.0376
 7586TIP3    H244250   5.521   5.309  17.142 -0.6443 -0.1152 -1.1677
 7587TIP3   OH244251   5.268   3.667  11.036  0.1495  0.0522  0.0634
 7587TIP3    H144252   5.206   3.651  10.965 -0.0296  0.0276  0.2240
 7587TIP3    H244253   5.295   3.580  11.066 -0.1833  0.0554  0.3801
 7588TIP3   OH244254   5.441   1.851   4.341  0.4501 -0.3045 -0.3973
 7588TIP3    H144255   5.372   1.903   4.382  0.2293  0.0899 -1.2426
 7588TIP3    H244256   5.480   1.801   4.412 -0.5518 -0.3428  0.1301
 7589TIP3   OH244257   5.206   4.798   5.880 -0.3944 -0.8382  0.1552
 7589TIP3    H144258   5.140   4.735   5.851 -0.4605 -0.1760 -1.1601
 7589TIP3    H244259   5.266   4.807   5.806  1.1983 -1.4272  1.3309
 7590TIP3   OH244260   2.521   0.741  12.744 -0.1818 -0.4400 -0.2239
 7590TIP3    H144261   2.560   0.663  12.785  1.6417  0.3033 -0.4933
 7590TIP3    H244262   2.521   0.721  12.650 -0.8907 -0.6223 -0.1880
 7591TIP3   OH244263   2.144   6.594  12.272 -0.3416 -1.0961 -0.1490
 7591TIP3    H144264   2.204   6.594  12.346  0.3646 -1.4988 -0.7265
 7591TIP3    H244265   2.119   6.502  12.260 -0.0822 -1.0948 -0.7137
 7592TIP3   OH244266   4.544   0.166   6.121 -0.2806  0.2888 -0.0607
 7592TIP3    H144267   4.623   0.173   6.068  1.2213 -1.0440  1.8998
 7592TIP3    H244268   4.516   0.256   6.134  0.8106  0.7690 -0.9474
 7593TIP3   OH244269   5.032   2.361  13.238 -0.3534  0.2416 -0.4120
 7593TIP3    H144270   5.035   2.267  13.251 -1.7258  0.5902  2.9386
 7593TIP3    H244271   5.103   2.395  13.292 -2.5407  1.3929  1.8368
 7594TIP3   OH244272   0.534   4.391  14.483 -0.1972 -0.4348  0.5195
 7594TIP3    H144273   0.622   4.405  14.516  0.2358 -1.6896 -0.0646
 7594TIP3    H244274   0.508   4.475  14.446  0.6322  0.0211  0.9582
 7595TIP3   OH244275   6.690   4.806   3.493 -0.1830 -0.3432  0.5448
 7595TIP3    H144276   6.607   4.776   3.530 -0.3472  0.0508  0.4997
 7595TIP3    H244277   6.670   4.893   3.458 -0.3022 -1.0986 -1.3592
 7596TIP3   OH244278   2.995   0.453  10.764 -0.6800  0.0078 -0.3438
 7596TIP3    H144279   2.919   0.398  10.745 -1.1602  0.7787 -0.6371
 7596TIP3    H244280   3.070   0.393  10.755 -1.0699 -0.2203 -2.3497
 7597TIP3   OH244281   0.575   2.486   6.075  0.1558 -0.1493  0.0798
 7597TIP3    H144282   0.670   2.494   6.078  0.4901 -2.8570 -1.5158
 7597TIP3    H244283   0.550   2.456   6.162  0.7901  0.0828  0.3433
 7598TIP3   OH244284   3.934   6.177   0.519  0.0873  0.0410  0.1433
 7598TIP3    H144285   3.907   6.267   0.539 -1.4130 -0.5436  0.8401
 7598TIP3    H244286   3.996   6.155   0.589 -0.7789 -0.0123  0.9106
 7599TIP3   OH244287   0.538   6.543  12.687 -0.2645 -0.1591 -0.3788
 7599TIP3    H144288   0.590   6.606  12.637  0.1389 -0.8471 -0.8315
 7599TIP3    H244289   0.602   6.484  12.726 -0.7353 -1.6724 -1.8230
 7600TIP3   OH244290   0.451   3.182   0.371  0.3510 -0.8247 -0.4305
 7600TIP3    H144291   0.369   3.209   0.331 -0.5830  0.2777  2.0889
 7600TIP3    H244292   0.449   3.086   0.370 -0.7704 -0.7974 -0.7513
 7601TIP3   OH244293   0.455   4.268  12.301 -0.0500  0.5970  0.2341
 7601TIP3    H144294   0.418   4.298  12.384  0.7998 -0.2887  0.9503
 7601TIP3    H244295   0.548   4.290  12.306  0.1224 -0.0027 -0.2220
 7602TIP3   OH244296   5.283   3.944  15.023  0.6027 -0.0109 -0.6329
 7602TIP3    H144297   5.335   3.970  15.099 -1.1745  0.0210  0.6245
 7602TIP3    H244298   5.315   3.857  15.000 -1.0959 -1.5342  2.3549
 7603TIP3   OH244299   1.846   1.110   1.331  0.1252  0.2123 -0.4762
 7603TIP3    H144300   1.897   1.030   1.318  0.3435  0.3489 -0.4681
 7603TIP3    H244301   1.886   1.174   1.271  2.3015  1.3726  2.0990
 7604TIP3   OH244302   5.786   5.315   4.254 -0.3364 -0.2354  0.3121
 7604TIP3    H144303   5.809   5.252   4.322  1.2726  0.1191  0.1193
 7604TIP3    H244304   5.797   5.268   4.172  0.9957  0.3246  0.1621
 7605TIP3   OH244305   4.193   6.124   0.879 -0.1452 -0.1321  0.1694
 7605TIP3    H144306   4.212   6.135   0.786 -0.6851 -0.8937 -0.0329
 7605TIP3    H244307   4.239   6.044   0.903 -0.4314 -0.2131  0.4444
 7606TIP3   OH244308   3.383   6.622   6.169 -0.2454  0.2956 -0.1875
 7606TIP3    H144309   3.393   6.714   6.145  0.8045  0.2633  0.1239
 7606TIP3    H244310   3.291   6.614   6.195  0.2073  1.7452  1.9479
 7607TIP3   OH244311   3.174   6.198  13.714  0.5765 -0.3499  0.0108
 7607TIP3    H144312   3.204   6.108  13.726 -2.4232 -1.3858  0.1515
 7607TIP3    H244313   3.185   6.216  13.621  1.4654 -0.7406  0.0393
 7608TIP3   OH244314   5.353   2.909   1.657 -0.2930 -0.4827  0.1956
 7608TIP3    H144315   5.427   2.893   1.716 -0.4276 -0.1115  0.4707
 7608TIP3    H244316   5.337   2.825   1.615  0.3654 -0.5407  0.0466
 7609TIP3   OH244317   4.785   3.764  14.265 -0.5784  0.8813 -0.3057
 7609TIP3    H144318   4.809   3.681  14.225  4.9676  1.8325  0.6657
 7609TIP3    H244319   4.746   3.815  14.194  0.2465 -0.8672 -2.0407
 7610TIP3   OH244320   2.212   5.907   3.949  0.6092  0.6461 -0.1136
 7610TIP3    H144321   2.188   5.883   3.859  0.8787  1.0485 -0.2961
 7610TIP3    H244322   2.242   5.825   3.988  0.2782  0.4254 -0.3249
 7611TIP3   OH244323   5.422   3.743  13.686 -0.4329 -0.5110 -0.3203
 7611TIP3    H144324   5.349   3.726  13.746 -0.5436  1.3441  0.0750
 7611TIP3    H244325   5.411   3.677  13.617 -0.7310 -2.2008  1.2799
 7612TIP3   OH244326   2.821   2.523  16.234 -0.1262 -0.1355  0.1524
 7612TIP3    H144327   2.842   2.591  16.171 -0.4648 -0.2113 -0.0417
 7612TIP3    H244328   2.789   2.450  16.182  0.3643 -0.4970  0.3537
 7613TIP3   OH244329   3.208   4.719  17.160 -0.1064 -0.3224 -0.3199
 7613TIP3    H144330   3.253   4.664  17.096 -1.2448  0.4159 -1.7825
 7613TIP3    H244331   3.278   4.755  17.214  1.0019  0.2700 -2.1176
 7614TIP3   OH244332   5.107   2.706   1.948 -0.9168 -0.1971  0.4712
 7614TIP3    H144333   5.128   2.630   2.002 -1.6047  0.2335  1.3382
 7614TIP3    H244334   5.156   2.692   1.867 -1.6099 -1.9186  0.3450
 7615TIP3   OH244335   0.315   5.577  12.404  0.0223  0.1686  0.1988
 7615TIP3    H144336   0.271   5.579  12.488  0.3463  0.4195  0.3633
 7615TIP3    H244337   0.364   5.659  12.400 -0.0711  0.2077 -0.2748
 7616TIP3   OH244338   3.920   5.161  10.813  0.1233 -0.0269  0.0097
 7616TIP3    H144339   3.905   5.085  10.756  0.4765 -0.1423  0.0709
 7616TIP3    H244340   3.832   5.196  10.829  0.0374  0.1254 -0.7751
 7617TIP3   OH244341   4.663   1.596   6.635 -0.2586  0.0880 -0.4814
 7617TIP3    H144342   4.639   1.639   6.717  0.7865  0.3127 -0.2778
 7617TIP3    H244343   4.589   1.539   6.614  0.2439 -1.4127  1.6218
 7618TIP3   OH244344   1.105   1.841   2.332 -0.1954 -0.1497  0.2904
 7618TIP3    H144345   1.119   1.907   2.400  0.1917  0.4236 -0.3355
 7618TIP3    H244346   1.099   1.759   2.380 -1.3542  0.4158  1.1405
 7619TIP3   OH244347   3.091   1.866  11.178 -0.0586 -0.4495 -0.1514
 7619TIP3    H144348   3.018   1.806  11.195 -1.1058  0.5485 -1.0457
 7619TIP3    H244349   3.124   1.839  11.092 -1.4379  1.1359 -1.1985
 7620TIP3   OH244350   2.988   6.178  13.372  0.4489 -0.3750 -0.5181
 7620TIP3    H144351   3.046   6.227  13.429  0.7342 -0.0794 -1.0641
 7620TIP3    H244352   2.972   6.096  13.419 -0.8230  0.6250  0.8523
 7621TIP3   OH244353   4.973   6.391  11.988  0.4038  0.1430  0.0631
 7621TIP3    H144354   5.042   6.370  11.926  1.5665  0.8777  1.0873
 7621TIP3    H244355   4.983   6.326  12.058 -1.0333 -0.8158 -0.6040
 7622TIP3   OH244356   2.831   4.116  13.513 -0.6612 -0.2538 -0.4465
 7622TIP3    H144357   2.916   4.079  13.538 -0.6290 -0.8714 -1.4358
 7622TIP3    H244358   2.833   4.206  13.547 -0.2881 -0.7908  0.9771
 7623TIP3   OH244359   5.260   0.930   5.136  0.3056 -0.2812  0.1305
 7623TIP3    H144360   5.250   1.024   5.145  0.2138 -0.1620 -1.1889
 7623TIP3    H244361   5.353   0.914   5.150  0.6868  0.2545 -1.7487
 7624TIP3   OH244362   3.138   2.551  15.734 -0.2045  0.7103  0.7171
 7624TIP3    H144363   3.185   2.561  15.817  0.2456 -1.6931  0.7649
 7624TIP3    H244364   3.200   2.582  15.667  0.5718 -0.2038  1.0018
 7625TIP3   OH244365   4.912   4.032   3.660 -0.1634 -0.0220 -0.0538
 7625TIP3    H144366   4.917   4.021   3.755  1.9914 -0.1923 -0.1663
 7625TIP3    H244367   4.907   3.942   3.626  0.5435 -0.0180 -0.1692
 7626TIP3   OH244368   6.073   0.492  16.279 -0.3496  0.8267 -0.2508
 7626TIP3    H144369   6.135   0.429  16.245  1.1619  3.2344 -2.1008
 7626TIP3    H244370   5.987   0.458  16.253  0.1437 -2.1172  1.6712
 7627TIP3   OH244371   6.784   3.430   2.062  0.2512 -0.3388  0.3373
 7627TIP3    H144372   6.836   3.497   2.107  1.3199  0.6697 -2.2936
 7627TIP3    H244373   6.849   3.378   2.014 -1.0815  1.0695 -3.1786
 7628TIP3   OH244374   0.925   4.627   5.554 -0.1755  1.1255 -0.1003
 7628TIP3    H144375   0.850   4.630   5.494 -0.0827  0.8711 -0.2298
 7628TIP3    H244376   0.988   4.688   5.516  0.6111 -0.3653 -1.2540
 7629TIP3   OH244377   1.323   1.772   1.658 -0.5947 -1.0615 -0.1644
 7629TIP3    H144378   1.344   1.866   1.659 -1.2357 -0.9076 -0.8666
 7629TIP3    H244379   1.365   1.738   1.737  0.0783 -0.2759 -0.1659
 7630TIP3   OH244380   6.726   4.753   4.792  0.1986 -0.3116 -0.2344
 7630TIP3    H144381   6.753   4.813   4.862 -2.0665 -0.8179  1.1526
 7630TIP3    H244382   6.780   4.777   4.717  0.7697  2.0930  0.8965
 7631TIP3   OH244383   2.297   4.074   2.422  0.6685  0.5681 -0.2886
 7631TIP3    H144384   2.304   4.168   2.407 -0.0669  0.7695  0.6074
 7631TIP3    H244385   2.223   4.064   2.482  1.1416 -0.5221  0.1418
 7632TIP3   OH244386   3.409   5.382   2.536 -0.1935  0.8621 -0.3340
 7632TIP3    H144387   3.320   5.404   2.561 -0.0859 -1.0363  1.8414
 7632TIP3    H244388   3.464   5.434   2.595  0.1750  1.8082 -1.4781
 7633TIP3   OH244389   0.640   5.462   1.456  0.4480 -0.0037 -0.9610
 7633TIP3    H144390   0.726   5.491   1.424  0.9942  0.6065  0.9913
 7633TIP3    H244391   0.603   5.539   1.498 -0.0002 -0.9206  0.3676
 7634TIP3   OH244392   1.346   5.061  15.981 -0.3713 -0.3414  0.1524
 7634TIP3    H144393   1.361   5.013  15.900  1.9263  0.2862  0.1594
 7634TIP3    H244394   1.312   4.995  16.042 -0.0108 -1.3155 -0.6762
 7635TIP3   OH244395   4.041   1.016  13.891 -0.3479 -0.0385  0.5549
 7635TIP3    H144396   3.984   0.939  13.900 -0.8351  0.3540  0.8468
 7635TIP3    H244397   4.057   1.023  13.797 -0.3083 -0.4935  0.5239
 7636TIP3   OH244398   4.777   4.281   3.772  0.6264  0.0314 -0.0301
 7636TIP3    H144399   4.811   4.355   3.721  0.7653  1.0217  1.4636
 7636TIP3    H244400   4.695   4.258   3.729 -0.7190  2.7407  1.0009
 7637TIP3   OH244401   1.030   3.772  16.928 -0.3642 -0.4696  0.1184
 7637TIP3    H144402   1.092   3.762  16.999 -0.6201  0.9022  0.5310
 7637TIP3    H244403   1.057   3.851  16.882 -2.3326  0.6581  0.8454
 7638TIP3   OH244404   0.914   5.107  16.413 -0.1118 -0.0540  0.1794
 7638TIP3    H144405   0.956   5.166  16.476  0.2965 -0.1997  0.0448
 7638TIP3    H244406   0.889   5.164  16.340  1.1029 -0.1857 -0.3566
 7639TIP3   OH244407   2.627   0.180  13.626 -0.4819  0.4038  0.4702
 7639TIP3    H144408   2.679   0.180  13.545 -1.8178 -0.3029 -0.4140
 7639TIP3    H244409   2.644   0.266  13.665  0.9218  0.3832 -0.0736
 7640TIP3   OH244410   4.634   1.270  13.383  0.2497 -0.0201  0.4355
 7640TIP3    H144411   4.610   1.183  13.417  0.7300  0.8985  3.3083
 7640TIP3    H244412   4.551   1.318  13.383  0.1933 -0.1196  0.0011
 7641TIP3   OH244413   2.469   0.260  11.977 -0.0065 -0.3431 -0.5884
 7641TIP3    H144414   2.406   0.323  11.941  0.2108  0.0623 -0.2602
 7641TIP3    H244415   2.546   0.268  11.920 -0.4492 -1.2484 -1.3399
 7642TIP3   OH244416   0.166   3.342   0.725 -0.1615 -0.1730  0.5241
 7642TIP3    H144417   0.222   3.304   0.793 -0.0735 -0.7777  0.1284
 7642TIP3    H244418   0.114   3.409   0.770  1.0011  0.5119  0.8637
 7643TIP3   OH244419   0.798   1.664   4.059 -0.5197  0.4694  0.3014
 7643TIP3    H144420   0.812   1.661   3.965 -0.1481  2.5434  0.2804
 7643TIP3    H244421   0.703   1.678   4.069 -0.0432  4.1846  0.1383
 7644TIP3   OH244422   5.268   0.782  16.790  0.6410  0.1935  0.7215
 7644TIP3    H144423   5.300   0.847  16.853  0.2797  0.5736  0.5233
 7644TIP3    H244424   5.344   0.729  16.768  1.2232  1.3089 -0.0202
 7645TIP3   OH244425   1.489   2.418  16.974  0.1481  0.0429 -0.0059
 7645TIP3    H144426   1.416   2.355  16.973  1.0690 -1.0351 -0.9241
 7645TIP3    H244427   1.472   2.474  16.899  0.3520 -0.3174 -0.3219
 7646TIP3   OH244428   0.997   5.809   1.837 -0.3203  0.1131 -0.2511
 7646TIP3    H144429   1.036   5.813   1.925 -0.1817  0.0640 -0.3106
 7646TIP3    H244430   1.049   5.870   1.785  0.5628 -0.9741 -0.6739
 7647TIP3   OH244431   3.300   1.896  16.434 -0.2119 -0.2761 -0.3518
 7647TIP3    H144432   3.214   1.937  16.438  0.5930  1.4463 -0.4813
 7647TIP3    H244433   3.362   1.968  16.440  1.2563 -1.6394  1.4182
 7648TIP3   OH244434   5.703   0.512   4.957 -0.2684 -0.1820  0.3039
 7648TIP3    H144435   5.699   0.606   4.975  3.1805  0.2929 -0.9747
 7648TIP3    H244436   5.633   0.474   5.009 -1.7630  3.1176  0.7871
 7649TIP3   OH244437   1.753   0.560  13.306 -0.0642 -0.0934  0.2167
 7649TIP3    H144438   1.731   0.640  13.356 -1.1671  0.6446 -1.3923
 7649TIP3    H244439   1.673   0.508  13.310  1.0374 -1.7075  2.2707
 7650TIP3   OH244440   0.718   0.980   4.970 -0.1285 -0.2403 -0.7127
 7650TIP3    H144441   0.648   1.037   4.939 -0.3105 -1.7442 -3.1853
 7650TIP3    H244442   0.672   0.903   5.005  0.2123 -0.3633 -0.5340
 7651TIP3   OH244443   2.781   1.332  14.042 -0.4904 -0.1035 -0.3408
 7651TIP3    H144444   2.820   1.323  13.954  1.7657 -1.3192  0.7367
 7651TIP3    H244445   2.849   1.376  14.093 -2.4500  2.1259  0.3931
 7652TIP3   OH244446   0.640   5.356  15.605 -0.1005  0.2382  0.3952
 7652TIP3    H144447   0.692   5.436  15.615 -1.0604  1.1254 -1.4887
 7652TIP3    H244448   0.574   5.363  15.673  1.2739 -0.1278  1.7925
 7653TIP3   OH244449   1.100   1.219   2.099  0.1182  0.1349  0.1383
 7653TIP3    H144450   1.190   1.208   2.131  0.2973  0.9374 -0.0891
 7653TIP3    H244451   1.090   1.150   2.034  0.9813  0.7933 -0.7142
 7654TIP3   OH244452   6.485   6.275   0.773 -0.4200  0.0192 -0.2292
 7654TIP3    H144453   6.502   6.368   0.756  1.6455 -0.4500 -0.9008
 7654TIP3    H244454   6.410   6.253   0.718  0.0909  0.9033 -1.2900
 7655TIP3   OH244455   0.882   6.791  14.113 -0.1441 -0.0934 -0.1039
 7655TIP3    H144456   0.925   6.706  14.112 -1.5424 -0.8059  0.2131
 7655TIP3    H244457   0.955   6.854  14.108  0.7675 -1.2868 -3.5600
 7656TIP3   OH244458   0.425   6.243   0.186  0.2169 -0.3195 -0.0030
 7656TIP3    H144459   0.507   6.207   0.153  0.2582  0.6896 -1.0567
 7656TIP3    H244460   0.357   6.196   0.137  0.2337  0.1728 -0.5061
 7657TIP3   OH244461   0.892   1.386   1.323  0.0264  0.1295  0.5918
 7657TIP3    H144462   0.903   1.312   1.263 -1.5053 -0.9801  1.6443
 7657TIP3    H244463   0.977   1.430   1.322  0.6572 -1.0686 -0.8032
 7658TIP3   OH244464   4.277   3.468  17.023 -0.2639 -0.3576  0.3540
 7658TIP3    H144465   4.339   3.398  17.002  2.0023  1.6345  0.1020
 7658TIP3    H244466   4.223   3.433  17.093  0.8566 -2.3447  0.2540
 7659TIP3   OH244467   4.534   0.657   1.723 -0.2694  0.3552 -0.1930
 7659TIP3    H144468   4.554   0.691   1.810 -2.3819 -1.7505  1.1834
 7659TIP3    H244469   4.594   0.583   1.713  0.1435  0.7511 -0.6275
 7660TIP3   OH244470   1.553   0.219   2.693 -0.0482 -0.2775 -0.1961
 7660TIP3    H144471   1.518   0.272   2.621  1.2772  0.6296 -0.1922
 7660TIP3    H244472   1.643   0.201   2.667  0.3502 -0.1995  1.1024
 7661TIP3   OH244473   1.412   3.188  11.731  0.2606 -0.4600 -0.5085
 7661TIP3    H144474   1.362   3.122  11.682  0.3491 -0.9054 -0.0051
 7661TIP3    H244475   1.434   3.145  11.813 -0.3360  0.4651  0.1420
 7662TIP3   OH244476   1.547   2.542  11.412  0.0924  0.0779 -0.3833
 7662TIP3    H144477   1.457   2.572  11.428 -0.0924 -1.6004  1.9355
 7662TIP3    H244478   1.543   2.503  11.324 -0.2691  4.2522 -2.3519
 7663TIP3   OH244479   6.023   2.183  12.740 -0.5673 -0.1352  0.4541
 7663TIP3    H144480   5.960   2.211  12.807  1.8125  1.4280  2.1473
 7663TIP3    H244481   6.101   2.158  12.789  0.0314 -2.3869 -1.5688
 7664TIP3   OH244482   5.088   1.477  12.131 -0.6120 -0.2948  0.2796
 7664TIP3    H144483   4.996   1.466  12.107 -0.0848 -0.3404 -1.8000
 7664TIP3    H244484   5.131   1.399  12.096  0.2456 -0.2407  1.1927
 7665TIP3   OH244485   2.759   4.778   0.616  0.2893  0.5804  0.3168
 7665TIP3    H144486   2.830   4.764   0.679  1.4118  3.8101 -0.1256
 7665TIP3    H244487   2.684   4.806   0.670  0.4797  0.8327  0.4502
 7666TIP3   OH244488   1.598   6.181   3.411  0.2508 -0.3403  0.3286
 7666TIP3    H144489   1.566   6.097   3.379  1.0444 -0.6789  0.4144
 7666TIP3    H244490   1.689   6.164   3.436  0.4093  0.5421  0.3549
 7667TIP3   OH244491   5.976   4.977  11.168 -0.1701 -0.3628  0.2874
 7667TIP3    H144492   6.009   5.043  11.107 -1.9884  1.0127  0.7472
 7667TIP3    H244493   6.054   4.942  11.210  0.8013  1.8734  0.4085
 7668TIP3   OH244494   4.645   1.120  15.901 -0.8157  0.1360 -0.1515
 7668TIP3    H144495   4.594   1.069  15.839 -0.7403  1.0842 -1.0097
 7668TIP3    H244496   4.736   1.109  15.872 -0.3930 -2.3413  1.9420
 7669TIP3   OH244497   4.689   0.592   1.107  0.3611  0.0926  0.1138
 7669TIP3    H144498   4.659   0.680   1.130  0.7084 -0.0744  1.2259
 7669TIP3    H244499   4.782   0.604   1.084  1.2956 -0.4763  3.4217
 7670TIP3   OH244500   4.526   3.287   2.079 -0.3297  0.3075 -0.7349
 7670TIP3    H144501   4.499   3.246   2.162  2.2509 -0.3101 -0.1342
 7670TIP3    H244502   4.464   3.253   2.014 -1.0204 -0.9819  0.5606
 7671TIP3   OH244503   4.816   0.843   3.943 -0.5540 -0.2411 -0.0291
 7671TIP3    H144504   4.894   0.896   3.961 -1.0867  0.9228 -1.0049
 7671TIP3    H244505   4.779   0.824   4.029  0.8708 -0.9101  0.4474
 7672TIP3   OH244506   4.058   6.287   4.717 -0.5422 -0.1824  0.2761
 7672TIP3    H144507   4.080   6.277   4.809 -0.6316  2.3121  0.5947
 7672TIP3    H244508   4.057   6.197   4.683  1.7169 -0.9622  2.1656
 7673TIP3   OH244509   4.698   1.470   3.635  0.3485  0.3584  0.0964
 7673TIP3    H144510   4.614   1.474   3.682 -0.1778  2.3957 -0.9792
 7673TIP3    H244511   4.676   1.495   3.546  2.0418  0.4200 -0.3070
 7674TIP3   OH244512   3.575   0.519   4.163 -0.0028  0.9848  0.5811
 7674TIP3    H144513   3.508   0.567   4.114  0.2325  1.6778  0.9397
 7674TIP3    H244514   3.548   0.527   4.255 -0.3951 -0.2307  0.5872
 7675TIP3   OH244515   0.633   6.218  11.415 -0.0079  0.5534  0.1636
 7675TIP3    H144516   0.636   6.148  11.350 -0.2192  2.5898 -2.1476
 7675TIP3    H244517   0.720   6.257  11.413 -0.5780  1.8460 -0.3181
 7676TIP3   OH244518   4.492   1.190  15.500  0.1750  0.3567 -0.3922
 7676TIP3    H144519   4.492   1.166  15.407  0.5992 -1.8012  0.1338
 7676TIP3    H244520   4.582   1.174  15.528 -0.1575  0.1873  0.5888
 7677TIP3   OH244521   0.833   3.637   3.392  0.5942  0.4362  0.2080
 7677TIP3    H144522   0.894   3.564   3.378 -0.7483 -0.7497  0.4902
 7677TIP3    H244523   0.858   3.672   3.478 -0.7515 -1.6664  1.4850
 7678TIP3   OH244524   6.640   1.957  12.883  0.0624  0.0530  0.2548
 7678TIP3    H144525   6.551   1.924  12.901 -0.1742  0.5200 -0.0645
 7678TIP3    H244526   6.652   1.943  12.789  0.3554 -0.0686  0.3086
 7679TIP3   OH244527   3.080   1.683  10.376 -0.7969  0.2822 -0.0885
 7679TIP3    H144528   3.014   1.667  10.309  0.1376  2.5652 -1.6173
 7679TIP3    H244529   3.064   1.773  10.404  0.8462  0.4195  0.4531
 7680TIP3   OH244530   3.289   0.351  15.003 -0.1578  0.1241 -0.0283
 7680TIP3    H144531   3.256   0.368  14.915  1.4797  0.7376 -0.5531
 7680TIP3    H244532   3.212   0.325  15.053 -1.1663  0.0861 -1.5573
 7681TIP3   OH244533   4.436   3.468   4.682 -0.1091 -0.3751  0.2896
 7681TIP3    H144534   4.400   3.526   4.614  1.4411 -0.5282 -0.6873
 7681TIP3    H244535   4.422   3.380   4.648 -0.0612 -0.4769  0.5386
 7682TIP3   OH244536   1.265   1.191  15.634  0.1307 -0.2866 -0.4937
 7682TIP3    H144537   1.275   1.177  15.540  0.4495  0.9852 -0.6577
 7682TIP3    H244538   1.247   1.103  15.669 -1.0140 -0.6226 -1.8601
 7683TIP3   OH244539   2.516   5.598  10.939 -0.0967 -0.3407  0.0708
 7683TIP3    H144540   2.467   5.529  10.893 -1.3592  1.2906 -1.1137
 7683TIP3    H244541   2.604   5.592  10.903 -0.0268 -1.7649  0.4630
 7684TIP3   OH244542   5.508   0.895  17.289  0.2132  0.1337 -0.7027
 7684TIP3    H144543   5.536   0.862  17.374 -0.7139  0.5428 -0.2440
 7684TIP3    H244544   5.577   0.865  17.229  1.4205  0.7442  0.3450
 7685TIP3   OH244545   1.173   4.936  12.208  0.0260  0.8713  0.2011
 7685TIP3    H144546   1.108   4.879  12.165  2.3136 -2.4222  0.9306
 7685TIP3    H244547   1.228   4.967  12.136  1.0097 -0.8806  0.1653
 7686TIP3   OH244548   1.123   4.329   0.672 -0.0149 -0.0438 -0.0541
 7686TIP3    H144549   1.047   4.383   0.652 -0.3132 -0.6860 -0.7166
 7686TIP3    H244550   1.108   4.297   0.761 -0.8447 -0.6865 -0.4209
 7687TIP3   OH244551   1.199   1.817  15.711  0.2867 -0.3184  0.0676
 7687TIP3    H144552   1.271   1.758  15.688  0.5569  0.1899 -0.4121
 7687TIP3    H244553   1.120   1.763  15.701  0.5731 -0.7630  0.1967
 7688TIP3   OH244554   6.170   5.809  14.195 -0.1309  0.3737  0.5940
 7688TIP3    H144555   6.202   5.721  14.213 -0.0026  0.5785  1.3918
 7688TIP3    H244556   6.091   5.817  14.248 -0.9739  0.2207 -0.6159
 7689TIP3   OH244557   6.133   0.757  15.399  0.0062 -0.1721  0.4412
 7689TIP3    H144558   6.184   0.831  15.431  0.1045 -0.5712  1.2210
 7689TIP3    H244559   6.043   0.790  15.394 -0.0281 -0.1274  1.2325
 7690TIP3   OH244560   6.339   3.173  16.138  0.3606  0.0101  0.5552
 7690TIP3    H144561   6.416   3.117  16.139 -1.6323 -2.8900 -1.3488
 7690TIP3    H244562   6.374   3.261  16.125  3.4751 -0.9141  2.1823
 7691TIP3   OH244563   5.076   5.470   4.835  0.0332  0.0604 -0.4289
 7691TIP3    H144564   5.019   5.394   4.821  0.5556 -0.8854  2.2279
 7691TIP3    H244565   5.085   5.475   4.930  0.6413  3.0040 -0.6106
 7692TIP3   OH244566   6.308   3.072  12.903 -0.0257 -0.0203  0.0879
 7692TIP3    H144567   6.299   3.166  12.922 -0.9024 -0.2657  0.9225
 7692TIP3    H244568   6.281   3.029  12.984  0.1455 -1.0004 -0.3784
 7693TIP3   OH244569   2.033   6.395  11.769 -0.3453  0.3672  0.0987
 7693TIP3    H144570   1.940   6.390  11.749 -0.3921  0.5655  0.2768
 7693TIP3    H244571   2.040   6.455  11.843 -0.2420 -0.9874  1.2170
 7694TIP3   OH244572   5.845   2.394  14.726  0.2691  0.0050  0.4217
 7694TIP3    H144573   5.917   2.454  14.708  0.8984 -0.6176  0.8435
 7694TIP3    H244574   5.771   2.430  14.677  1.4732 -0.6757 -1.9570
 7695TIP3   OH244575   5.515   3.985  13.557  0.0034 -0.2806 -0.3383
 7695TIP3    H144576   5.446   4.039  13.596 -1.8692 -2.4770 -0.4779
 7695TIP3    H244577   5.506   3.900  13.600  1.8111 -0.9730 -1.2721
 7696TIP3   OH244578   5.166   1.702   1.805  0.0036  0.0878 -0.1867
 7696TIP3    H144579   5.211   1.759   1.742 -1.0726 -0.0357 -1.0766
 7696TIP3    H244580   5.236   1.648   1.842  0.3458 -1.7885 -3.3211
 7697TIP3   OH244581   6.566   0.879  12.495 -0.3129 -0.3839  0.7308
 7697TIP3    H144582   6.637   0.841  12.444  1.4856  1.6465  1.6548
 7697TIP3    H244583   6.487   0.860  12.444  1.2641  0.3449 -2.0903
 7698TIP3   OH244584   4.206   4.074   2.078 -0.0603 -0.4972  0.0015
 7698TIP3    H144585   4.153   4.052   2.155  2.0039  0.9092  1.9032
 7698TIP3    H244586   4.276   4.009   2.078 -0.2580 -0.7112 -0.9114
 7699TIP3   OH244587   2.564   5.535   5.515 -0.0111 -0.2804  0.0151
 7699TIP3    H144588   2.558   5.479   5.593 -0.9399  0.4897  0.5074
 7699TIP3    H244589   2.474   5.539   5.482  0.4118 -0.7585 -1.2143
 7700TIP3   OH244590   1.513   4.210  11.984  0.3538 -0.1601  0.1907
 7700TIP3    H144591   1.432   4.259  11.969  0.4456 -0.4354 -1.2995
 7700TIP3    H244592   1.485   4.119  11.995  0.5824 -0.5830 -2.3467
 7701TIP3   OH244593   6.019   0.607   3.024  0.1567  0.0823 -0.2769
 7701TIP3    H144594   5.936   0.576   3.059  0.8886 -0.4419  1.0635
 7701TIP3    H244595   6.028   0.696   3.058 -0.0620  0.3090 -0.8023
 7702TIP3   OH244596   5.240   5.268   5.589  0.1921  0.3247  0.0950
 7702TIP3    H144597   5.179   5.314   5.647 -0.6573 -1.6832  0.8714
 7702TIP3    H244598   5.186   5.201   5.548  1.0769  0.9532 -2.1203
 7703TIP3   OH244599   5.010   1.693  12.991 -0.0162  0.7237 -0.1888
 7703TIP3    H144600   4.963   1.701  13.075  0.1028  0.3414 -0.0854
 7703TIP3    H244601   5.073   1.623  13.006 -1.4075 -0.7900 -1.2566
 7704TIP3   OH244602   3.694   3.450  14.916 -0.4175 -0.0856  0.4604
 7704TIP3    H144603   3.637   3.512  14.869 -0.4135  0.3012  0.9571
 7704TIP3    H244604   3.649   3.435  14.999  0.6744  0.9607  1.2517
 7705TIP3   OH244605   4.088   5.075  15.718  0.0374 -0.6985  0.0842
 7705TIP3    H144606   4.072   5.156  15.670  0.7462 -0.4639  0.2521
 7705TIP3    H244607   4.001   5.050  15.752 -0.0956  0.2276  0.4199
 7706TIP3   OH244608   2.236   2.861   0.546  0.3874 -0.0988  0.3720
 7706TIP3    H144609   2.155   2.912   0.559  0.7215  0.3064  0.8646
 7706TIP3    H244610   2.209   2.770   0.555 -0.2432 -0.0214 -0.6169
 7707TIP3   OH244611   0.721   0.049   6.426  0.4463  0.5913 -0.2696
 7707TIP3    H144612   0.808   0.085   6.409  0.8361 -1.0884 -2.1014
 7707TIP3    H244613   0.737  -0.043   6.447 -0.8132  0.5252  0.4423
 7708TIP3   OH244614   1.722   0.385   1.650 -0.3975  0.3028  0.4719
 7708TIP3    H144615   1.807   0.425   1.670  0.3285 -1.1879  0.4872
 7708TIP3    H244616   1.714   0.313   1.712 -2.0456  0.9143  0.9722
 7709TIP3   OH244617   5.461   1.585  12.160 -0.0635 -0.1396 -0.0701
 7709TIP3    H144618   5.427   1.674  12.162 -0.4270 -0.2814  0.0688
 7709TIP3    H244619   5.455   1.554  12.250 -1.4974 -0.8877 -0.3976
 7710TIP3   OH244620   3.557   5.447   3.676 -0.1402  0.2154 -0.2291
 7710TIP3    H144621   3.484   5.385   3.684  1.0309 -1.3308 -1.1016
 7710TIP3    H244622   3.543   5.488   3.590 -0.9445  1.2342  0.3708
 7711TIP3   OH244623   5.156   6.166   1.516 -0.0538 -0.2351 -0.4167
 7711TIP3    H144624   5.180   6.172   1.608  0.5057 -1.3153 -0.4836
 7711TIP3    H244625   5.130   6.075   1.503 -1.0188  0.1235 -1.1181
 7712TIP3   OH244626   5.105   4.837  12.391  0.2188 -0.0538 -0.0151
 7712TIP3    H144627   5.194   4.835  12.355  1.2302 -1.2711  2.4781
 7712TIP3    H244628   5.104   4.912  12.450 -0.9563  0.9803 -1.3083
 7713TIP3   OH244629   2.599   0.006   4.658  0.6698  0.4616  0.3592
 7713TIP3    H144630   2.564  -0.072   4.614 -0.7349  0.8423  0.7642
 7713TIP3    H244631   2.557   0.005   4.744 -0.6670  2.5660 -0.2483
 7714TIP3   OH244632   0.382   5.915  15.433 -0.2183 -0.5048  0.3952
 7714TIP3    H144633   0.397   5.885  15.343 -1.3282 -0.9295  0.3510
 7714TIP3    H244634   0.448   5.983  15.446 -0.1415 -0.3355 -0.7937
 7715TIP3   OH244635   1.168   4.732   0.565 -0.0432  0.1159  0.1541
 7715TIP3    H144636   1.259   4.705   0.562 -0.4287 -1.2686  0.6656
 7715TIP3    H244637   1.135   4.700   0.649 -0.6691  1.6777  0.5112
 7716TIP3   OH244638   5.749   3.665  12.870  0.5500 -0.0475  0.8446
 7716TIP3    H144639   5.662   3.672  12.830  0.8954  1.0417  0.2480
 7716TIP3    H244640   5.798   3.608  12.810  1.1294  1.7507 -0.4355
 7717TIP3   OH244641   1.251   0.141   5.665  0.3703  0.2205  0.0763
 7717TIP3    H144642   1.204   0.090   5.731 -0.5068  1.2164  0.2251
 7717TIP3    H244643   1.189   0.208   5.637  0.8522  0.0376 -1.5079
 7718TIP3   OH244644   1.108   6.787   2.033  0.0681  0.1945  0.0514
 7718TIP3    H144645   1.175   6.790   1.965 -2.0094  1.9172 -2.0323
 7718TIP3    H244646   1.079   6.878   2.041 -1.3704 -0.3746  1.5573
 7719TIP3   OH244647   3.097   2.058   4.878 -0.1878 -0.7995 -0.5024
 7719TIP3    H144648   3.175   2.003   4.887 -0.1759 -0.7445 -0.2486
 7719TIP3    H244649   3.083   2.066   4.784  2.0422  1.8973 -0.6579
 7720TIP3   OH244650   2.944   0.266   1.294  0.4324 -0.6443  0.2705
 7720TIP3    H144651   2.964   0.289   1.384 -0.5435  1.8527 -0.1044
 7720TIP3    H244652   3.005   0.318   1.242  1.4353 -2.5669 -0.5061
 7721TIP3   OH244653   5.508   4.546  13.629  0.3982 -0.1110 -0.5680
 7721TIP3    H144654   5.570   4.517  13.561  1.3919 -1.2672  0.8052
 7721TIP3    H244655   5.563   4.569  13.703 -0.8087 -1.0153  0.6178
 7722TIP3   OH244656   0.233   1.575  14.731 -0.0937 -0.7787  0.3744
 7722TIP3    H144657   0.185   1.657  14.744 -0.6380 -1.0525  0.0965
 7722TIP3    H244658   0.208   1.521  14.806  0.5518 -0.5667  0.7582
 7723TIP3   OH244659   4.419   0.157   1.512  0.0173 -0.1261  0.1081
 7723TIP3    H144660   4.333   0.124   1.485 -0.0662 -0.1223  0.3690
 7723TIP3    H244661   4.416   0.156   1.608  0.1124  0.3754  0.1199
 7724TIP3   OH244662   3.855   3.404   0.672  0.3000 -0.1446 -0.0278
 7724TIP3    H144663   3.860   3.482   0.728 -0.3492 -0.5218  0.5637
 7724TIP3    H244664   3.835   3.333   0.733  0.4346 -0.6973 -0.6334
 7725TIP3   OH244665   3.329   0.102  14.134  0.2072 -0.2952  0.6680
 7725TIP3    H144666   3.303   0.016  14.104  0.6504 -0.3190  0.3454
 7725TIP3    H244667   3.290   0.110  14.222 -1.8955  0.1778 -0.2840
 7726TIP3   OH244668   5.821   6.567   3.682  0.2760 -0.2049  0.1281
 7726TIP3    H144669   5.741   6.593   3.636 -0.8663 -0.7124  1.8106
 7726TIP3    H244670   5.876   6.645   3.679 -1.0246  0.7447  0.5781
 7727TIP3   OH244671   4.943   6.532   0.294 -0.4990  0.4970 -0.1225
 7727TIP3    H144672   4.945   6.602   0.229 -0.5897  0.2536 -0.3888
 7727TIP3    H244673   5.035   6.518   0.317 -0.5633  1.4108  0.6958
 7728TIP3   OH244674   4.954   1.650  11.925  0.1301  0.3007 -0.4207
 7728TIP3    H144675   4.929   1.695  12.005 -1.3343 -2.5449  0.7822
 7728TIP3    H244676   5.010   1.578  11.955  0.8366  0.1157 -2.1230
 7729TIP3   OH244677   1.678   4.888   0.185  0.3754  0.4048 -0.6121
 7729TIP3    H144678   1.622   4.890   0.263 -1.1710  0.8559 -1.7307
 7729TIP3    H244679   1.709   4.797   0.181 -2.1867 -0.4626 -1.3361
 7730TIP3   OH244680   0.326   6.686  16.950  0.3324 -0.4443  0.6189
 7730TIP3    H144681   0.385   6.761  16.945  0.1565 -0.3098  0.5388
 7730TIP3    H244682   0.346   6.635  16.872  0.3743 -0.4187  0.6107
 7731TIP3   OH244683   1.055   1.544   0.354 -0.2916  0.5096  0.2598
 7731TIP3    H144684   1.002   1.477   0.396  0.1545 -0.6063 -0.9154
 7731TIP3    H244685   0.992   1.609   0.321 -0.8153  0.0022  0.2680
 7732TIP3   OH244686   2.748   1.480   2.531 -0.1852  0.1040 -0.0513
 7732TIP3    H144687   2.698   1.433   2.598 -0.4318  1.1267  0.4808
 7732TIP3    H244688   2.706   1.566   2.524 -1.8787 -0.8729 -3.4319
 7733TIP3   OH244689   3.941   5.056   3.401 -0.2754 -0.5400 -0.6503
 7733TIP3    H144690   4.011   5.121   3.401 -0.0131 -0.8199 -0.5087
 7733TIP3    H244691   3.863   5.104   3.427  0.1249 -0.4930  0.5128
 7734TIP3   OH244692   3.278   6.645  13.988  0.2099  0.1113 -0.0521
 7734TIP3    H144693   3.183   6.642  13.972  0.4411 -0.2314 -1.4267
 7734TIP3    H244694   3.316   6.593  13.917  1.5001  1.1545 -0.1528
 7735TIP3   OH244695   3.990   0.870   0.928 -0.0704 -0.3487  0.2327
 7735TIP3    H144696   4.072   0.820   0.926  0.1073 -0.0385 -0.2394
 7735TIP3    H244697   3.970   0.878   1.021 -0.0532 -1.2273  0.3188
 7736TIP3   OH244698   4.348   0.212   0.912  0.1461 -0.1634 -0.5468
 7736TIP3    H144699   4.376   0.126   0.881  1.7123  0.2494 -0.3247
 7736TIP3    H244700   4.391   0.222   0.997  2.3709  2.0508 -1.8927
 7737TIP3   OH244701   4.519   0.691   2.822  0.5234 -0.0485 -0.0666
 7737TIP3    H144702   4.437   0.653   2.853  0.7834 -1.0598 -0.5790
 7737TIP3    H244703   4.562   0.723   2.901 -0.5711  0.9325  0.1518
 7738TIP3   OH244704   1.155   2.603  15.424  0.5942  0.4374 -0.1739
 7738TIP3    H144705   1.235   2.628  15.469  0.9641  0.0221 -0.6062
 7738TIP3    H244706   1.086   2.613  15.491  0.9387  1.1962  0.0703
 7739TIP3   OH244707   4.356   5.578  14.256 -0.1603  0.5764 -0.2594
 7739TIP3    H144708   4.299   5.556  14.329 -0.2477  1.0507 -0.1804
 7739TIP3    H244709   4.408   5.652  14.288  0.1305  0.4832 -0.5118
 7740TIP3   OH244710   1.174   3.327  12.110 -0.1051  0.1499  0.1251
 7740TIP3    H144711   1.164   3.232  12.121 -1.2406  0.3455  0.8398
 7740TIP3    H244712   1.261   3.346  12.143 -0.7894 -0.2983  2.2406
 7741TIP3   OH244713   3.490   5.436  15.462 -0.7173  0.8639  0.0607
 7741TIP3    H144714   3.530   5.381  15.529 -2.3918  0.6870  0.9135
 7741TIP3    H244715   3.437   5.499  15.510 -0.3678  2.0081 -1.0081
 7742TIP3   OH244716   2.146   3.473  15.249 -0.3359  0.1119  0.2133
 7742TIP3    H144717   2.207   3.431  15.308 -0.0226 -1.6661 -1.3350
 7742TIP3    H244718   2.062   3.429  15.265  0.2830 -2.1204 -2.3515
 7743TIP3   OH244719   1.045   4.272   5.345  0.0349  0.1278 -0.1822
 7743TIP3    H144720   1.080   4.296   5.430  0.3882 -1.8786  0.2663
 7743TIP3    H244721   0.952   4.254   5.361  0.1794 -0.5976 -0.1417
 7744TIP3   OH244722   1.723   5.417   0.249 -0.2501 -0.2762 -0.4576
 7744TIP3    H144723   1.699   5.329   0.221  1.0075 -1.3118  1.6334
 7744TIP3    H244724   1.814   5.410   0.277 -0.7047  1.2461  1.5452
 7745TIP3   OH244725   5.704   4.488  13.404  0.4961 -0.3610  0.3559
 7745TIP3    H144726   5.625   4.467  13.354 -0.2994  1.6888  0.6987
 7745TIP3    H244727   5.773   4.493  13.338 -0.2981  1.0433 -0.3918
 7746TIP3   OH244728   5.915   0.360  11.567  0.1165  0.1464  0.3954
 7746TIP3    H144729   5.871   0.403  11.493  0.0813  0.6070  0.6819
 7746TIP3    H244730   6.006   0.354  11.539 -0.1357 -0.8921 -0.2373
 7747TIP3   OH244731   4.768   4.184   2.985  0.0897  0.7272 -0.3255
 7747TIP3    H144732   4.736   4.254   2.929 -1.0490 -0.7726 -1.5766
 7747TIP3    H244733   4.691   4.129   3.001  1.4297 -1.4373 -1.1589
 7748TIP3   OH244734   1.515   5.642   4.642 -0.3906  0.2839  0.0244
 7748TIP3    H144735   1.475   5.556   4.656 -0.0126  0.1939  0.5759
 7748TIP3    H244736   1.442   5.699   4.615 -0.8132  0.0290  0.6274
 7749TIP3   OH244737   1.828   6.160  13.031 -0.1314 -0.8703  0.1393
 7749TIP3    H144738   1.887   6.227  12.996  1.7609 -2.7416 -0.3925
 7749TIP3    H244739   1.780   6.203  13.101  0.6998  1.1708 -0.5271
 7750TIP3   OH244740   2.102   0.043  14.351 -0.4039  0.5490 -0.1827
 7750TIP3    H144741   2.179   0.043  14.293  0.0096  1.5341  0.3520
 7750TIP3    H244742   2.062  -0.043  14.337  0.4345  0.2661 -0.9431
 7751TIP3   OH244743   6.114   0.575   4.654 -0.0112  0.4985 -0.0590
 7751TIP3    H144744   6.161   0.527   4.585 -0.8437  1.0462 -1.0229
 7751TIP3    H244745   6.131   0.525   4.734 -0.9425 -1.4943 -1.0603
 7752TIP3   OH244746   5.586   3.087  14.075 -0.5490 -0.7342  0.5311
 7752TIP3    H144747   5.585   3.126  14.162 -0.4953  2.3559 -0.7811
 7752TIP3    H244748   5.649   3.015  14.081 -0.9162 -0.8682  3.1316
 7753TIP3   OH244749   5.870   4.070   6.009  0.4975 -0.0124  0.2098
 7753TIP3    H144750   5.841   3.987   5.969 -1.2131  0.0485  1.2893
 7753TIP3    H244751   5.872   4.132   5.936 -2.0669 -0.0375  0.0989
 7754TIP3   OH244752   5.623   5.165   4.747 -0.1097  0.9381  0.2080
 7754TIP3    H144753   5.648   5.156   4.839  0.0387  0.2986  0.1060
 7754TIP3    H244754   5.706   5.169   4.700 -0.1937  0.5360  0.0290
 7755TIP3   OH244755   1.226   2.375   0.169  0.1211  0.3324  0.5799
 7755TIP3    H144756   1.280   2.308   0.210  0.0279  0.0213  0.1927
 7755TIP3    H244757   1.152   2.327   0.132  0.4813  0.5490 -0.4228
 7756TIP3   OH244758   2.476   6.693  13.270  0.0232  0.0955 -0.0182
 7756TIP3    H144759   2.403   6.636  13.246  0.8208 -1.7966  1.8918
 7756TIP3    H244760   2.549   6.663  13.215 -0.5681  1.9500 -1.8863
 7757TIP3   OH244761   0.835   0.398  13.257 -0.2048 -0.1391 -0.2144
 7757TIP3    H144762   0.777   0.409  13.182  0.6952  2.2600 -0.5993
 7757TIP3    H244763   0.777   0.395  13.333 -0.9203  1.0879 -0.7034
 7758TIP3   OH244764   6.094   2.951  11.463  0.0191 -0.5162 -0.1133
 7758TIP3    H144765   6.133   3.037  11.475  0.9712 -0.5119 -2.8334
 7758TIP3    H244766   6.165   2.897  11.428 -0.8770 -2.0897  0.4150
 7759TIP3   OH244767   3.723   5.871  11.906  1.0632 -0.2196  0.0705
 7759TIP3    H144768   3.732   5.814  11.829  0.8366 -0.5889  0.3160
 7759TIP3    H244769   3.757   5.819  11.979  0.2512 -0.2897  0.4079
 7760TIP3   OH244770   3.355   6.267   5.150 -0.1296 -0.3037 -0.0867
 7760TIP3    H144771   3.402   6.342   5.114 -0.0016 -1.4259 -2.3278
 7760TIP3    H244772   3.274   6.263   5.098 -1.9660  0.5743  2.5825
 7761TIP3   OH244773   6.004   3.256   5.816 -0.3345  0.0517 -0.3976
 7761TIP3    H144774   5.917   3.250   5.856 -0.9198  0.4207 -1.6138
 7761TIP3    H244775   6.054   3.312   5.876 -1.1440  0.4483 -0.0847
 7762TIP3   OH244776   4.063   0.993   1.705  0.4620  0.0637  0.0134
 7762TIP3    H144777   4.083   0.994   1.798  0.2494 -0.9742  0.0649
 7762TIP3    H244778   3.976   1.032   1.698  0.5732  0.3535  0.2171
 7763TIP3   OH244779   5.788   3.812  11.122 -0.6323 -0.4456 -0.1049
 7763TIP3    H144780   5.743   3.833  11.040  2.5933 -0.3883 -1.9499
 7763TIP3    H244781   5.769   3.886  11.180 -0.4629  1.0138 -1.8681
 7764TIP3   OH244782   2.362   2.338   0.548 -0.0789 -0.3109  0.1592
 7764TIP3    H144783   2.453   2.311   0.546  0.1018  0.2408  0.9959
 7764TIP3    H244784   2.316   2.269   0.500  0.7488 -0.6869 -0.0978
 7765TIP3   OH244785   0.468   1.293   2.092 -0.1614  0.6665 -0.0194
 7765TIP3    H144786   0.537   1.245   2.138 -0.6670 -0.9607 -0.9068
 7765TIP3    H244787   0.403   1.311   2.159 -0.8906 -1.6818 -0.0507
 7766TIP3   OH244788   0.089   1.130   3.333  0.1327 -0.2973 -0.1900
 7766TIP3    H144789   0.144   1.209   3.327 -0.6317  0.0738 -2.6314
 7766TIP3    H244790   0.150   1.057   3.320  0.4063 -0.0043 -0.5515
 7767TIP3   OH244791   5.493   2.768  16.184  0.0512  0.3837  0.3204
 7767TIP3    H144792   5.480   2.849  16.135  2.4447  0.7355  0.2337
 7767TIP3    H244793   5.543   2.794  16.261  0.5253 -0.9508  0.4765
 7768TIP3   OH244794   5.591   0.316   6.098 -0.4679  0.6070  0.2676
 7768TIP3    H144795   5.575   0.249   6.031 -0.4835  1.2277 -0.3520
 7768TIP3    H244796   5.599   0.398   6.049  0.5685  0.9104  0.9367
 7769TIP3   OH244797   2.469   5.993   2.107 -0.1318 -0.4252  0.1462
 7769TIP3    H144798   2.381   6.013   2.139 -0.1047 -1.5728  0.9544
 7769TIP3    H244799   2.461   5.995   2.012 -0.6205  1.2529  0.2052
 7770TIP3   OH244800   0.806   1.641  14.050 -0.2249  0.0954 -0.0622
 7770TIP3    H144801   0.744   1.685  14.108 -0.4009  1.3929 -1.1864
 7770TIP3    H244802   0.892   1.674  14.078 -0.3515  1.1436 -0.8586
 7771TIP3   OH244803   5.540   0.646  13.732  1.0940  0.8215  0.2562
 7771TIP3    H144804   5.488   0.566  13.724  0.4327  1.1459  1.1792
 7771TIP3    H244805   5.490   0.712  13.683  1.6984  0.6402 -0.6051
 7772TIP3   OH244806   4.955   4.790   5.595 -0.1559  0.3368  0.1107
 7772TIP3    H144807   4.878   4.818   5.645 -0.6669  0.3180 -0.6495
 7772TIP3    H244808   4.998   4.725   5.652  0.1862  1.5127  1.2120
 7773TIP3   OH244809   0.160   6.515   3.520  0.1037 -0.1508 -0.2488
 7773TIP3    H144810   0.109   6.441   3.551  1.2625 -0.8205  0.0902
 7773TIP3    H244811   0.095   6.582   3.497 -0.9198 -1.1117 -0.1574
 7774TIP3   OH244812   5.936   1.725  13.441 -0.1372 -0.1924 -0.3308
 7774TIP3    H144813   5.846   1.720  13.473  0.2429 -1.0045  0.6171
 7774TIP3    H244814   5.967   1.811  13.469 -0.3297 -0.2597  0.0968
 7775TIP3   OH244815   4.576   0.072  13.382 -0.8705 -0.9854  0.3900
 7775TIP3    H144816   4.667   0.046  13.367 -0.8194  0.0999 -1.4391
 7775TIP3    H244817   4.570   0.085  13.476  0.8771 -1.0626  0.5372
 7776TIP3   OH244818   6.431   6.112  15.761  0.0365 -0.2511 -0.6850
 7776TIP3    H144819   6.508   6.125  15.817 -0.6054  1.5690 -0.1688
 7776TIP3    H244820   6.362   6.163  15.804 -0.9200 -0.2271 -2.2144
 7777TIP3   OH244821   1.243   1.381   4.775 -0.5101 -0.1591 -0.1536
 7777TIP3    H144822   1.272   1.304   4.724 -0.5296 -0.2830  0.0235
 7777TIP3    H244823   1.166   1.351   4.823 -0.3247 -0.1219  0.1671
 7778TIP3   OH244824   4.507   1.320   4.534 -0.1972 -0.4462 -0.7295
 7778TIP3    H144825   4.429   1.265   4.536 -0.1750 -0.5481 -1.9109
 7778TIP3    H244826   4.551   1.295   4.452  1.1964 -0.5692  0.0446
 7779TIP3   OH244827   2.602   3.368  13.739  0.5149 -1.0737  0.1366
 7779TIP3    H144828   2.696   3.356  13.740  0.4723 -1.3762  2.1918
 7779TIP3    H244829   2.574   3.354  13.830 -1.4882 -0.8986 -0.4137
 7780TIP3   OH244830   1.279   5.057  14.460  0.2298 -0.0169 -0.2099
 7780TIP3    H144831   1.210   5.038  14.396  0.5647 -0.5714 -0.4095
 7780TIP3    H244832   1.258   5.000  14.535  0.7990 -0.6218 -0.5025
 7781TIP3   OH244833   2.250   3.510   2.989 -0.0391 -0.0504 -0.1983
 7781TIP3    H144834   2.201   3.523   2.907 -1.1641 -0.0617  0.4576
 7781TIP3    H244835   2.339   3.539   2.968 -0.7463  1.7483 -0.9094
 7782TIP3   OH244836   5.938   3.976   0.219 -0.4200 -0.5620 -0.1187
 7782TIP3    H144837   5.909   4.012   0.303 -0.4224  1.0205 -0.7869
 7782TIP3    H244838   5.861   3.932   0.184 -1.3231  1.4959 -0.7434
 7783TIP3   OH244839   1.121   5.241  13.226  0.1664 -0.0432 -0.2828
 7783TIP3    H144840   1.155   5.193  13.301 -0.2556  2.0642  1.2739
 7783TIP3    H244841   1.054   5.183  13.189 -0.7393 -0.4370  1.9160
 7784TIP3   OH244842   0.408   6.323   6.152 -0.1929 -0.5498 -0.6623
 7784TIP3    H144843   0.429   6.231   6.137 -0.1742 -0.6623  0.0506
 7784TIP3    H244844   0.494   6.366   6.157 -0.1992 -0.5169 -0.8106
 7785TIP3   OH244845   3.911   6.373  17.130  0.4572 -0.8320 -0.3778
 7785TIP3    H144846   4.004   6.372  17.110  1.0608 -0.8060  2.1981
 7785TIP3    H244847   3.878   6.289  17.095  1.6726 -1.3438 -0.3090
 7786TIP3   OH244848   0.897   3.430  14.879 -0.6352  0.1437  0.0100
 7786TIP3    H144849   0.823   3.490  14.871 -0.6386  0.2129  0.5682
 7786TIP3    H244850   0.973   3.487  14.887 -0.6748  0.0810  0.8934
 7787TIP3   OH244851   3.090   5.122   5.027  0.9512  0.6234  0.5173
 7787TIP3    H144852   3.122   5.046   4.977  1.8001  2.1488 -1.3373
 7787TIP3    H244853   2.995   5.121   5.014  1.0877  0.5793 -0.5862
 7788TIP3   OH244854   0.113   1.850   2.504 -0.2383 -0.2129 -0.0701
 7788TIP3    H144855   0.085   1.917   2.441 -1.0157 -0.7957 -0.3610
 7788TIP3    H244856   0.056   1.775   2.485 -0.5316 -0.3692  1.3868
 7789TIP3   OH244857   0.430   0.206   2.641  0.3868  0.1496 -0.2424
 7789TIP3    H144858   0.391   0.292   2.627 -1.0837 -0.4653 -0.0087
 7789TIP3    H244859   0.523   0.224   2.655  0.2132  1.6322 -0.8812
 7790TIP3   OH244860   4.009   3.380  15.346 -0.4991  0.3974  0.0854
 7790TIP3    H144861   3.992   3.314  15.279 -0.2278  1.7408 -1.3464
 7790TIP3    H244862   4.091   3.353  15.386 -0.5249 -0.2703 -0.3020
 7791TIP3   OH244863   2.812   3.093   5.563  0.5696 -0.4553 -0.6551
 7791TIP3    H144864   2.768   3.157   5.619 -1.2715 -1.8366 -0.4586
 7791TIP3    H244865   2.780   3.113   5.475 -1.1024 -1.9453 -0.4108
 7792TIP3   OH244866   4.106   5.563  15.849  0.5946  0.2563 -0.0948
 7792TIP3    H144867   4.194   5.587  15.880  0.2621  1.1727  0.1436
 7792TIP3    H244868   4.116   5.557  15.754  1.0858 -0.3536 -0.0090
 7793TIP3   OH244869   3.091   2.906   2.452 -0.5438  0.6259  0.4106
 7793TIP3    H144870   3.097   2.961   2.374  0.3855  0.8937  0.6561
 7793TIP3    H244871   3.022   2.946   2.505 -0.7188  0.8346  0.0232
 7794TIP3   OH244872   2.745   0.350  15.340 -0.2017  0.2476 -0.1815
 7794TIP3    H144873   2.783   0.296  15.271 -1.7209  1.5743 -2.0980
 7794TIP3    H244874   2.772   0.439  15.319 -3.1220  1.0397 -0.7883
 7795TIP3   OH244875   3.689   1.379  16.577 -0.2850 -0.0036  0.6103
 7795TIP3    H144876   3.612   1.424  16.543 -1.1155 -1.3173  0.7145
 7795TIP3    H244877   3.659   1.335  16.656  0.9903  0.8502  1.5944
 7796TIP3   OH244878   4.345   3.570  13.076 -0.6959 -0.4525 -0.1121
 7796TIP3    H144879   4.285   3.587  13.004  0.0049 -0.9210 -0.8240
 7796TIP3    H244880   4.289   3.556  13.152 -1.4025  1.0972 -0.3437
 7797TIP3   OH244881   4.067   3.532   4.147  0.5514 -0.3943 -0.4777
 7797TIP3    H144882   4.158   3.552   4.168  1.2035 -2.0285 -1.6789
 7797TIP3    H244883   4.071   3.483   4.065 -1.1439 -3.4909  1.2095
 7798TIP3   OH244884   5.678   1.998  13.308 -0.2002  0.2620 -0.3237
 7798TIP3    H144885   5.583   2.010  13.315 -0.3186 -0.0214 -1.3574
 7798TIP3    H244886   5.689   1.908  13.275  0.4492  0.0370  0.4847
 7799TIP3   OH244887   5.234   6.562  13.114  0.3345 -0.3235 -0.0155
 7799TIP3    H144888   5.140   6.570  13.099 -0.1473 -0.5433  2.7595
 7799TIP3    H244889   5.259   6.482  13.068 -1.1219 -1.0716  0.4678
 7800TIP3   OH244890   4.982   4.174   1.040 -0.3356  0.3855 -0.3248
 7800TIP3    H144891   4.938   4.232   0.979 -0.7484  1.1291  0.6586
 7800TIP3    H244892   4.918   4.107   1.061  0.2915 -0.6993 -1.8072
 7801TIP3   OH244893   6.694   5.623   4.188 -0.2945 -0.0421 -0.5529
 7801TIP3    H144894   6.765   5.683   4.163 -1.4734  1.3472 -0.6372
 7801TIP3    H244895   6.677   5.644   4.279 -0.1599 -0.8342 -0.3447
 7802TIP3   OH244896   1.843   1.800  14.092 -0.2624 -0.2850  0.1197
 7802TIP3    H144897   1.785   1.751  14.034 -1.1629  0.5784  0.2768
 7802TIP3    H244898   1.866   1.879  14.043 -0.3513  0.0457  0.6059
 7803TIP3   OH244899   1.123   4.108  12.803  0.0565  0.0347 -0.2904
 7803TIP3    H144900   1.108   4.161  12.725  0.7419 -0.1401 -0.5504
 7803TIP3    H244901   1.210   4.071  12.789  0.3158  0.2679  0.7152
 7804TIP3   OH244902   1.625   5.225  16.334 -0.1937 -0.6676 -0.6450
 7804TIP3    H144903   1.612   5.245  16.241 -0.7274  2.1247 -0.0220
 7804TIP3    H244904   1.718   5.208  16.342  0.0755  0.3341 -1.4967
 7805TIP3   OH244905   0.667   6.147  14.369 -0.3809  0.0450  0.8054
 7805TIP3    H144906   0.714   6.209  14.425 -1.4749  0.1945  1.5544
 7805TIP3    H244907   0.737   6.101  14.321  0.5342  0.2518  1.9246
 7806TIP3   OH244908   5.162   1.376  15.720 -0.6540 -0.0620 -0.3279
 7806TIP3    H144909   5.125   1.412  15.800 -1.0540  0.3468 -0.6900
 7806TIP3    H244910   5.232   1.319  15.749 -1.1464 -0.3326  0.3414
 7807TIP3   OH244911   3.341   6.264  11.576  0.1873  0.4288  0.1524
 7807TIP3    H144912   3.287   6.187  11.595  0.4658  0.1132 -0.3223
 7807TIP3    H244913   3.294   6.336  11.618  0.6445 -0.2063  1.7871
 7808TIP3   OH244914   2.926   2.381  15.331 -0.0949  0.3438  0.0685
 7808TIP3    H144915   2.908   2.472  15.307  0.4983 -0.1966 -2.5998
 7808TIP3    H244916   2.842   2.347  15.361 -0.6284  1.4140 -0.1875
 7809TIP3   OH244917   5.979   5.902   5.135 -0.0137  0.0299 -0.3527
 7809TIP3    H144918   5.946   5.991   5.151 -1.2924 -0.2999 -1.0846
 7809TIP3    H244919   5.917   5.845   5.178  0.3692 -0.5490 -0.5636
 7810TIP3   OH244920   2.994   5.428  16.073 -0.1901 -0.1841  0.1228
 7810TIP3    H144921   2.950   5.379  16.003 -1.1902  1.9188 -0.7528
 7810TIP3    H244922   2.924   5.449  16.135  0.0173  1.0993 -0.0686
 7811TIP3   OH244923   6.765   1.837  17.171 -0.5622  0.9492 -0.3015
 7811TIP3    H144924   6.829   1.854  17.241 -0.5687  3.6177 -0.8841
 7811TIP3    H244925   6.815   1.789  17.104 -0.2388 -0.5366  0.9771
 7812TIP3   OH244926   0.391   2.573  15.211 -0.1831  0.5726  0.6234
 7812TIP3    H144927   0.415   2.513  15.281 -1.0688  0.1329  0.5517
 7812TIP3    H244928   0.397   2.520  15.131  1.0028  1.1183  0.3413
 7813TIP3   OH244929   0.437   2.800   1.668 -0.0037 -0.2012  0.2407
 7813TIP3    H144930   0.532   2.802   1.663 -0.0894  0.0277 -2.1682
 7813TIP3    H244931   0.410   2.887   1.641 -0.8879  0.0755  1.9570
 7814TIP3   OH244932   4.692   5.959   1.838  0.3225 -0.3127 -0.2848
 7814TIP3    H144933   4.653   5.912   1.764 -1.2423 -0.5472  0.6767
 7814TIP3    H244934   4.649   6.044   1.839 -1.0492 -0.9951  1.4857
 7815TIP3   OH244935   3.400   2.726   4.141  0.3084  0.0182  0.4310
 7815TIP3    H144936   3.464   2.795   4.125  0.6365 -0.2845  0.4425
 7815TIP3    H244937   3.318   2.760   4.105  0.3885  0.5655  0.7610
 7816TIP3   OH244938   4.887   5.311   1.882  0.2906 -0.2740 -0.1372
 7816TIP3    H144939   4.925   5.244   1.825 -1.2343 -0.7178 -0.6584
 7816TIP3    H244940   4.904   5.393   1.835 -0.0177 -0.5391 -0.7232
 7817TIP3   OH244941   4.544   5.716   4.847  0.3088  0.0036 -0.2519
 7817TIP3    H144942   4.552   5.678   4.759  0.7984 -0.4128 -0.0340
 7817TIP3    H244943   4.468   5.672   4.885 -0.6084  1.0343 -0.8844
 7818TIP3   OH244944   4.519   4.919   5.007 -0.3053  0.5119  0.3125
 7818TIP3    H144945   4.537   4.831   5.039 -1.9898  0.4808  1.1922
 7818TIP3    H244946   4.561   4.977   5.071 -0.6921  0.3875  0.6763
 7819TIP3   OH244947   3.590   1.128   1.607  0.1973  0.1144  0.6237
 7819TIP3    H144948   3.686   1.132   1.603  0.1504 -0.7256 -1.8342
 7819TIP3    H244949   3.571   1.037   1.630 -0.0190  0.2676  1.0570
 7820TIP3   OH244950   5.487   4.161   1.975 -0.3129  0.0737  0.3723
 7820TIP3    H144951   5.445   4.122   2.052 -2.1663 -0.4214 -0.8531
 7820TIP3    H244952   5.414   4.185   1.917  1.0609 -2.8551 -2.8088
 7821TIP3   OH244953   6.680   6.687  14.281 -0.2550  0.3923 -0.1808
 7821TIP3    H144954   6.731   6.651  14.208  0.1760 -0.4732  0.5182
 7821TIP3    H244955   6.602   6.632  14.285  0.7765 -1.0117  1.3860
 7822TIP3   OH244956   5.890   2.700   3.485 -0.4941  0.4722  0.0134
 7822TIP3    H144957   5.896   2.614   3.527  2.5325  1.3384  1.4802
 7822TIP3    H244958   5.814   2.742   3.526 -0.1686 -0.3472  1.4877
 7823TIP3   OH244959   2.818   4.369   1.982 -0.1353  0.1700 -0.0888
 7823TIP3    H144960   2.760   4.333   1.915 -1.5356  1.5470  0.3410
 7823TIP3    H244961   2.781   4.339   2.065  1.2820 -1.0821  0.1115
 7824TIP3   OH244962   4.979   3.457   1.313  0.4210 -0.1126  0.2390
 7824TIP3    H144963   4.896   3.487   1.275  0.4608 -0.3762 -0.0555
 7824TIP3    H244964   4.962   3.456   1.408  0.6610  1.5756  0.3182
 7825TIP3   OH244965   3.111   1.302  12.658  0.1715  0.3128  0.0640
 7825TIP3    H144966   3.041   1.349  12.613  0.7249 -0.9595 -2.2414
 7825TIP3    H244967   3.065   1.239  12.714 -0.5371  1.8108  1.1839
 7826TIP3   OH244968   2.076   2.409  16.467  0.0915 -0.2515  1.2551
 7826TIP3    H144969   2.096   2.323  16.503 -0.5168 -0.0162  2.1706
 7826TIP3    H244970   1.980   2.409  16.458 -0.0485  0.8440  2.6054
 7827TIP3   OH244971   6.663   5.526   5.053 -0.4483  0.3689 -0.5586
 7827TIP3    H144972   6.695   5.588   4.988  0.6318 -1.1304 -1.4802
 7827TIP3    H244973   6.736   5.515   5.114 -1.4529  1.7703  0.9500
 7828TIP3   OH244974   2.945   2.227  11.514  0.1973  0.1598  0.0064
 7828TIP3    H144975   2.913   2.137  11.524  1.9647 -0.4504  0.3821
 7828TIP3    H244976   2.901   2.260  11.436  1.5365 -1.9566 -1.6968
 7829TIP3   OH244977   2.364   0.583  12.978 -0.4405  0.6297 -0.1560
 7829TIP3    H144978   2.459   0.594  12.967 -0.4568  1.0205  0.1074
 7829TIP3    H244979   2.334   0.554  12.892 -0.5763  3.8362 -1.2500
 7830TIP3   OH244980   4.359   5.554  15.636  0.1194  0.0973  0.1087
 7830TIP3    H144981   4.299   5.619  15.600 -0.4230  0.0582  0.9233
 7830TIP3    H244982   4.441   5.567  15.588  0.3739  2.1560  1.0290
 7831TIP3   OH244983   4.401   4.073  16.913 -0.0893 -0.4936  0.0529
 7831TIP3    H144984   4.389   4.073  17.008  0.1128 -2.2812  0.0964
 7831TIP3    H244985   4.485   4.029  16.899 -1.2509 -2.4784 -1.0407
 7832TIP3   OH244986   2.044   1.311  13.737  0.1048  0.0348  0.4490
 7832TIP3    H144987   1.955   1.275  13.742  0.4140 -0.8270 -0.1124
 7832TIP3    H244988   2.068   1.304  13.645 -0.6329  3.7335 -0.1000
 7833TIP3   OH244989   2.884   3.698   4.318  0.3921  0.2269 -0.2166
 7833TIP3    H144990   2.816   3.658   4.264  1.6505 -0.4045 -1.3571
 7833TIP3    H244991   2.945   3.736   4.256 -0.3586  3.3309  0.8305
 7834TIP3   OH244992   5.115   2.161   3.081  0.3279 -0.3607 -0.1448
 7834TIP3    H144993   5.168   2.124   3.152  0.1696 -0.2617  0.0255
 7834TIP3    H244994   5.165   2.237   3.051 -0.0265  0.1021  0.4392
 7835TIP3   OH244995   0.298   4.473   2.715 -0.1591 -0.1460  0.5622
 7835TIP3    H144996   0.209   4.505   2.700 -0.7943 -2.4797 -0.9926
 7835TIP3    H244997   0.340   4.477   2.628  1.3154  1.0321  1.2929
 7836TIP3   OH244998   0.284   2.877  11.104  0.0070  0.1246 -0.2619
 7836TIP3    H144999   0.329   2.924  11.034 -0.1682  0.6449 -0.0286
 7836TIP3    H245000   0.265   2.791  11.067  2.2333 -0.5397  0.0256
 7837TIP3   OH245001   4.105   5.869  15.252 -0.5828  0.3250  0.0252
 7837TIP3    H145002   4.049   5.792  15.263 -1.0657  0.5052 -1.0618
 7837TIP3    H245003   4.064   5.936  15.308 -0.9541  0.1927 -0.0832
 7838TIP3   OH245004   2.382   6.452   0.218  0.4287  0.9284 -0.3880
 7838TIP3    H145005   2.410   6.441   0.308  1.2886 -3.9064 -1.1161
 7838TIP3    H245006   2.287   6.463   0.223  0.3193 -0.5923  1.0425
 7839TIP3   OH245007   2.734   4.916   1.744 -0.3861 -0.2729 -0.0872
 7839TIP3    H145008   2.772   5.003   1.746 -1.6225  0.2598  1.3612
 7839TIP3    H245009   2.640   4.930   1.756 -0.3962 -1.8865  2.2453
 7840TIP3   OH245010   3.499   2.584   1.189 -0.0063  0.0355 -0.0237
 7840TIP3    H145011   3.510   2.671   1.228 -0.0970  0.3914 -0.7982
 7840TIP3    H245012   3.568   2.579   1.123  0.3720 -0.7105  0.4172
 7841TIP3   OH245013   6.681   5.388  15.829 -0.4940 -0.1094 -0.5702
 7841TIP3    H145014   6.676   5.468  15.880  0.5672 -0.4735  0.1248
 7841TIP3    H245015   6.597   5.344  15.843  0.1746 -0.7143  1.7280
 7842TIP3   OH245016   5.491   5.934   4.090  0.1355 -0.3199  0.0118
 7842TIP3    H145017   5.440   5.966   4.016  1.1364 -1.3253 -1.1487
 7842TIP3    H245018   5.506   6.011   4.145  1.5821  0.9770 -2.1691
 7843TIP3   OH245019   0.704   2.789  17.170  0.4142 -0.0939  0.0559
 7843TIP3    H145020   0.686   2.696  17.170 -0.0092 -0.0139  0.2045
 7843TIP3    H245021   0.720   2.810  17.262 -0.9859  0.2620  0.2243
 7844TIP3   OH245022   5.440   4.214   3.841  0.3207  0.1023 -0.3722
 7844TIP3    H145023   5.460   4.164   3.762  0.2407 -0.4906 -0.0151
 7844TIP3    H245024   5.475   4.162   3.912 -1.3417 -0.3179  0.1513
 7845TIP3   OH245025   1.842   6.337  12.657  0.0787  0.3109 -0.6225
 7845TIP3    H145026   1.917   6.315  12.601  0.3229 -0.4874  0.0185
 7845TIP3    H245027   1.877   6.334  12.746 -0.8728 -0.6776 -0.2850
 7846TIP3   OH245028   2.778   2.018  13.207 -0.3288 -0.7050 -0.0891
 7846TIP3    H145029   2.774   1.971  13.124 -0.7649  0.0385 -0.4934
 7846TIP3    H245030   2.741   2.104  13.188 -0.5080 -0.5566  0.8968
 7847TIP3   OH245031   3.225   5.985  15.273  0.1166  0.1132 -0.7727
 7847TIP3    H145032   3.261   6.037  15.201  1.5659  1.2806  0.7541
 7847TIP3    H245033   3.302   5.956  15.322 -0.8845  0.1107  0.8219
 7848TIP3   OH245034   6.353   4.626  12.472  0.0394 -0.5321  0.1826
 7848TIP3    H145035   6.332   4.535  12.493 -0.1265 -0.2547  1.2719
 7848TIP3    H245036   6.268   4.669  12.461  0.0147  0.2288  3.0015
 7849TIP3   OH245037   2.589   6.125  12.305 -0.1659  0.0815 -0.0105
 7849TIP3    H145038   2.562   6.052  12.249  0.3060 -0.1313  0.0371
 7849TIP3    H245039   2.661   6.167  12.258 -1.5074  1.5254 -0.8173
 7850TIP3   OH245040   1.410   0.755   0.238 -0.2576  0.3038  0.4634
 7850TIP3    H145041   1.402   0.683   0.175 -0.2260  1.6179 -1.0866
 7850TIP3    H245042   1.501   0.750   0.269  0.4700  1.1047 -1.4516
 7851TIP3   OH245043   3.153   5.055  14.429 -0.3666  0.2137 -0.0993
 7851TIP3    H145044   3.194   4.990  14.486  0.0611 -0.5742 -1.2907
 7851TIP3    H245045   3.213   5.129  14.430 -0.0628 -0.0317  0.0062
 7852TIP3   OH245046   1.201   3.145   1.606 -0.4764  0.0369 -0.0121
 7852TIP3    H145047   1.190   3.232   1.644  1.5626  1.2201 -2.0080
 7852TIP3    H245048   1.286   3.115   1.639 -1.2920 -1.3305  0.8868
 7853TIP3   OH245049   2.616   3.293  16.591 -0.2821  0.1489 -0.1539
 7853TIP3    H145050   2.590   3.201  16.584  0.0002  0.1512 -1.4058
 7853TIP3    H245051   2.663   3.310  16.509  2.1482  0.6123  1.2762
 7854TIP3   OH245052   4.120   3.572   4.687  0.1400 -0.2965  0.7624
 7854TIP3    H145053   4.196   3.569   4.629 -0.1278  2.1146  0.2390
 7854TIP3    H245054   4.079   3.486   4.677  1.6588 -0.9117 -0.4586
 7855TIP3   OH245055   5.344   4.797  16.177 -0.1336 -0.3253  0.3942
 7855TIP3    H145056   5.314   4.887  16.184  1.6391  0.4056 -0.8699
 7855TIP3    H245057   5.353   4.767  16.267  1.5235  1.5816  0.8989
 7856TIP3   OH245058   0.466   4.313   4.646  0.3485 -0.0603 -0.1777
 7856TIP3    H145059   0.395   4.377   4.643  1.0682  0.7167 -1.1129
 7856TIP3    H245060   0.537   4.354   4.597  1.0376 -1.3331 -0.2665
 7857TIP3   OH245061   6.439   2.847  15.192  0.1173 -0.4631  0.4549
 7857TIP3    H145062   6.452   2.939  15.213  1.8030 -0.9186  1.5648
 7857TIP3    H245063   6.508   2.828  15.128 -1.8480 -0.3384 -1.7769
 7858TIP3   OH245064   6.803   6.636   4.575 -0.7549 -0.6213 -0.1758
 7858TIP3    H145065   6.723   6.620   4.625 -0.9432  0.4739 -0.1221
 7858TIP3    H245066   6.868   6.576   4.612 -1.1488 -0.4707  0.7545
 7859TIP3   OH245067   5.630   6.167  14.704  0.8807  0.7011 -0.0859
 7859TIP3    H145068   5.656   6.085  14.661 -0.7925 -0.1091  0.4306
 7859TIP3    H245069   5.694   6.178  14.775  0.4838 -0.7121  0.5049
 7860TIP3   OH245070   1.975   5.849   5.767 -0.7526 -0.6099 -0.2127
 7860TIP3    H145071   1.953   5.797   5.690  1.1772 -1.0452 -0.5026
 7860TIP3    H245072   2.070   5.861   5.762 -0.9902  1.9247  0.4999
 7861TIP3   OH245073   3.723   1.517   0.108  0.4829  0.0495  0.0220
 7861TIP3    H145074   3.748   1.458   0.179  0.9703  1.2688  0.8837
 7861TIP3    H245075   3.630   1.532   0.121  0.0982 -1.4820 -0.9204
 7862TIP3   OH245076   2.391   2.016  15.157  1.1667  0.0883 -0.1401
 7862TIP3    H145077   2.406   2.097  15.108  1.6468 -0.1379 -0.3715
 7862TIP3    H245078   2.315   2.035  15.212 -1.6602 -0.7709 -3.5195
 7863TIP3   OH245079   3.988   0.417  16.471 -0.2711 -0.5382 -0.2119
 7863TIP3    H145080   4.002   0.508  16.447  0.2320 -1.1372 -2.3566
 7863TIP3    H245081   3.892   0.408  16.475 -0.3186  0.1260  0.2396
 7864TIP3   OH245082   3.274   6.485   6.440  0.0759 -0.5925 -0.4769
 7864TIP3    H145083   3.328   6.489   6.361 -0.0946  0.1129 -0.5597
 7864TIP3    H245084   3.241   6.574   6.451  1.9765 -0.1071  1.6902
 7865TIP3   OH245085   4.942   4.541  13.298  0.5392  0.0699 -0.5630
 7865TIP3    H145086   4.888   4.501  13.230 -2.7974  1.3546  1.2030
 7865TIP3    H245087   4.924   4.489  13.377  0.9124  1.2956  0.3424
 7866TIP3   OH245088   4.019   2.956  10.815  0.1638  0.0624 -0.3579
 7866TIP3    H145089   3.994   3.048  10.816  2.3594  0.6785 -0.0467
 7866TIP3    H245090   4.103   2.953  10.859  0.8051 -1.8937 -1.6180
 7867TIP3   OH245091   4.763   2.032  12.121  0.1975  0.2111 -0.0985
 7867TIP3    H145092   4.839   2.083  12.090  1.1457 -0.7716  0.5759
 7867TIP3    H245093   4.770   2.037  12.217  0.8978 -2.0597 -0.0188
 7868TIP3   OH245094   2.039   5.371  11.581 -0.2490 -0.0500 -0.3822
 7868TIP3    H145095   2.017   5.374  11.674  1.0518  1.5636 -0.0897
 7868TIP3    H245096   1.957   5.391  11.536 -1.0510 -1.5413  0.3688
 7869TIP3   OH245097   3.813   2.816   4.692 -0.0484 -0.1707  0.1784
 7869TIP3    H145098   3.896   2.769   4.692 -0.5943 -1.1856  2.0142
 7869TIP3    H245099   3.749   2.752   4.722 -1.6595  0.3658 -1.9370
 7870TIP3   OH245100   0.927   6.008   3.231  0.1013  0.0572  0.0595
 7870TIP3    H145101   0.882   6.000   3.147 -0.6465 -1.9678  0.6144
 7870TIP3    H245102   1.020   6.012   3.209 -0.1658  0.7777 -0.9261
 7871TIP3   OH245103   6.071   5.821   4.457 -0.1153 -0.1048 -0.3113
 7871TIP3    H145104   6.026   5.737   4.445  0.6078 -0.6573  0.8590
 7871TIP3    H245105   6.040   5.874   4.384 -1.5125 -0.9871 -0.3887
 7872TIP3   OH245106   6.333   6.277   6.654 -0.0594  0.0011 -0.1719
 7872TIP3    H145107   6.422   6.253   6.678  0.0888  0.9468  0.2479
 7872TIP3    H245108   6.320   6.364   6.691 -0.2586  0.9654 -2.4253
 7873TIP3   OH245109   4.531   2.392  11.571  1.0669  0.5113  0.1059
 7873TIP3    H145110   4.471   2.362  11.502  0.9270  0.9766  0.0238
 7873TIP3    H245111   4.608   2.336  11.561  1.7839  1.7721 -1.5913
 7874TIP3   OH245112   6.515   1.162  14.161  0.0474 -0.4646  0.4008
 7874TIP3    H145113   6.499   1.094  14.226  2.7613 -1.8605 -0.3043
 7874TIP3    H245114   6.608   1.183  14.171 -0.6578  2.9744  0.4115
 7875TIP3   OH245115   4.583   0.842   0.262  0.7166 -0.2018 -0.8295
 7875TIP3    H145116   4.620   0.780   0.324  1.1049  0.3511 -0.4986
 7875TIP3    H245117   4.489   0.842   0.279  0.6798 -0.9103 -1.0304
 7876TIP3   OH245118   3.613   3.466   0.940  0.4167  0.2638  0.2014
 7876TIP3    H145119   3.636   3.373   0.940 -1.7866 -0.3267 -1.2893
 7876TIP3    H245120   3.679   3.507   0.884  0.5350 -0.6500 -0.3400
 7877TIP3   OH245121   2.503   5.941  14.222 -0.2555 -0.2694  0.0333
 7877TIP3    H145122   2.496   5.930  14.317 -1.6945 -1.6784 -0.2149
 7877TIP3    H245123   2.457   6.023  14.205  1.5693  0.9201  0.7449
 7878TIP3   OH245124   4.667   1.502   5.612  0.5991  0.2886  0.9857
 7878TIP3    H145125   4.693   1.467   5.697 -1.2671 -0.5109  1.2393
 7878TIP3    H245126   4.588   1.552   5.629  1.0882  1.4403 -0.0325
 7879TIP3   OH245127   1.010   6.228  17.292 -0.3641  0.2272 -0.1090
 7879TIP3    H145128   1.037   6.249  17.381 -1.7641  0.7279  0.1962
 7879TIP3    H245129   1.055   6.145  17.273  1.8497  1.3224  0.1741
 7880TIP3   OH245130   2.148   2.632   5.847  0.4191  0.0478  0.2461
 7880TIP3    H145131   2.174   2.718   5.880 -2.4089  1.2201 -0.4243
 7880TIP3    H245132   2.166   2.572   5.920  0.9846  1.4572  1.2821
 7881TIP3   OH245133   6.031   4.802   5.618  0.8751 -0.1282 -0.3851
 7881TIP3    H145134   5.969   4.734   5.591 -0.8276  1.9768 -1.8963
 7881TIP3    H245135   6.001   4.828   5.705  0.6080 -0.2199 -0.4490
 7882TIP3   OH245136   0.598   4.911   2.067  0.9375  0.2272 -0.7507
 7882TIP3    H145137   0.620   4.825   2.032 -1.5177 -0.6591 -0.2442
 7882TIP3    H245138   0.634   4.912   2.156  3.0031  0.6431 -1.5742
 7883TIP3   OH245139   4.818   3.083   1.996 -0.2819  0.1358 -0.1788
 7883TIP3    H145140   4.762   3.012   2.028  0.1775  0.3088  1.0181
 7883TIP3    H245141   4.905   3.044   1.990 -0.1452  0.4339 -0.1194
 7884TIP3   OH245142   0.250   3.768   4.218 -0.3443  0.4753 -0.6933
 7884TIP3    H145143   0.233   3.729   4.304  1.0125  0.2184 -0.5288
 7884TIP3    H245144   0.249   3.863   4.234 -1.5242  0.4744 -0.6867
 7885TIP3   OH245145   2.525   4.984   2.999 -0.0811 -0.0757 -0.1412
 7885TIP3    H145146   2.435   4.955   2.983  0.4005 -0.8487 -1.5702
 7885TIP3    H245147   2.519   5.038   3.077 -1.5416 -1.3586  0.6636
 7886TIP3   OH245148   5.424   0.091  12.045 -0.3087  0.1821 -0.1237
 7886TIP3    H145149   5.428   0.114  12.137 -2.2899 -0.8147  0.2191
 7886TIP3    H245150   5.394   0.000  12.043  0.4161 -0.0529 -1.7292
 7887TIP3   OH245151   6.111   3.332  16.044 -0.8793  0.0595 -0.3687
 7887TIP3    H145152   6.107   3.400  16.111  0.3052  0.7371 -0.9733
 7887TIP3    H245153   6.155   3.258  16.086 -0.0589  0.5143 -0.4128
 7888TIP3   OH245154   0.442   1.791   0.588  0.0569  0.2519  0.7067
 7888TIP3    H145155   0.486   1.875   0.570 -3.6170  2.1530  0.1763
 7888TIP3    H245156   0.359   1.815   0.629 -0.1646 -3.2802  2.5181
 7889TIP3   OH245157   0.668   0.743  15.185 -0.3018 -0.4641 -0.3718
 7889TIP3    H145158   0.755   0.713  15.213 -1.1814 -1.7663  1.0008
 7889TIP3    H245159   0.641   0.679  15.119  0.0860  0.3956 -1.4018
 7890TIP3   OH245160   2.045   0.610   3.093  0.5225 -0.0265 -1.1381
 7890TIP3    H145161   2.025   0.518   3.111  1.1085 -0.3790 -2.2021
 7890TIP3    H245162   1.964   0.657   3.111  0.4377 -0.6571  0.1345
 7891TIP3   OH245163   6.121   0.304   0.913 -0.9707  0.3699  0.1028
 7891TIP3    H145164   6.101   0.212   0.929 -0.0075  0.0352 -0.5769
 7891TIP3    H245165   6.047   0.336   0.862  0.4734 -1.0441 -3.0413
 7892TIP3   OH245166   5.195   1.914   5.516  0.0721 -0.0459  0.2165
 7892TIP3    H145167   5.227   1.892   5.603 -1.4707  0.0767  0.8430
 7892TIP3    H245168   5.185   2.009   5.518 -0.1688 -0.0653 -0.0079
 7893TIP3   OH245169   3.924   6.740   1.463  0.2972  0.5608  0.5156
 7893TIP3    H145170   3.871   6.730   1.542 -0.1861 -0.5324  0.0650
 7893TIP3    H245171   3.962   6.653   1.448  1.2409  1.0244  0.1407
 7894TIP3   OH245172   0.666   6.087   3.672 -1.3508 -0.0903 -0.1217
 7894TIP3    H145173   0.707   6.119   3.592 -0.2867 -2.4316 -0.5507
 7894TIP3    H245174   0.605   6.157   3.697 -1.2315  0.9558 -2.6066
 7895TIP3   OH245175   4.211   0.741  11.955 -0.2886 -0.5423 -0.3182
 7895TIP3    H145176   4.176   0.700  12.034  1.4610  0.1432  0.8556
 7895TIP3    H245177   4.302   0.761  11.977  0.3474 -0.7228 -2.6639
 7896TIP3   OH245178   2.991   3.452  12.281  0.3261 -0.0624 -0.0148
 7896TIP3    H145179   2.973   3.542  12.255  0.6310 -0.5307 -1.8480
 7896TIP3    H245180   2.905   3.410  12.281  0.3847 -0.1804 -0.7027
 7897TIP3   OH245181   6.820   6.662  14.834 -0.2999 -0.2656 -0.1577
 7897TIP3    H145182   6.788   6.716  14.762 -1.7323  0.8531  1.2794
 7897TIP3    H245183   6.770   6.581  14.827 -1.6867  0.5089  0.5769
 7898TIP3   OH245184   4.656   4.585   3.033  0.5191  0.2205 -0.0578
 7898TIP3    H145185   4.695   4.590   3.120  1.3934 -2.1194 -0.2770
 7898TIP3    H245186   4.584   4.522   3.043 -0.5745  1.3523 -0.6167
 7899TIP3   OH245187   4.877   6.018  12.559 -0.3024  0.3032 -0.0036
 7899TIP3    H145188   4.837   6.093  12.604 -1.2882 -0.8817  1.1491
 7899TIP3    H245189   4.905   5.960  12.630  0.1676 -0.5564 -0.8890
 7900TIP3   OH245190   4.650   1.911   3.049  0.0839 -0.6530 -0.3867
 7900TIP3    H145191   4.575   1.871   3.093  0.2146  0.1936  0.6464
 7900TIP3    H245192   4.615   1.943   2.966 -1.2209  1.5405  0.9489
 7901TIP3   OH245193   0.524   3.594   0.201  0.6321 -0.2413 -0.6378
 7901TIP3    H145194   0.594   3.532   0.218  0.0176 -1.1204 -1.2914
 7901TIP3    H245195   0.551   3.674   0.246  0.8767 -1.3297  1.2077
 7902TIP3   OH245196   1.574   1.648  13.357  0.1784  0.0942  0.1962
 7902TIP3    H145197   1.533   1.568  13.327  0.5457  0.1717 -0.5093
 7902TIP3    H245198   1.512   1.684  13.421  1.2701 -2.1662  2.6190
 7903TIP3   OH245199   3.611   4.876   5.724  0.5464 -0.1176  0.0724
 7903TIP3    H145200   3.570   4.866   5.638 -0.1847  4.0254 -0.1692
 7903TIP3    H245201   3.697   4.835   5.715 -0.5340 -2.0803 -1.7782
 7904TIP3   OH245202   2.631   0.814   5.883  0.1204  0.0880 -0.4961
 7904TIP3    H145203   2.579   0.755   5.828 -1.8385 -0.5096  1.9152
 7904TIP3    H245204   2.567   0.852   5.944  2.0039  1.7893  0.4745
 7905TIP3   OH245205   3.570   5.410  13.882 -0.1641 -0.1421  0.4108
 7905TIP3    H145206   3.616   5.351  13.941  0.1183 -0.5787 -0.2360
 7905TIP3    H245207   3.551   5.357  13.804 -1.7401  0.0381  0.6511
 7906TIP3   OH245208   6.163   6.090   5.284 -0.1323  0.1793  0.3677
 7906TIP3    H145209   6.115   6.013   5.256  1.1425  0.0046 -1.4042
 7906TIP3    H245210   6.098   6.160   5.285 -0.7126 -0.3446 -0.6563
 7907TIP3   OH245211   0.272   5.054   6.247  0.3946  0.6431  0.2434
 7907TIP3    H145212   0.344   5.034   6.187 -0.1658  1.3959 -0.6965
 7907TIP3    H245213   0.279   5.148   6.262  0.4826  0.4724  1.3158
 7908TIP3   OH245214   2.303   2.544   1.547 -0.3547  0.4712  0.9491
 7908TIP3    H145215   2.387   2.499   1.539 -0.9005 -0.4402  0.1838
 7908TIP3    H245216   2.261   2.505   1.624 -0.2462  0.6427  1.0951
 7909TIP3   OH245217   4.601   4.535   6.182 -0.3320 -0.3620  0.3228
 7909TIP3    H145218   4.640   4.619   6.159  0.2247 -0.7828 -0.2775
 7909TIP3    H245219   4.670   4.471   6.168 -1.1695 -1.0973 -0.5616
 7910TIP3   OH245220   6.659   3.851   3.177 -0.1881  0.1299  0.7609
 7910TIP3    H145221   6.728   3.836   3.112  0.2989  0.8284  1.1081
 7910TIP3    H245222   6.609   3.770   3.178  0.1392 -0.0899 -0.0862
 7911TIP3   OH245223   3.833   2.726  13.246  0.0057 -0.2368  0.0489
 7911TIP3    H145224   3.775   2.675  13.189 -0.6875 -0.3224  0.8283
 7911TIP3    H245225   3.919   2.686  13.234 -0.2529 -0.6466 -0.4700
 7912TIP3   OH245226   3.457   1.891   4.472  0.4496  0.3895 -0.2990
 7912TIP3    H145227   3.426   1.809   4.510  1.8804 -0.4504 -0.8894
 7912TIP3    H245228   3.395   1.911   4.402 -1.8403  1.6110  2.0075
 7913TIP3   OH245229   1.570   2.269  15.809  0.9624 -0.1291  0.0665
 7913TIP3    H145230   1.520   2.195  15.776 -1.3714  1.6018 -0.3633
 7913TIP3    H245231   1.567   2.259  15.904  0.7605 -0.6432  0.0077
 7914TIP3   OH245232   5.578   2.356  15.920 -0.4147 -0.2465  0.2196
 7914TIP3    H145233   5.583   2.351  15.824  0.3214 -1.7623  0.3195
 7914TIP3    H245234   5.638   2.288  15.951 -1.2912 -0.3464  1.7560
 7915TIP3   OH245235   5.467   1.116  13.736  0.1003  0.5963  0.1617
 7915TIP3    H145236   5.459   1.209  13.714  1.1340  0.9056  1.0411
 7915TIP3    H245237   5.555   1.092  13.705  0.5802  0.4067  1.6431
 7916TIP3   OH245238   1.523   6.410   4.620 -0.1162 -0.2704 -0.3358
 7916TIP3    H145239   1.437   6.447   4.642  0.5860  0.7357  0.8266
 7916TIP3    H245240   1.519   6.320   4.651  0.0068  0.4270  1.8200
 7917TIP3   OH245241   6.127   4.209   2.440 -0.0417  0.2036 -0.1319
 7917TIP3    H145242   6.047   4.159   2.423  0.2287  0.4485 -2.2955
 7917TIP3    H245243   6.113   4.293   2.396  0.5269  1.0981  1.3425
 7918TIP3   OH245244   4.322   4.134  12.759  0.3410 -0.1810 -0.4600
 7918TIP3    H145245   4.241   4.182  12.739  0.8564  0.6073 -0.6696
 7918TIP3    H245246   4.379   4.150  12.684  1.2635  0.5379  0.3827
 7919TIP3   OH245247   4.628   2.731  11.440 -0.0403 -0.2310 -0.0090
 7919TIP3    H145248   4.609   2.686  11.522 -0.7621  0.6858  0.3376
 7919TIP3    H245249   4.586   2.816  11.449  0.6684  0.2311 -0.9612
 7920TIP3   OH245250   1.540   0.941   6.119 -0.0791 -0.0907 -0.0137
 7920TIP3    H145251   1.595   0.999   6.066 -0.3973  0.0742 -0.1654
 7920TIP3    H245252   1.566   0.958   6.209 -0.9937  1.1427  0.0201
 7921TIP3   OH245253   5.980   1.542   3.247  0.2726  0.8328 -0.3680
 7921TIP3    H145254   5.962   1.448   3.247 -0.2818  0.9340  0.6511
 7921TIP3    H245255   5.967   1.570   3.337  1.3315  1.7279 -0.4801
 7922TIP3   OH245256   4.544   3.312  11.240  0.1966  0.1642  0.3173
 7922TIP3    H145257   4.605   3.270  11.179  0.1972  0.6529 -0.0226
 7922TIP3    H245258   4.461   3.267  11.226  0.7851 -1.4157  1.7283
 7923TIP3   OH245259   2.437   4.081   3.188  0.3212  0.0441  0.2582
 7923TIP3    H145260   2.390   4.026   3.250  1.3999 -0.9042  0.2458
 7923TIP3    H245261   2.466   4.156   3.240  0.4869 -0.3299  0.7105
 7924TIP3   OH245262   6.773   2.254   4.153  0.2449 -0.2585 -0.7460
 7924TIP3    H145263   6.783   2.345   4.124 -1.9421 -0.2284 -1.4657
 7924TIP3    H245264   6.705   2.256   4.219  1.1729 -1.1948  0.2690
 7925TIP3   OH245265   6.594   3.508   3.914 -0.0568 -0.2236  0.3011
 7925TIP3    H145266   6.686   3.480   3.905 -0.1624 -0.8758  1.2543
 7925TIP3    H245267   6.594   3.569   3.987 -0.4878 -0.7211  0.7224
 7926TIP3   OH245268   2.138   5.897   0.591 -0.1013  0.6466  0.3326
 7926TIP3    H145269   2.064   5.946   0.553  0.2180 -0.8611 -2.3964
 7926TIP3    H245270   2.211   5.958   0.588 -0.9600  1.8106  2.1000
 7927TIP3   OH245271   4.032   0.839   2.370  0.1425  0.2182 -0.8925
 7927TIP3    H145272   4.049   0.920   2.418 -0.4638  0.5368 -1.1948
 7927TIP3    H245273   4.062   0.769   2.427  2.6759  0.7564 -1.5307
 7928TIP3   OH245274   6.423   2.638   3.144  0.6079  0.0284 -0.3898
 7928TIP3    H145275   6.357   2.708   3.137  1.7414  1.2194  0.5766
 7928TIP3    H245276   6.374   2.562   3.174 -0.6864  0.3487 -1.6195
 7929TIP3   OH245277   0.754   0.183   5.334  0.0353 -0.8823  0.3427
 7929TIP3    H145278   0.773   0.276   5.319 -1.0290 -0.4643  1.5780
 7929TIP3    H245279   0.662   0.181   5.360  0.3548 -2.1639  1.4036
 7930TIP3   OH245280   5.642   6.732   1.436 -0.1992  0.1917 -0.5995
 7930TIP3    H145281   5.630   6.643   1.468 -1.0134  0.7359  0.6675
 7930TIP3    H245282   5.675   6.780   1.513  1.0901  0.7893 -1.5099
 7931TIP3   OH245283   1.880   2.749   5.371  0.5139  0.6595 -0.0885
 7931TIP3    H145284   1.954   2.811   5.373 -0.2384  1.5947 -0.7066
 7931TIP3    H245285   1.803   2.805   5.356 -0.3692 -0.2623  0.9430
 7932TIP3   OH245286   1.143   6.253   4.688 -0.3084 -0.0415  0.7063
 7932TIP3    H145287   1.155   6.271   4.595  0.9148 -1.5577  0.5446
 7932TIP3    H245288   1.060   6.205   4.692  0.6660 -1.8192  0.1209
 7933TIP3   OH245289   2.046   2.490  16.763 -0.3477  0.0462  0.4606
 7933TIP3    H145290   2.111   2.558  16.752 -0.2518 -0.0983  0.1486
 7933TIP3    H245291   2.015   2.470  16.675  0.5759 -1.2474  0.4156
 7934TIP3   OH245292   1.305   3.425   6.156  0.5216  0.4642  0.8209
 7934TIP3    H145293   1.393   3.459   6.137  0.7681  1.3853  3.4234
 7934TIP3    H245294   1.321   3.336   6.187  0.2481 -0.4545 -1.5479
 7935TIP3   OH245295   4.087   5.436  14.169 -0.1347  0.1874  0.3271
 7935TIP3    H145296   4.071   5.367  14.232 -2.9649 -2.2089 -2.8235
 7935TIP3    H245297   4.164   5.407  14.120 -0.2520  0.1385  0.1721
 7936TIP3   OH245298   3.708   6.502  14.008 -0.3649  0.2035 -0.7269
 7936TIP3    H145299   3.672   6.567  13.947 -1.8807 -0.4212 -0.5259
 7936TIP3    H245300   3.688   6.538  14.095 -0.7639 -0.2844 -0.6157
 7937TIP3   OH245301   4.740   1.753   3.724  0.1952 -0.0568  0.4545
 7937TIP3    H145302   4.711   1.680   3.669  1.2847 -0.5597  0.5466
 7937TIP3    H245303   4.753   1.825   3.661 -0.8438  0.0658  0.3614
 7938TIP3   OH245304   3.246   4.049   0.051  0.4109 -0.4387 -0.2762
 7938TIP3    H145305   3.202   4.128   0.082  0.6819 -0.4480  0.1306
 7938TIP3    H245306   3.226   3.983   0.117  1.5576 -0.2808  0.2425
 7939TIP3   OH245307   0.178   3.466  15.973  0.0687  0.8113 -0.2814
 7939TIP3    H145308   0.152   3.547  16.016  0.4183  0.7590  0.0297
 7939TIP3    H245309   0.098   3.434  15.932  0.2147  2.0423 -1.5949
 7940TIP3   OH245310   1.783   4.740   3.607  0.6186  0.2648  0.6122
 7940TIP3    H145311   1.753   4.697   3.527  0.9294  1.8555 -0.3812
 7940TIP3    H245312   1.867   4.699   3.626 -0.3756 -1.5496  1.2878
 7941TIP3   OH245313   5.458   2.540  16.532 -0.5988 -0.0765  0.4761
 7941TIP3    H145314   5.549   2.538  16.563 -0.6334 -1.3114  0.5413
 7941TIP3    H245315   5.409   2.495  16.601 -1.3651  1.1972  0.7631
 7942TIP3   OH245316   6.278   0.034  16.352  0.1265 -0.5139 -0.2124
 7942TIP3    H145317   6.343  -0.037  16.353  1.3391  0.5569  1.6006
 7942TIP3    H245318   6.303   0.089  16.426 -1.4635  1.2138 -0.9311
 7943TIP3   OH245319   3.480   2.763  10.953  0.3811  0.2070 -0.4979
 7943TIP3    H145320   3.463   2.705  11.027  0.4743 -0.0384 -0.6672
 7943TIP3    H245321   3.476   2.851  10.990  1.3094  0.0553 -0.0161
 7944TIP3   OH245322   6.678   3.800   0.220  0.0968 -0.1952  0.2034
 7944TIP3    H145323   6.719   3.772   0.302  0.6140  0.8057  0.3033
 7944TIP3    H245324   6.752   3.825   0.164 -0.2998  0.0212 -0.2217
 7945TIP3   OH245325   5.044   4.154  16.350 -0.3157 -0.6631 -0.1038
 7945TIP3    H145326   5.073   4.171  16.260  1.1007  2.2697  0.8528
 7945TIP3    H245327   4.958   4.194  16.356 -0.7726 -1.5945 -0.3837
 7946TIP3   OH245328   3.223   4.714  13.425  0.3666  0.3106  0.0534
 7946TIP3    H145329   3.171   4.756  13.357  0.5304  0.2526 -0.1085
 7946TIP3    H245330   3.166   4.715  13.502 -0.5033 -1.1928 -0.5349
 7947TIP3   OH245331   2.030   3.183  12.648 -0.6291 -0.3597  0.0957
 7947TIP3    H145332   2.006   3.198  12.740 -1.5452 -0.8812 -0.0595
 7947TIP3    H245333   2.014   3.090  12.634 -3.2134  0.2755 -1.4082
 7948TIP3   OH245334   3.083   5.473  12.336 -0.6143  0.0003  0.0361
 7948TIP3    H145335   3.096   5.504  12.246 -0.0754 -0.0504  0.0935
 7948TIP3    H245336   2.988   5.467  12.346 -0.6625 -0.8763 -0.8272
 7949TIP3   OH245337   3.152   2.085  14.744 -0.1979  0.2073 -0.1231
 7949TIP3    H145338   3.217   2.032  14.698  0.0279  0.3841 -0.0088
 7949TIP3    H245339   3.201   2.159  14.779 -0.5188  0.5126 -0.3118
 7950TIP3   OH245340   5.297   4.824  14.257  0.1763 -0.0746 -0.3493
 7950TIP3    H145341   5.212   4.799  14.293 -0.5278 -0.4559 -2.1871
 7950TIP3    H245342   5.338   4.875  14.326 -0.4906 -1.9870  1.5286
 7951TIP3   OH245343   2.878   0.084  12.190  0.2619  0.5506  0.6960
 7951TIP3    H145344   2.927   0.002  12.188  0.2746  0.5735 -0.4960
 7951TIP3    H245345   2.791   0.059  12.223  0.4136  0.1336  0.7773
 7952TIP3   OH245346   5.995   1.449   5.492  0.1171 -0.4043  0.1838
 7952TIP3    H145347   6.012   1.490   5.407 -1.8214  0.7866  0.3326
 7952TIP3    H245348   6.041   1.505   5.555  1.7565 -1.4280 -0.1016
 7953TIP3   OH245349   5.573   3.541   3.037  0.1646  0.5848 -0.3306
 7953TIP3    H145350   5.486   3.570   3.012 -0.1074  2.6363  2.7560
 7953TIP3    H245351   5.630   3.616   3.019  0.6156  0.6495  1.2965
 7954TIP3   OH245352   5.495   0.674  11.984  0.3148 -0.3286 -0.4184
 7954TIP3    H145353   5.550   0.620  12.041  1.5392 -0.4977 -1.7189
 7954TIP3    H245354   5.553   0.745  11.956 -1.1103  1.3501  0.7922
 7955TIP3   OH245355   1.679   6.340  12.242 -0.1234  0.6223  0.0471
 7955TIP3    H145356   1.593   6.321  12.279 -0.1715 -0.9779 -0.8553
 7955TIP3    H245357   1.670   6.320  12.149  0.8260  1.8331 -0.3217
 7956TIP3   OH245358   1.088   1.648   5.928  0.2172 -0.0025  0.1028
 7956TIP3    H145359   1.175   1.673   5.896 -0.1175 -1.5828 -2.1545
 7956TIP3    H245360   1.098   1.559   5.960  0.1750  1.0114  3.1058
 7957TIP3   OH245361   6.219   5.100   2.624  0.4824  0.1031 -0.1099
 7957TIP3    H145362   6.228   5.177   2.568  1.3880  0.2319  0.2043
 7957TIP3    H245363   6.273   5.034   2.582 -0.3665 -0.4027 -0.4295
 7958TIP3   OH245364   4.060   0.437   4.075  0.9201 -0.1461 -0.1462
 7958TIP3    H145365   4.058   0.425   3.980  0.7619 -0.6918 -0.0740
 7958TIP3    H245366   4.005   0.513   4.090  0.2199 -0.5978 -0.4106
 7959TIP3   OH245367   6.332   4.350  12.476 -0.2470  0.2077  0.7234
 7959TIP3    H145368   6.264   4.326  12.413  0.6047  0.3147 -0.2470
 7959TIP3    H245369   6.313   4.296  12.553  0.1565 -1.7712 -0.5101
 7960TIP3   OH245370   0.093   3.893  11.611  0.2687  0.2425 -0.2849
 7960TIP3    H145371   0.012   3.945  11.615 -1.2313 -2.0309 -0.5378
 7960TIP3    H245372   0.109   3.881  11.517 -0.6316 -1.6159 -0.2160
 7961TIP3   OH245373   3.719   0.529   1.200  0.1894 -0.2441 -0.6754
 7961TIP3    H145374   3.660   0.601   1.177  0.6061  0.0791 -0.7377
 7961TIP3    H245375   3.781   0.567   1.262  1.0011 -0.2948 -1.4407
 7962TIP3   OH245376   6.812   5.566   6.104  0.3946  0.5725 -0.4894
 7962TIP3    H145377   6.871   5.562   6.179  1.6713  0.3357 -1.4967
 7962TIP3    H245378   6.736   5.514   6.131  0.8013  0.5672  0.6692
 7963TIP3   OH245379   3.958   1.705  10.880 -0.0022  0.9788  0.1400
 7963TIP3    H145380   3.869   1.677  10.859  0.3066  0.2706 -0.2567
 7963TIP3    H245381   3.952   1.799  10.893 -1.1989  0.6533  2.1602
 7964TIP3   OH245382   6.629   6.065   4.966 -0.0017 -0.3781  1.2681
 7964TIP3    H145383   6.555   6.012   4.997 -0.2947 -0.2760  0.7678
 7964TIP3    H245384   6.601   6.156   4.980  1.3489 -0.3378  4.0645
 7965TIP3   OH245385   2.291   6.631  10.834  0.0551 -0.9421 -0.4978
 7965TIP3    H145386   2.226   6.701  10.848  1.3696  0.3200 -0.5818
 7965TIP3    H245387   2.243   6.563  10.788 -0.5675  1.0719 -2.9301
 7966TIP3   OH245388   5.921   1.935  12.562  0.1864 -0.3709 -0.1860
 7966TIP3    H145389   5.975   2.012  12.579 -0.7077  0.3775 -0.7211
 7966TIP3    H245390   5.966   1.864  12.609  1.2881  0.3623 -0.1105
 7967TIP3   OH245391   0.991   0.027   3.836 -0.0121  0.0021 -0.9068
 7967TIP3    H145392   1.075   0.031   3.790  0.1675  1.3020 -0.5049
 7967TIP3    H245393   1.014   0.022   3.928 -0.3185  2.6571 -0.6241
 7968TIP3   OH245394   0.271   1.479  15.238  0.2060 -0.0584  0.3677
 7968TIP3    H145395   0.187   1.435  15.229 -0.7676  1.8758 -0.2781
 7968TIP3    H245396   0.331   1.428  15.184 -1.0397 -0.1917 -0.9151
 7969TIP3   OH245397   5.017   1.872  12.434  0.0894 -0.1366  0.2744
 7969TIP3    H145398   5.053   1.784  12.428 -0.5875 -0.3501 -0.9162
 7969TIP3    H245399   4.941   1.864  12.492 -0.8222 -0.6505 -0.9483
 7970TIP3   OH245400   5.860   2.516   3.269 -0.3356  0.0652 -0.0634
 7970TIP3    H145401   5.928   2.449   3.283 -0.9162 -0.7477 -1.0583
 7970TIP3    H245402   5.887   2.589   3.324  0.3369 -0.9803  1.0261
 7971TIP3   OH245403   3.915   2.723  17.026 -0.3137  0.0688  0.0366
 7971TIP3    H145404   3.876   2.636  17.022  0.5492 -0.3210  0.0106
 7971TIP3    H245405   3.919   2.751  16.934  0.4714 -0.3391 -0.0505
 7972TIP3   OH245406   4.652   6.207   0.709  0.8397 -0.0437 -0.7526
 7972TIP3    H145407   4.568   6.252   0.700 -0.5166 -2.0612  1.1846
 7972TIP3    H245408   4.673   6.176   0.620 -0.8501 -0.1600 -1.1214
 7973TIP3   OH245409   1.140   4.578   0.053  0.0955 -0.4030 -0.3933
 7973TIP3    H145410   1.104   4.591   0.141  0.0458 -0.9331 -0.3367
 7973TIP3    H245411   1.129   4.485   0.035 -1.7450  0.0660 -1.7967
 7974TIP3   OH245412   2.046   1.558  14.590 -0.1292  0.3096  0.4231
 7974TIP3    H145413   2.100   1.572  14.512 -1.6711  1.2379 -0.5154
 7974TIP3    H245414   2.079   1.622  14.653  0.9677 -0.2768  0.4442
 7975TIP3   OH245415   0.898   4.780   0.125 -0.4567 -0.0126  0.2263
 7975TIP3    H145416   0.864   4.822   0.046 -0.8330  0.1992  0.4959
 7975TIP3    H245417   0.986   4.818   0.136 -1.0361  1.2067  0.8216
 7976TIP3   OH245418   3.966   3.099  11.799  0.3611 -0.3487 -0.3064
 7976TIP3    H145419   4.041   3.079  11.744  0.7718 -1.8463  0.7839
 7976TIP3    H245420   3.893   3.052  11.757  0.2600  0.1661 -0.7127
 7977TIP3   OH245421   0.080   5.251  12.042 -0.2317  0.1618 -0.3231
 7977TIP3    H145422   0.125   5.335  12.028  1.5402 -1.1284 -2.6810
 7977TIP3    H245423   0.086   5.237  12.137  1.9411  1.3680 -0.2472
 7978TIP3   OH245424   0.523   6.456   1.375  0.2571 -0.2534 -0.1624
 7978TIP3    H145425   0.577   6.434   1.299  2.1345  2.9231  0.1544
 7978TIP3    H245426   0.553   6.396   1.443  1.3728 -0.4501 -0.8037
 7979TIP3   OH245427   1.193   0.796   5.584  0.2117  0.2829 -0.0416
 7979TIP3    H145428   1.111   0.845   5.572 -0.0402  0.2588  1.5363
 7979TIP3    H245429   1.254   0.859   5.622  0.6445  0.0499 -0.3483
 7980TIP3   OH245430   4.182   0.022   2.862  0.3685  0.6247 -0.3661
 7980TIP3    H145431   4.270   0.052   2.838  0.2463  0.0943 -1.5323
 7980TIP3    H245432   4.155  -0.034   2.788 -0.0549 -1.0293  1.0157
 7981TIP3   OH245433   3.763   0.042   1.259 -0.2754 -0.3223 -0.7960
 7981TIP3    H145434   3.820   0.028   1.335  0.4491  1.9758 -0.8768
 7981TIP3    H245435   3.698  -0.028   1.265 -0.3296 -0.1187  2.0244
 7982TIP3   OH245436   0.548   2.005  11.996  0.6046 -0.2380 -0.0293
 7982TIP3    H145437   0.525   1.914  12.015  0.4870 -0.1958  0.0308
 7982TIP3    H245438   0.465   2.046  11.971  0.4810  0.1113  0.9571
 7983TIP3   OH245439   5.093   3.397   2.155 -0.4892  0.2974  0.1596
 7983TIP3    H145440   5.127   3.462   2.217  2.8830 -1.3678  0.1736
 7983TIP3    H245441   5.113   3.433   2.068 -0.6413  0.3097  0.1295
 7984TIP3   OH245442   4.037   6.321  12.495 -0.1162 -0.0243 -0.3901
 7984TIP3    H145443   4.074   6.407  12.515 -1.1716  0.3788 -0.1505
 7984TIP3    H245444   3.987   6.297  12.574  0.7522 -1.1757 -0.1748
 7985TIP3   OH245445   4.448   1.289  13.863  0.0055  0.3518 -0.4286
 7985TIP3    H145446   4.406   1.352  13.805 -1.8806 -0.8614 -0.4182
 7985TIP3    H245447   4.376   1.244  13.907  1.3813  0.3511  1.9192
 7986TIP3   OH245448   1.903   6.652   0.080 -0.2063  0.2813  0.2723
 7986TIP3    H145449   1.829   6.591   0.078  0.0656 -0.0430  0.1906
 7986TIP3    H245450   1.882   6.717   0.013 -1.6150  1.5882  1.9247
 7987TIP3   OH245451   5.618   1.463   2.053  0.6157  0.4108  0.2679
 7987TIP3    H145452   5.672   1.384   2.042  0.3852  0.5220 -1.9068
 7987TIP3    H245453   5.682   1.534   2.063  0.8321  0.1149  1.0234
 7988TIP3   OH245454   4.498   1.982   3.684 -0.0422 -0.3844  0.3268
 7988TIP3    H145455   4.552   1.970   3.606  0.4979 -1.1002  0.7979
 7988TIP3    H245456   4.560   1.977   3.757 -0.5387  0.3167  0.7976
 7989TIP3   OH245457   3.975   4.254   4.024  0.0425 -0.3754  0.1521
 7989TIP3    H145458   3.968   4.343   4.058  0.5178  0.0582 -0.8869
 7989TIP3    H245459   4.049   4.216   4.072 -0.0701 -0.1721  0.4901
 7990TIP3   OH245460   0.457   6.718   5.317 -0.0625 -0.3379  0.7087
 7990TIP3    H145461   0.521   6.669   5.368 -0.1250 -2.0056 -0.7774
 7990TIP3    H245462   0.425   6.656   5.252 -2.3111  0.8290  0.6474
 7991TIP3   OH245463   0.140   6.392   0.356  0.6950 -0.1368  0.1684
 7991TIP3    H145464   0.127   6.360   0.445  0.8353  0.5386  0.4340
 7991TIP3    H245465   0.104   6.323   0.300 -0.2596 -0.1304  0.7732
 7992TIP3   OH245466   3.944   3.218   6.281  0.1353 -0.0669  0.2214
 7992TIP3    H145467   4.036   3.203   6.257  0.0679 -1.5427  0.8199
 7992TIP3    H245468   3.926   3.153   6.349 -1.8998 -1.0339 -1.1916
 7993TIP3   OH245469   1.958   3.788   2.404  0.4113  0.1303 -0.3757
 7993TIP3    H145470   1.920   3.701   2.396 -0.2173  0.3531  0.1797
 7993TIP3    H245471   2.052   3.775   2.392  0.4673 -0.8063  1.0501
 7994TIP3   OH245472   5.844   1.773  15.020 -0.2279  0.5207 -0.1964
 7994TIP3    H145473   5.819   1.828  14.946 -1.3299  0.4124  0.0832
 7994TIP3    H245474   5.764   1.765  15.071 -0.0767 -1.3301 -0.2283
 7995TIP3   OH245475   0.756   3.004  13.902 -0.4667  0.1842  0.2533
 7995TIP3    H145476   0.840   2.996  13.856  0.6880  1.7900  2.0219
 7995TIP3    H245477   0.718   3.086  13.870  0.0289  0.9626  1.5874
 7996TIP3   OH245478   2.690   5.009  12.511 -0.0786  0.1027  0.0379
 7996TIP3    H145479   2.627   5.082  12.510 -0.4487 -0.2126  0.1830
 7996TIP3    H245480   2.734   5.016  12.595  0.5108  0.6878 -0.3157
 7997TIP3   OH245481   4.471   2.384  15.452 -0.4928 -0.1993 -0.3541
 7997TIP3    H145482   4.534   2.345  15.391 -0.1173  0.2176 -0.2373
 7997TIP3    H245483   4.471   2.477  15.430 -1.2162 -0.2288 -0.4846
 7998TIP3   OH245484   4.686   4.040   2.316  0.1902 -0.3619  0.0983
 7998TIP3    H145485   4.667   3.954   2.353 -2.0810  0.6002  1.2679
 7998TIP3    H245486   4.625   4.047   2.242  0.5739  0.1282 -0.1706
 7999TIP3   OH245487   0.982   3.340   2.213 -0.0858  0.3797  0.7032
 7999TIP3    H145488   0.966   3.255   2.254  1.0021 -0.3897 -0.4002
 7999TIP3    H245489   1.010   3.397   2.284 -1.0603 -0.1174  1.4963
 8000TIP3   OH245490   6.593   6.009   2.270 -0.0035  0.2845  0.4908
 8000TIP3    H145491   6.605   6.104   2.271  0.3474  0.2269  1.8142
 8000TIP3    H245492   6.545   5.990   2.350 -0.2804 -0.6371  0.1082
 8001TIP3   OH245493   5.900   6.450   0.377  0.1868  0.1446 -0.0482
 8001TIP3    H145494   5.934   6.389   0.443 -1.3687  1.0422  1.6236
 8001TIP3    H245495   5.821   6.408   0.345 -0.8419  1.2271  1.0450
 8002TIP3   OH245496   6.065   1.138  11.011  0.8742 -0.5505  0.0819
 8002TIP3    H145497   6.113   1.064  10.975  1.3762  1.4651 -3.6514
 8002TIP3    H245498   6.034   1.186  10.934 -1.5910  1.7514  2.3993
 8003TIP3   OH245499   4.061   6.337   5.466 -0.2314 -0.1194 -0.4673
 8003TIP3    H145500   4.005   6.338   5.388 -0.3511  1.7935 -0.3913
 8003TIP3    H245501   4.071   6.430   5.489  0.9901 -0.5836  0.9436
 8004TIP3   OH245502   6.476   0.182  12.564  0.6466 -0.0404 -0.2392
 8004TIP3    H145503   6.472   0.090  12.537  2.0396 -0.0053 -0.6173
 8004TIP3    H245504   6.384   0.208  12.572  0.1753 -0.5764 -3.2117
 8005TIP3   OH245505   1.567   5.711  11.112 -1.2625 -0.1034  0.1772
 8005TIP3    H145506   1.515   5.756  11.045 -0.6592  0.8776  0.3534
 8005TIP3    H245507   1.623   5.651  11.063 -2.2397 -0.8513 -0.0432
 8006TIP3   OH245508   5.692   4.113  15.641 -0.3306  0.5275 -1.0918
 8006TIP3    H145509   5.648   4.197  15.639  0.0272  0.7405 -0.3102
 8006TIP3    H245510   5.698   4.091  15.734 -1.9232 -1.1541 -1.3551
 8007TIP3   OH245511   5.144   0.546   4.788 -0.2069  0.0248  0.0521
 8007TIP3    H145512   5.162   0.488   4.714 -0.4453  0.2080 -0.1503
 8007TIP3    H245513   5.230   0.575   4.817 -0.1667  0.8363 -0.8591
 8008TIP3   OH245514   6.532   1.679  11.927 -1.0362  0.1785  0.2391
 8008TIP3    H145515   6.465   1.611  11.923 -0.3379 -0.4346 -1.2983
 8008TIP3    H245516   6.615   1.633  11.913 -0.6174  1.4049 -1.4935
 8009TIP3   OH245517   6.455   6.593  17.112 -0.1495 -0.5281 -0.0161
 8009TIP3    H145518   6.457   6.502  17.085  1.3480 -0.9917  1.5194
 8009TIP3    H245519   6.396   6.595  17.187  0.5906 -0.4350  0.5726
 8010TIP3   OH245520   0.342   5.841  14.591 -0.3559  0.6195  0.0154
 8010TIP3    H145521   0.260   5.885  14.612  0.3341  0.8497  2.3845
 8010TIP3    H245522   0.406   5.912  14.581  0.0440  0.3288  0.4925
 8011TIP3   OH245523   4.302   1.700  16.979 -0.0579  0.2006  0.7581
 8011TIP3    H145524   4.255   1.762  17.034 -0.5930  1.7360 -1.3882
 8011TIP3    H245525   4.276   1.722  16.890  3.1595 -0.2351 -0.3483
 8012TIP3   OH245526   5.473   2.419   6.218  0.4201  0.4286 -0.0527
 8012TIP3    H145527   5.464   2.513   6.202 -0.9840  0.3643  0.2882
 8012TIP3    H245528   5.471   2.379   6.131  1.0210  0.7071 -0.1968
 8013TIP3   OH245529   3.590   1.780  16.215  0.3794  0.2607 -0.5208
 8013TIP3    H145530   3.614   1.871  16.198  1.0942  0.1281 -0.2060
 8013TIP3    H245531   3.511   1.766  16.162  2.3565 -0.0380 -3.4582
 8014TIP3   OH245532   2.356   1.441  16.208  0.3405  0.4087  0.0896
 8014TIP3    H145533   2.374   1.482  16.293  3.0333  0.7118 -0.5721
 8014TIP3    H245534   2.400   1.356  16.212 -2.2781 -0.9784  0.1667
 8015TIP3   OH245535   2.694   3.464  11.178  0.0861  0.2312  0.1646
 8015TIP3    H145536   2.654   3.461  11.092 -1.7094 -0.3455  0.9995
 8015TIP3    H245537   2.637   3.410  11.234  1.2236  0.5639  1.6972
 8016TIP3   OH245538   4.368   0.376   5.235 -0.3258  0.1839  0.4213
 8016TIP3    H145539   4.325   0.457   5.263 -0.0131  1.3575 -2.2769
 8016TIP3    H245540   4.296   0.317   5.211 -0.5418 -0.1180  1.8050
 8017TIP3   OH245541   1.632   0.563  14.299  0.2668 -0.9187 -0.3102
 8017TIP3    H145542   1.694   0.636  14.307 -1.0887  0.6047 -2.9426
 8017TIP3    H245543   1.682   0.492  14.260  0.8631 -0.3921 -0.5041
 8018TIP3   OH245544   6.007   4.281  13.586  0.0191  0.9397  0.6550
 8018TIP3    H145545   6.006   4.212  13.653  1.4870 -0.1251 -0.3911
 8018TIP3    H245546   5.943   4.252  13.521  0.3324  0.7695  0.4217
 8019TIP3   OH245547   2.069   0.567   2.425 -0.0084 -0.6120 -0.2876
 8019TIP3    H145548   2.151   0.522   2.404  1.2234  0.9419  1.0944
 8019TIP3    H245549   2.004   0.497   2.431  1.6375 -2.0939  0.7072
 8020TIP3   OH245550   2.306   1.244   2.098 -0.3993 -0.5518 -0.5417
 8020TIP3    H145551   2.386   1.297   2.096 -0.6073 -0.2087  0.1271
 8020TIP3    H245552   2.286   1.228   2.005 -1.3410  2.0977 -0.8514
 8021TIP3   OH245553   1.613   3.520  13.646 -0.5205 -0.0568  0.2970
 8021TIP3    H145554   1.682   3.516  13.579 -0.5137  0.5982  0.2554
 8021TIP3    H245555   1.659   3.547  13.725 -0.9147  1.6307 -0.0238
 8022TIP3   OH245556   5.700   1.181  16.830 -0.6056  0.5152 -0.4699
 8022TIP3    H145557   5.751   1.182  16.911 -0.8906 -2.1749 -0.1964
 8022TIP3    H245558   5.764   1.158  16.762 -1.0547 -0.8894 -0.4289
 8023TIP3   OH245559   6.800   0.782  11.395  0.0938  0.2008 -0.0784
 8023TIP3    H145560   6.712   0.820  11.403  0.4861  0.5810  2.9724
 8023TIP3    H245561   6.785   0.696  11.357 -1.5783  0.3315  0.2235
 8024TIP3   OH245562   4.076   2.641  16.046  0.1998 -0.2911  0.3967
 8024TIP3    H145563   4.076   2.654  16.141  0.3773 -0.0085  0.3563
 8024TIP3    H245564   4.160   2.598  16.028  0.4894  0.3308  0.2733
 8025TIP3   OH245565   0.674   6.715   0.766  0.5054  0.3433  0.1268
 8025TIP3    H145566   0.580   6.723   0.785 -0.0424 -2.4195 -1.2698
 8025TIP3    H245567   0.717   6.737   0.849 -1.5109 -1.9670  1.8312
 8026TIP3   OH245568   1.056   5.769  14.916 -0.2419  0.1460 -0.1478
 8026TIP3    H145569   1.127   5.819  14.875 -0.6434  0.4965 -0.4254
 8026TIP3    H245570   1.002   5.835  14.959  0.4120 -0.2647  1.3328
 8027TIP3   OH245571   5.433   3.140   2.281  0.0234  0.8496  0.6697
 8027TIP3    H145572   5.483   3.167   2.204  0.8252  1.0114  1.2418
 8027TIP3    H245573   5.353   3.102   2.246  1.1281 -0.6134 -0.2884
 8028TIP3   OH245574   3.913   2.281  16.593 -1.0293  0.4034 -0.3558
 8028TIP3    H145575   3.844   2.275  16.526 -1.5063 -2.1834  0.3009
 8028TIP3    H245576   3.968   2.204  16.577 -0.0027  0.8433  0.9906
 8029TIP3   OH245577   0.379   2.939  14.033  0.2283  0.7052  0.5498
 8029TIP3    H145578   0.402   2.967  14.122  1.0258 -0.0684  0.5970
 8029TIP3    H245579   0.436   2.864  14.017  0.0878  0.8484 -0.6207
 8030TIP3   OH245580   3.333   6.510   5.533 -0.1111  0.0726  0.5993
 8030TIP3    H145581   3.314   6.426   5.576 -0.7797  0.8082  1.7996
 8030TIP3    H245582   3.291   6.574   5.590 -0.9458  1.0939 -1.1447
 8031TIP3   OH245583   6.087   6.412   6.502 -0.4292 -0.2923  0.2805
 8031TIP3    H145584   6.025   6.419   6.574 -0.1932 -0.8290  0.5450
 8031TIP3    H245585   6.139   6.334   6.523  1.6694  1.2752  1.0986
 8032TIP3   OH245586   5.496   0.642  16.712 -0.5611  0.2666 -0.1943
 8032TIP3    H145587   5.573   0.639  16.768 -1.1042  0.3699  0.5613
 8032TIP3    H245588   5.527   0.612  16.626 -0.2642 -2.2947  0.7664
 8033TIP3   OH245589   4.423   4.679   2.669  0.4136 -0.3760 -0.4380
 8033TIP3    H145590   4.388   4.615   2.731  0.2569  0.0455 -0.0813
 8033TIP3    H245591   4.486   4.630   2.616 -2.5013 -1.7358 -2.7351
 8034TIP3   OH245592   1.692   5.972   0.670  0.2181 -0.0019 -0.7714
 8034TIP3    H145593   1.626   5.930   0.725  2.5261 -0.8935  1.4345
 8034TIP3    H245594   1.719   5.905   0.608 -1.2922  0.5290 -2.0289
 8035TIP3   OH245595   6.170   6.744   4.719  0.1593  0.0882 -0.1420
 8035TIP3    H145596   6.196   6.829   4.685 -0.6196  0.3585 -0.0717
 8035TIP3    H245597   6.229   6.728   4.792 -0.5010  1.1433  0.6397
 8036TIP3   OH245598   6.752   5.906   3.378 -0.2839  0.0966  0.2477
 8036TIP3    H145599   6.741   5.980   3.436  0.7763  1.6483 -1.4768
 8036TIP3    H245600   6.671   5.902   3.328  0.3030  1.1884 -0.8363
 8037TIP3   OH245601   5.520   6.307  11.505  0.2196 -0.5385 -0.0922
 8037TIP3    H145602   5.458   6.379  11.507  2.0239  1.0223  1.3699
 8037TIP3    H245603   5.479   6.241  11.449 -3.2068 -0.0084  1.6822
 8038TIP3   OH245604   5.075   2.182   5.462 -0.1676 -0.5191  0.0472
 8038TIP3    H145605   4.983   2.158   5.457 -0.4374  0.1568  1.5174
 8038TIP3    H245606   5.084   2.258   5.404 -0.4123 -0.9242 -0.5262
 8039TIP3   OH245607   5.981   0.243   3.580  0.2454 -0.1653 -0.3496
 8039TIP3    H145608   5.925   0.311   3.617  1.3295  0.4085  0.2393
 8039TIP3    H245609   5.971   0.252   3.485  0.5218  0.9232 -0.2722
 8040TIP3   OH245610   5.439   0.172   4.803  0.8741  0.5326  0.0863
 8040TIP3    H145611   5.449   0.079   4.782  0.3776  0.8237 -1.4964
 8040TIP3    H245612   5.518   0.213   4.768  0.4091  0.9165 -0.5149
 8041TIP3   OH245613   5.712   0.782   2.147  0.4928  0.2588  0.0883
 8041TIP3    H145614   5.795   0.813   2.111  0.9514 -0.8087  0.2234
 8041TIP3    H245615   5.645   0.821   2.090  1.1779 -0.8578 -1.5094
 8042TIP3   OH245616   2.239   3.944   4.203 -0.4482 -0.5981  0.0186
 8042TIP3    H145617   2.333   3.959   4.212 -0.3678 -2.9495  4.3353
 8042TIP3    H245618   2.199   4.020   4.246 -0.4997 -0.5463 -0.1202
 8043TIP3   OH245619   2.421   5.407   3.338  0.0709  0.4971  0.1755
 8043TIP3    H145620   2.328   5.426   3.349  0.3273  1.3087  0.9740
 8043TIP3    H245621   2.445   5.357   3.416  0.1074 -0.4552 -0.4442
 8044TIP3   OH245622   4.993   3.152  15.592 -0.2564 -0.2604  0.3743
 8044TIP3    H145623   5.020   3.098  15.518 -1.4222 -1.6243  0.9358
 8044TIP3    H245624   5.070   3.154  15.649  0.7084  0.9360 -0.9203
 8045TIP3   OH245625   1.881   4.849   0.469 -0.6683 -0.1133 -0.4008
 8045TIP3    H145626   1.937   4.883   0.539  0.8690  1.0658 -2.1481
 8045TIP3    H245627   1.931   4.866   0.388 -2.6571 -0.8932 -1.8279
 8046TIP3   OH245628   1.129   6.120   1.309  0.3261 -0.0260 -0.0818
 8046TIP3    H145629   1.088   6.041   1.343  2.4173 -1.6335 -1.2331
 8046TIP3    H245630   1.089   6.132   1.222 -0.2555  0.4065  0.2403
 8047TIP3   OH245631   1.885   2.145  14.901 -0.4985 -0.4538  1.0043
 8047TIP3    H145632   1.929   2.217  14.945  1.5134 -0.9434 -0.1419
 8047TIP3    H245633   1.873   2.176  14.811 -1.3217 -0.8302  0.9805
 8048TIP3   OH245634   1.074   3.462  13.515 -0.3265 -0.1064  0.5993
 8048TIP3    H145635   1.007   3.528  13.534 -0.4494  0.0052 -0.2054
 8048TIP3    H245636   1.149   3.512  13.483 -0.6567 -0.4012 -0.6640
 8049TIP3   OH245637   2.389   4.439   0.722  0.5373 -0.2174  0.5248
 8049TIP3    H145638   2.417   4.499   0.791  1.3415 -0.4854  0.4407
 8049TIP3    H245639   2.448   4.458   0.649  0.5433 -0.8486  0.3654
 8050TIP3   OH245640   6.292   2.804   5.473  0.0517  0.2620 -0.2677
 8050TIP3    H145641   6.337   2.843   5.547  0.4097 -0.9837  0.1763
 8050TIP3    H245642   6.362   2.778   5.413 -0.2428  1.5343 -1.2031
 8051TIP3   OH245643   1.417   3.698   0.900  0.0622  0.0680 -0.2969
 8051TIP3    H145644   1.333   3.744   0.908 -0.3827 -1.1564  2.6292
 8051TIP3    H245645   1.404   3.638   0.826 -2.2140 -1.1850  1.0444
 8052TIP3   OH245646   5.739   3.541  11.221  0.5116  0.0216 -0.1377
 8052TIP3    H145647   5.703   3.490  11.149  2.6667 -1.3659 -0.2695
 8052TIP3    H245648   5.759   3.627  11.183  1.4205 -0.6291 -1.1279
 8053TIP3   OH245649   1.382   2.529  16.195  0.0737  0.4633 -0.0983
 8053TIP3    H145650   1.436   2.450  16.199 -0.0158  0.4460  1.0970
 8053TIP3    H245651   1.438   2.598  16.232 -0.2509  0.7133 -0.0726
 8054TIP3   OH245652   0.016   1.005   1.822 -0.3200 -0.8039 -0.0295
 8054TIP3    H145653   0.086   0.962   1.871  0.3449 -1.3829 -1.4623
 8054TIP3    H245654  -0.026   0.935   1.773 -0.6578 -0.1617 -0.6623
 8055TIP3   OH245655   6.011   3.251   3.014 -0.2479  0.0319 -0.6308
 8055TIP3    H145656   5.928   3.231   3.057  1.0679 -0.8606  1.5881
 8055TIP3    H245657   5.999   3.339   2.978 -1.8372  0.2826  0.4454
 8056TIP3   OH245658   4.826   5.046  16.513  0.0863 -0.0628  0.1391
 8056TIP3    H145659   4.752   5.067  16.570  0.9132 -1.2714  1.6626
 8056TIP3    H245660   4.842   5.128  16.465 -0.4633  1.0460  1.7932
 8057TIP3   OH245661   1.718   0.645   0.820  0.0516 -0.5072  0.0708
 8057TIP3    H145662   1.629   0.622   0.845 -0.0463 -0.5017 -0.2682
 8057TIP3    H245663   1.714   0.738   0.797 -0.2025 -0.8967 -1.5055
 8058TIP3   OH245664   0.208   4.004  14.213 -0.0758  0.2040  0.0682
 8058TIP3    H145665   0.160   3.934  14.168 -0.3342  0.2055  0.3391
 8058TIP3    H245666   0.197   4.080  14.156  0.9255 -0.1832 -0.6608
 8059TIP3   OH245667   0.701   4.362  12.248 -0.3034  0.3983 -0.2814
 8059TIP3    H145668   0.689   4.303  12.174  1.1452  0.5650 -0.6597
 8059TIP3    H245669   0.794   4.386  12.245 -0.8737  2.6966 -0.1349
 8060TIP3   OH245670   3.600   3.331   3.049 -1.1460  0.0740  0.0751
 8060TIP3    H145671   3.531   3.341   3.115 -0.6224  0.0132  0.6396
 8060TIP3    H245672   3.632   3.420   3.035 -0.8301  0.0063  0.3683
 8061TIP3   OH245673   1.351   2.793  16.895 -0.1589 -0.2187  0.0666
 8061TIP3    H145674   1.287   2.846  16.942  1.6970  1.9586  0.2310
 8061TIP3    H245675   1.424   2.783  16.956  0.8662 -0.2064 -1.1380
 8062TIP3   OH245676   3.692   4.030   6.351  0.3149 -0.1659  0.5868
 8062TIP3    H145677   3.703   3.973   6.427 -0.7390 -1.1052  0.0469
 8062TIP3    H245678   3.601   4.017   6.324  0.2852  1.1875 -0.0146
 8063TIP3   OH245679   3.048   5.438  12.997 -0.4490 -0.2307  0.8096
 8063TIP3    H145680   3.071   5.372  13.062  1.1888 -0.0213  0.4635
 8063TIP3    H245681   3.073   5.521  13.037  1.8331 -0.2105 -0.6122
 8064TIP3   OH245682   6.236   5.649  16.152 -0.1311 -0.6663  0.5127
 8064TIP3    H145683   6.149   5.610  16.159 -0.1811 -0.3985  1.5938
 8064TIP3    H245684   6.281   5.623  16.233  1.5170 -2.4967 -0.9351
 8065TIP3   OH245685   6.247   1.289   1.919 -0.1157 -0.3494 -0.2539
 8065TIP3    H145686   6.174   1.239   1.956  0.9717  0.1115  2.7022
 8065TIP3    H245687   6.325   1.238   1.944  0.6259 -0.6041 -2.9681
 8066TIP3   OH245688   1.224   0.721  14.169  0.1172 -0.7700  0.2748
 8066TIP3    H145689   1.180   0.734  14.254  0.5206  2.8783  0.0306
 8066TIP3    H245690   1.262   0.807  14.149  1.1542 -1.9215 -2.9933
 8067TIP3   OH245691   4.805   2.531  16.480  0.2850  0.1419 -0.2615
 8067TIP3    H145692   4.763   2.599  16.533  1.6658  0.7979  0.0167
 8067TIP3    H245693   4.892   2.566  16.462 -0.2316  0.0523 -3.1746
 8068TIP3   OH245694   5.812   1.658   4.147 -0.0242  0.3836  0.1894
 8068TIP3    H145695   5.790   1.666   4.240 -1.4959 -2.3336  0.1265
 8068TIP3    H245696   5.894   1.609   4.145  0.3928  1.0768  0.0625
 8069TIP3   OH245697   6.769   5.897  12.422 -0.2374  0.3545 -0.0460
 8069TIP3    H145698   6.833   5.865  12.359  0.3161  0.3779  0.5019
 8069TIP3    H245699   6.773   5.835  12.494  0.0175  1.0214  0.5158
 8070TIP3   OH245700   2.681   2.272  15.581 -0.0919 -0.0457  0.1944
 8070TIP3    H145701   2.717   2.225  15.506  0.2773  0.0952  0.2802
 8070TIP3    H245702   2.666   2.205  15.647 -1.1897 -0.2885 -0.2944
 8071TIP3   OH245703   4.645   3.288   4.476  0.4493 -0.1083  0.6107
 8071TIP3    H145704   4.726   3.335   4.457 -0.6156  1.6910  0.3736
 8071TIP3    H245705   4.657   3.253   4.564  0.8688  1.5159  1.2173
 8072TIP3   OH245706   6.387   2.868  16.897 -0.1285 -0.1226 -0.2691
 8072TIP3    H145707   6.439   2.789  16.886  2.0200  1.3565 -1.2022
 8072TIP3    H245708   6.301   2.846  16.861  0.3889 -2.0791 -0.3361
 8073TIP3   OH245709   1.407   2.860  12.457  0.3386 -0.1030 -0.1583
 8073TIP3    H145710   1.406   2.858  12.552 -0.2643  1.4580 -0.1198
 8073TIP3    H245711   1.318   2.836  12.431  0.4073 -0.1817 -0.3303
 8074TIP3   OH245712   0.883   2.796  15.881  0.9890 -0.5672 -0.0578
 8074TIP3    H145713   0.960   2.816  15.935  0.8934 -0.2245 -0.0421
 8074TIP3    H245714   0.816   2.770  15.944  1.1679 -1.1122 -0.0916
 8075TIP3   OH245715   4.435   6.511   0.405 -0.1898  0.7810 -0.2902
 8075TIP3    H145716   4.481   6.594   0.418 -0.1082  0.8508 -0.9817
 8075TIP3    H245717   4.401   6.517   0.315  1.8622 -0.9107 -1.2227
 8076TIP3   OH245718   4.251   3.476  13.326 -0.4852  0.2145 -0.5296
 8076TIP3    H145719   4.342   3.468  13.355 -0.5177  1.0161 -0.1838
 8076TIP3    H245720   4.208   3.397  13.359 -0.0521  0.1239 -0.1729
 8077TIP3   OH245721   5.066   5.181   5.859 -0.4414 -0.6227 -0.0007
 8077TIP3    H145722   4.973   5.161   5.863 -0.5240 -0.1544  0.3480
 8077TIP3    H245723   5.100   5.121   5.793 -1.2108  0.0613 -1.0268
 8078TIP3   OH245724   0.739   3.624   2.430  0.6036 -0.0658 -0.1232
 8078TIP3    H145725   0.808   3.691   2.427  0.2070  0.3376 -0.1912
 8078TIP3    H245726   0.691   3.636   2.349 -1.0620  1.2626  1.0332
 8079TIP3   OH245727   3.570   6.122  13.545 -0.4478 -0.3758 -0.0487
 8079TIP3    H145728   3.525   6.102  13.628 -0.2840 -0.1573  0.0952
 8079TIP3    H245729   3.660   6.141  13.571  0.1129 -2.3067 -0.4938
 8080TIP3   OH245730   4.295   4.414  12.371  0.1226 -0.2233  0.0046
 8080TIP3    H145731   4.216   4.469  12.368  0.3759  0.2500  1.4027
 8080TIP3    H245732   4.263   4.325  12.360 -0.5307  0.0292 -0.1602
 8081TIP3   OH245733   2.656   3.423   1.671  0.4550 -0.5958 -0.1966
 8081TIP3    H145734   2.616   3.428   1.585  1.2607 -1.0939 -0.6168
 8081TIP3    H245735   2.605   3.357   1.718  0.3749 -0.7492 -0.4992
 8082TIP3   OH245736   0.247   4.116  14.883  0.4206  0.1408 -0.4229
 8082TIP3    H145737   0.258   4.068  14.801 -1.0428 -0.5327 -0.2339
 8082TIP3    H245738   0.227   4.205  14.856 -1.0257 -0.2939 -0.8223
 8083TIP3   OH245739   6.488   3.798   1.195  0.2105  0.5901 -0.1600
 8083TIP3    H145740   6.579   3.786   1.166 -0.1206  1.5754 -1.6945
 8083TIP3    H245741   6.456   3.709   1.209  1.3169  0.2164  0.0850
 8084TIP3   OH245742   0.439   0.763   1.214 -0.1108  0.4919  0.3977
 8084TIP3    H145743   0.534   0.769   1.221 -0.2322  0.9081  1.9628
 8084TIP3    H245744   0.409   0.854   1.218 -0.5303  0.4044 -0.8053
 8085TIP3   OH245745   2.939   1.837  14.110  0.5356 -0.2427  0.1111
 8085TIP3    H145746   2.861   1.853  14.163 -0.3753 -1.1417 -0.9344
 8085TIP3    H245747   2.910   1.776  14.042  2.1172 -0.4803 -0.3732
 8086TIP3   OH245748   3.753   0.425   3.969 -0.1587  0.7170  0.1484
 8086TIP3    H145749   3.678   0.463   4.015 -0.3207  0.1164  0.3866
 8086TIP3    H245750   3.716   0.388   3.889 -0.2168 -0.0845  0.5355
 8087TIP3   OH245751   3.941   4.533   4.050  0.3196 -0.4034 -0.0919
 8087TIP3    H145752   3.918   4.603   3.989 -0.5831 -0.3188  0.3234
 8087TIP3    H245753   4.010   4.570   4.104 -1.7363  1.0596  1.6628
 8088TIP3   OH245754   0.528   5.640  11.752  0.3271  0.8013  0.3607
 8088TIP3    H145755   0.521   5.563  11.808 -0.2898  1.2692  0.9365
 8088TIP3    H245756   0.584   5.700  11.800 -1.8245  2.0173  1.4313
 8089TIP3   OH245757   1.810   5.804   6.004 -0.0804  0.2194  0.4422
 8089TIP3    H145758   1.831   5.884   6.053  0.1121 -1.1244  2.5985
 8089TIP3    H245759   1.834   5.825   5.914 -0.4381  2.7472  0.8839
 8090TIP3   OH245760   2.607   1.120   2.533  0.0959  0.1375  0.0995
 8090TIP3    H145761   2.581   1.108   2.624  1.1725  1.0531  0.5463
 8090TIP3    H245762   2.551   1.191   2.501 -0.2911 -0.1923  0.0463
 8091TIP3   OH245763   1.953   4.898  16.933 -0.2823 -0.2066 -0.0323
 8091TIP3    H145764   2.019   4.947  16.883  1.3555 -2.2952  0.0018
 8091TIP3    H245765   1.901   4.854  16.866 -0.8930  0.4761 -0.0163
 8092TIP3   OH245766   1.625   0.733  12.404  0.5823 -0.4674  0.0510
 8092TIP3    H145767   1.676   0.682  12.468  0.5489  2.5130  2.5736
 8092TIP3    H245768   1.548   0.762  12.452 -1.1254 -0.8387 -2.3527
 8093TIP3   OH245769   5.614   0.042   1.699 -0.4912  0.9494  0.5390
 8093TIP3    H145770   5.606   0.126   1.655 -1.3584 -0.0502 -1.2529
 8093TIP3    H245771   5.525   0.022   1.729 -0.7782 -0.4513 -1.1815
 8094TIP3   OH245772   6.481   5.750  13.947 -0.0136  0.2992  0.2405
 8094TIP3    H145773   6.492   5.742  14.042  0.1920 -0.5427  0.1532
 8094TIP3    H245774   6.538   5.682  13.911 -3.4231 -2.4263 -0.3253
 8095TIP3   OH245775   3.099   4.704  11.544 -0.7156  0.3108  0.4613
 8095TIP3    H145776   3.115   4.793  11.573 -0.2472  1.5893 -3.3613
 8095TIP3    H245777   3.005   4.701  11.527 -0.3652  0.9547 -1.8404
 8096TIP3   OH245778   5.671   2.343   3.143  0.1483  0.0235  0.1524
 8096TIP3    H145779   5.709   2.412   3.198  1.3664 -0.2396 -0.3364
 8096TIP3    H245780   5.712   2.262   3.174 -0.5575 -0.3627  0.0893
 8097TIP3   OH245781   6.366   3.039   6.126 -0.5379 -0.5924  0.7239
 8097TIP3    H145782   6.423   3.063   6.198 -0.4986 -0.9544  0.8135
 8097TIP3    H245783   6.343   3.122   6.084  0.5369 -0.4895  0.3200
 8098TIP3   OH245784   3.632   4.552   1.385 -0.1305 -0.1575  0.2298
 8098TIP3    H145785   3.639   4.626   1.324  1.2383 -0.2844  0.2033
 8098TIP3    H245786   3.631   4.475   1.328 -4.0722 -0.1015  0.1225
 8099TIP3   OH245787   3.649   6.288  16.809 -0.5557 -0.2287 -0.0510
 8099TIP3    H145788   3.733   6.303  16.765 -0.5036  1.0340  0.4673
 8099TIP3    H245789   3.621   6.374  16.839 -1.5173 -0.7983  0.7441
 8100TIP3   OH245790   1.736   2.858  13.765  0.6351 -0.5479 -0.1467
 8100TIP3    H145791   1.739   2.952  13.745 -2.0461 -0.8449 -2.3060
 8100TIP3    H245792   1.820   2.824  13.736  1.0790  0.9512 -0.6544
 8101TIP3   OH245793   6.668   1.103  11.832 -0.2118  1.3747 -0.5023
 8101TIP3    H145794   6.655   1.040  11.903 -2.1193 -0.3628 -2.3279
 8101TIP3    H245795   6.759   1.131  11.842  0.2889 -0.6827  1.1538
 8102TIP3   OH245796   4.611   3.144  14.596  0.6842  0.0979 -0.2569
 8102TIP3    H145797   4.688   3.200  14.607  0.4826  0.0161  1.9202
 8102TIP3    H245798   4.573   3.140  14.684  0.1263 -2.6457 -0.6029
 8103TIP3   OH245799   5.068   3.501   6.446  0.6798 -0.1112 -0.5422
 8103TIP3    H145800   5.029   3.587   6.464 -1.5044 -0.7552 -2.0581
 8103TIP3    H245801   5.110   3.512   6.361  1.4602 -0.2079 -0.1709
 8104TIP3   OH245802   6.188   0.301  17.050 -0.5274  0.0337 -0.6264
 8104TIP3    H145803   6.235   0.253  16.982 -0.1917 -0.7752  0.1596
 8104TIP3    H245804   6.238   0.284  17.130 -1.0396  0.7867 -0.1426
 8105TIP3   OH245805   3.253   5.833   2.787 -0.1046 -0.6506 -0.0427
 8105TIP3    H145806   3.172   5.810   2.742 -0.4041  0.6049 -0.1622
 8105TIP3    H245807   3.315   5.852   2.716 -0.4193  0.7880  0.0518
 8106TIP3   OH245808   5.734   3.690  13.146  0.1527 -0.8225 -0.0437
 8106TIP3    H145809   5.818   3.694  13.193 -0.0302 -0.7851  0.2796
 8106TIP3    H245810   5.759   3.690  13.054  0.5164 -0.9411  0.0527
 8107TIP3   OH245811   4.325   0.496   4.538 -0.2457  0.0672 -0.4458
 8107TIP3    H145812   4.318   0.582   4.579 -0.5754 -0.8863  1.5948
 8107TIP3    H245813   4.350   0.513   4.448  0.7623  2.2434  0.2367
 8108TIP3   OH245814   2.319   5.905  12.348 -0.5904 -0.0579  0.2716
 8108TIP3    H145815   2.227   5.930  12.352 -0.7450 -0.7079  0.8655
 8108TIP3    H245816   2.361   5.955  12.418 -0.1139  1.7652 -1.2818
 8109TIP3   OH245817   1.617   2.118  15.517 -0.2582 -0.1903 -0.1718
 8109TIP3    H145818   1.555   2.177  15.475  0.4922  0.1043 -0.9058
 8109TIP3    H245819   1.685   2.176  15.553 -0.8662 -0.4474  1.4141
 8110TIP3   OH245820   5.800   5.800  17.019 -0.2252 -0.5023 -0.3187
 8110TIP3    H145821   5.843   5.738  17.079  0.8063 -0.6605 -1.2029
 8110TIP3    H245822   5.708   5.774  17.021 -0.4413  0.3097  2.1760
 8111TIP3   OH245823   2.275   5.507  15.795 -1.0689  0.1084  0.9274
 8111TIP3    H145824   2.251   5.482  15.706 -1.6748  0.1036  1.0870
 8111TIP3    H245825   2.282   5.602  15.792  0.1010  0.0091  0.5896
 8112TIP3   OH245826   6.292   0.010   1.013 -0.2487  0.2973  0.2271
 8112TIP3    H145827   6.347   0.070   1.062 -0.8687  0.6716  0.4794
 8112TIP3    H245828   6.203   0.028   1.044 -0.6789  0.6664 -1.1458
 8113TIP3   OH245829   0.276   0.118  17.139 -0.2821  0.2398 -0.3716
 8113TIP3    H145830   0.351   0.119  17.198 -2.6475 -0.1446  2.7907
 8113TIP3    H245831   0.284   0.199  17.088  1.8219  0.5803  0.4672
 8114TIP3   OH245832   4.109   0.312  11.364 -0.0772  0.4827  0.3341
 8114TIP3    H145833   4.138   0.350  11.447  0.5809  1.1650 -0.2090
 8114TIP3    H245834   4.157   0.360  11.297 -0.6382 -0.0417 -0.4493
 8115TIP3   OH245835   6.399   2.784  15.644  0.6099 -0.1627 -0.0714
 8115TIP3    H145836   6.374   2.734  15.566 -1.3438  2.4366 -1.2061
 8115TIP3    H245837   6.456   2.853  15.610 -2.4970  2.7074  0.2696
 8116TIP3   OH245838   4.932   4.800   1.198 -0.1610  0.1166  0.1949
 8116TIP3    H145839   5.020   4.762   1.195 -0.3533 -0.3915  0.8855
 8116TIP3    H245840   4.883   4.751   1.133 -0.1034 -0.0269  0.2595
 8117TIP3   OH245841   2.965   5.512   5.174  0.4044 -0.4245  0.0479
 8117TIP3    H145842   2.972   5.499   5.079  0.3516 -2.1550  0.2632
 8117TIP3    H245843   2.884   5.468   5.199  0.3995  0.0542  0.8963
 8118TIP3   OH245844   0.779   4.444  11.006  0.4057  0.1494  0.0693
 8118TIP3    H145845   0.725   4.377  11.046  0.3411 -0.0366 -0.3294
 8118TIP3    H245846   0.767   4.521  11.061  0.3561 -0.1191  0.4335
 8119TIP3   OH245847   5.766   0.826  14.198  0.0853  0.0995  0.0397
 8119TIP3    H145848   5.793   0.822  14.290 -2.4536  0.2690  0.8382
 8119TIP3    H245849   5.763   0.920  14.179  0.6705  0.0617 -0.2374
 8120TIP3   OH245850   1.273   1.261  11.119 -0.1396 -0.2446 -0.6267
 8120TIP3    H145851   1.187   1.262  11.076 -0.5082  1.0825  0.1040
 8120TIP3    H245852   1.306   1.350  11.108 -0.2400  0.1357  1.7944
 8121TIP3   OH245853   0.926   2.316  14.205 -0.2162  0.2297 -0.3480
 8121TIP3    H145854   0.931   2.273  14.119  1.0273  0.2668 -0.3122
 8121TIP3    H245855   0.909   2.245  14.266  1.2242 -0.1554 -0.3643
 8122TIP3   OH245856   2.494   2.065  17.235  0.0307 -0.3766 -0.0072
 8122TIP3    H145857   2.537   2.145  17.267  1.6588 -1.1924 -0.1253
 8122TIP3    H245858   2.462   2.022  17.315 -0.5971  0.2398  0.0815
 8123TIP3   OH245859   0.016   2.311  12.750  0.2173  0.2394 -0.2496
 8123TIP3    H145860   0.097   2.362  12.757  0.6546 -0.3272 -1.0854
 8123TIP3    H245861   0.036   2.245  12.684  0.5440 -2.6898  2.6881
 8124TIP3   OH245862   3.574   3.585  13.559  0.0450 -0.1652  0.7094
 8124TIP3    H145863   3.507   3.652  13.543  1.0342  0.3936 -1.3321
 8124TIP3    H245864   3.525   3.503  13.564 -1.0935  0.5845  2.3822
 8125TIP3   OH245865   6.642   0.422  17.172  0.4817  0.1206 -0.5064
 8125TIP3    H145866   6.616   0.504  17.215 -1.5063 -0.1276 -1.1602
 8125TIP3    H245867   6.708   0.448  17.108  1.9322  0.7855  1.2016
 8126TIP3   OH245868   3.059   0.498  14.419 -0.3190 -0.7001  0.3245
 8126TIP3    H145869   2.970   0.502  14.386 -0.1507 -0.8755 -0.1574
 8126TIP3    H245870   3.065   0.570  14.482 -0.3954  0.1356 -0.6229
 8127TIP3   OH245871   1.078   5.007   2.065 -0.4491 -0.1956 -0.1830
 8127TIP3    H145872   1.076   5.082   2.125 -1.4393 -0.6681  0.3920
 8127TIP3    H245873   1.139   5.033   1.996 -1.9476  1.8083 -0.8165
 8128TIP3   OH245874   1.928   2.302  15.252  0.0460  0.0991 -0.4910
 8128TIP3    H145875   1.955   2.286  15.342  1.7090  1.5031 -0.7004
 8128TIP3    H245876   1.841   2.263  15.245  0.0118 -0.2554  1.6399
 8129TIP3   OH245877   3.905   2.100  11.199  0.1436  0.6042 -0.1264
 8129TIP3    H145878   3.925   2.155  11.274  0.5536 -1.3389  1.2240
 8129TIP3    H245879   3.990   2.084  11.158 -0.0796  1.6674 -1.0369
 8130TIP3   OH245880   2.014   1.393   0.404 -0.6053  0.3136 -0.3064
 8130TIP3    H145881   1.951   1.400   0.333 -0.2445  0.3761 -0.6192
 8130TIP3    H245882   2.095   1.362   0.362 -1.2200 -2.5275  0.5057
 8131TIP3   OH245883   6.161   3.132   1.140 -0.1045 -0.3304  0.8491
 8131TIP3    H145884   6.068   3.151   1.151 -0.2404 -1.2201  1.2958
 8131TIP3    H245885   6.179   3.060   1.202  0.8777 -0.1536  0.7845
 8132TIP3   OH245886   6.156   1.588  15.281  0.2432  0.0086 -0.2210
 8132TIP3    H145887   6.169   1.665  15.225 -0.5975 -0.7098 -1.4252
 8132TIP3    H245888   6.177   1.619  15.369  2.6349  0.8730 -1.0646
 8133TIP3   OH245889   0.929   0.901   1.667  0.0617  0.0890 -0.2495
 8133TIP3    H145890   0.923   0.982   1.615 -2.4336 -0.6087 -1.1248
 8133TIP3    H245891   0.900   0.927   1.754  0.1833  0.3589 -0.2884
 8134TIP3   OH245892   3.790   6.036  11.184 -0.0300 -0.3300 -0.0999
 8134TIP3    H145893   3.733   6.107  11.156  0.1645 -0.2993 -0.4146
 8134TIP3    H245894   3.815   5.991  11.104  1.2690  0.3248 -0.0755
 8135TIP3   OH245895   5.206   6.142   4.971 -0.6106 -0.6285  0.5990
 8135TIP3    H145896   5.160   6.061   4.950 -0.2602 -1.1173  1.7204
 8135TIP3    H245897   5.138   6.209   4.970 -1.0123 -1.0393  0.3412
 8136TIP3   OH245898   0.562   5.126  14.324 -0.3504  0.1431  0.0928
 8136TIP3    H145899   0.612   5.202  14.355 -0.3652  0.1043  0.2127
 8136TIP3    H245900   0.538   5.148  14.234  0.5029 -0.1625 -0.2066
 8137TIP3   OH245901   3.867   3.023  11.478  0.1201 -0.3197 -0.3865
 8137TIP3    H145902   3.824   3.103  11.449 -1.6765 -0.0056  2.9726
 8137TIP3    H245903   3.806   2.983  11.539  2.6218 -2.3119  0.9161
 8138TIP3   OH245904   2.131   5.210  12.378  0.0475 -0.2489 -0.2525
 8138TIP3    H145905   2.193   5.158  12.429  1.2079  0.1522 -1.2454
 8138TIP3    H245906   2.185   5.268  12.325 -1.1728  0.0836 -1.1603
 8139TIP3   OH245907   3.912   3.581   1.148  0.1159 -0.1676  0.1548
 8139TIP3    H145908   3.949   3.576   1.237 -0.1709  1.4474  0.3728
 8139TIP3    H245909   3.824   3.615   1.161  0.9001  2.3626 -0.9379
 8140TIP3   OH245910   1.844   4.185  16.635 -0.4814  0.2777  1.3698
 8140TIP3    H145911   1.920   4.243  16.636 -1.5586  1.6867  1.3647
 8140TIP3    H245912   1.769   4.241  16.654 -1.7861 -0.7419 -0.5413
 8141TIP3   OH245913   6.326   6.177   5.011  0.0082  0.2643  0.5664
 8141TIP3    H145914   6.263   6.118   4.970  1.6392 -0.9636 -0.2447
 8141TIP3    H245915   6.356   6.234   4.941 -0.6451  1.2541  1.0833
 8142TIP3   OH245916   2.358   5.177  16.524 -0.2131  0.0984 -0.7283
 8142TIP3    H145917   2.370   5.260  16.477 -0.1529  0.9439  0.7585
 8142TIP3    H245918   2.446   5.152  16.552  0.0271 -1.3907 -2.6375
 8143TIP3   OH245919   2.141   0.251   3.769 -0.0706 -0.2142 -0.0770
 8143TIP3    H145920   2.119   0.161   3.793  1.9540 -0.3152  1.5121
 8143TIP3    H245921   2.059   0.299   3.779 -0.6168 -1.4196  1.4720
 8144TIP3   OH245922   4.533   6.216  11.226 -0.1455  0.2033 -0.3222
 8144TIP3    H145923   4.537   6.240  11.133  1.7453 -0.1007 -0.3213
 8144TIP3    H245924   4.512   6.298  11.271  1.0561  0.7900 -0.8225
 8145TIP3   OH245925   3.946   0.125   2.638  0.2320 -0.5955 -0.1424
 8145TIP3    H145926   4.042   0.131   2.633  0.0962  1.0950 -0.9990
 8145TIP3    H245927   3.924   0.163   2.723  0.1698  1.0065 -0.8709
 8146TIP3   OH245928   3.920   1.355   4.460  0.0562 -0.1622  0.1906
 8146TIP3    H145929   3.902   1.423   4.525  1.4701  0.8075 -0.4123
 8146TIP3    H245930   3.985   1.393   4.402 -1.6810 -0.7496 -2.2363
 8147TIP3   OH245931   0.140   3.380  14.211  0.3632 -0.0760 -0.2150
 8147TIP3    H145932   0.162   3.288  14.226  0.6330 -0.4269 -2.5771
 8147TIP3    H245933   0.171   3.398  14.122 -0.1961  2.1448  0.0097
 8148TIP3   OH245934   4.882   6.539  14.028  0.1205  0.1104  0.4594
 8148TIP3    H145935   4.841   6.455  14.010 -1.2267  1.0967 -1.3033
 8148TIP3    H245936   4.976   6.521  14.032 -0.1150 -1.3338 -0.6272
 8149TIP3   OH245937   3.839   5.514   3.651  0.0965  0.3305 -0.0980
 8149TIP3    H145938   3.926   5.509   3.611 -0.1851  0.4497 -0.7197
 8149TIP3    H245939   3.800   5.593   3.615 -0.2301  0.3410  0.2719
 8150TIP3   OH245940   5.273   2.269   6.314  0.0998  0.4581 -1.0069
 8150TIP3    H145941   5.215   2.256   6.239  0.8453 -0.4384 -1.4185
 8150TIP3    H245942   5.351   2.311   6.278  0.7242 -0.5464 -0.8424
 8151TIP3   OH245943   2.171   3.956  14.863 -0.0002  0.1514  0.4234
 8151TIP3    H145944   2.164   3.990  14.773 -2.4024 -2.3866 -0.4381
 8151TIP3    H245945   2.265   3.951  14.879  0.5410 -0.9143 -2.6418
 8152TIP3   OH245946   1.763   0.101  10.974  0.1653  1.0318  0.1865
 8152TIP3    H145947   1.814   0.032  10.931  0.8324  0.1171  2.3714
 8152TIP3    H245948   1.675   0.063  10.984  0.4976  0.5453  1.2712
 8153TIP3   OH245949   5.473   6.007  13.178  0.2723  0.1376  0.0216
 8153TIP3    H145950   5.455   5.913  13.174 -0.7805  0.3870 -1.3490
 8153TIP3    H245951   5.464   6.029  13.271  0.5622 -1.1095  0.3572
 8154TIP3   OH245952   1.299   1.194   2.501  0.1203  0.4578 -0.1517
 8154TIP3    H145953   1.320   1.151   2.584  1.4581  0.8899 -0.2560
 8154TIP3    H245954   1.376   1.180   2.446 -0.3659  0.9959 -0.9843
 8155TIP3   OH245955   2.302   0.622   2.059 -0.6131 -0.0285 -0.1359
 8155TIP3    H145956   2.254   0.700   2.032 -0.1501  0.4680  0.4548
 8155TIP3    H245957   2.288   0.617   2.153  0.7178  0.2946  0.0980
 8156TIP3   OH245958   2.133   0.303   4.571  0.1587  0.1347  0.0145
 8156TIP3    H145959   2.109   0.212   4.588 -1.1655  0.7122  1.3642
 8156TIP3    H245960   2.211   0.319   4.625 -0.4027  0.1727  0.8296
 8157TIP3   OH245961   5.383   2.879   5.304  1.5679  0.5821 -0.0625
 8157TIP3    H145962   5.379   2.863   5.210 -1.7375 -1.9058  0.4281
 8157TIP3    H245963   5.457   2.826   5.335  3.9417  2.9440 -1.4392
 8158TIP3   OH245964   6.744   1.202  12.778  0.0567  0.3332  0.4580
 8158TIP3    H145965   6.742   1.298  12.778  1.6611  0.3678  0.1785
 8158TIP3    H245966   6.716   1.178  12.689  0.4364  0.5522  0.2801
 8159TIP3   OH245967   5.140   0.506   4.186  0.4204  0.0113  0.1465
 8159TIP3    H145968   5.231   0.505   4.215 -0.4237 -1.3106  2.8855
 8159TIP3    H245969   5.092   0.457   4.253 -1.8839 -1.8726 -2.7408
 8160TIP3   OH245970   3.258   3.338  16.547  0.1425  0.7866  0.3265
 8160TIP3    H145971   3.198   3.380  16.486 -0.1875  1.0456  0.8267
 8160TIP3    H245972   3.254   3.392  16.626  0.5266  0.4278  0.5952
 8161TIP3   OH245973   2.639   6.514  11.901  0.0334 -0.0901  0.2141
 8161TIP3    H145974   2.587   6.590  11.926  1.3329  0.8827  0.0476
 8161TIP3    H245975   2.640   6.458  11.979 -0.6399  0.2266  0.4514
 8162TIP3   OH245976   2.028   3.171   1.726 -0.1284 -0.1774  0.3355
 8162TIP3    H145977   2.065   3.242   1.779 -2.4378  2.2624 -1.2190
 8162TIP3    H245978   1.986   3.113   1.789 -0.5493  1.2754  1.4051
 8163TIP3   OH245979   4.478   3.076  13.455  0.2026  0.2629  0.2470
 8163TIP3    H145980   4.414   3.037  13.515  1.0381 -0.2179  0.8452
 8163TIP3    H245981   4.426   3.129  13.395 -0.8404 -0.8722  0.1378
 8164TIP3   OH245982   3.316   3.890  12.198  0.0838 -0.1302 -0.5104
 8164TIP3    H145983   3.297   3.885  12.104 -0.2995  0.5051 -0.4670
 8164TIP3    H245984   3.406   3.923  12.203  0.0531 -0.0304 -0.6464
 8165TIP3   OH245985   6.499   5.251   5.137  0.0581  0.8886  0.7826
 8165TIP3    H145986   6.452   5.216   5.212  1.7175  0.9580  1.8740
 8165TIP3    H245987   6.489   5.346   5.144 -2.4717  0.8128 -0.8905
 8166TIP3   OH245988   3.417   0.531  14.646 -0.2491  0.4895 -0.0014
 8166TIP3    H145989   3.324   0.539  14.668 -0.1661  1.6890 -0.0679
 8166TIP3    H245990   3.438   0.612  14.600  0.5882 -0.2287 -0.8859
 8167TIP3   OH245991   0.013   4.081   1.528  0.6115 -0.3916  0.0183
 8167TIP3    H145992   0.010   4.131   1.610 -0.4590 -2.4937  1.3100
 8167TIP3    H245993  -0.054   4.121   1.473  0.5018  0.2811  0.6378
 8168TIP3   OH245994   6.355   6.350  13.254 -0.2095 -0.5829 -0.1572
 8168TIP3    H145995   6.347   6.428  13.310 -2.0611 -0.7088 -0.2391
 8168TIP3    H245996   6.413   6.291  13.303 -0.7782 -0.1606  1.0294
 8169TIP3   OH245997   3.702   0.760   5.932  0.5599 -0.6205  0.0698
 8169TIP3    H145998   3.657   0.770   6.016  0.0692 -0.7163 -0.1805
 8169TIP3    H245999   3.632   0.738   5.870  0.6170  1.4036 -0.7567
 8170TIP3   OH246000   3.283   4.803   4.564 -0.3531  0.2016 -0.3949
 8170TIP3    H146001   3.268   4.750   4.486  0.9435 -0.3972 -0.2587
 8170TIP3    H246002   3.213   4.778   4.624 -0.1818 -0.8222 -0.6077
 8171TIP3   OH246003   2.484   4.257  11.758  0.6864  0.6003 -0.1730
 8171TIP3    H146004   2.499   4.331  11.701 -0.0444  0.7805 -0.1452
 8171TIP3    H246005   2.547   4.267  11.829  1.6666  0.3122 -1.0016
 8172TIP3   OH246006   1.040   2.913   6.299  0.4375 -0.1128 -0.0988
 8172TIP3    H146007   1.107   2.918   6.367  0.7473 -0.1020 -0.3977
 8172TIP3    H246008   0.998   2.829   6.312  2.6594 -1.5586 -1.8658
 8173TIP3   OH246009   6.547   3.103   4.029  0.1046  0.6347 -0.6322
 8173TIP3    H146010   6.458   3.069   4.025  0.7593 -1.5117  1.5106
 8173TIP3    H246011   6.544   3.171   4.096  0.9977 -2.7318  2.9771
 8174TIP3   OH246012   1.892   5.756  13.623  0.1664  1.1739 -0.1831
 8174TIP3    H146013   1.929   5.836  13.587 -0.8899  2.0264  0.5872
 8174TIP3    H246014   1.858   5.781  13.708  2.6260 -0.8056  1.4614
 8175TIP3   OH246015   5.032   0.069  15.550  0.3646 -0.2517  0.4963
 8175TIP3    H146016   5.103   0.110  15.500  1.4163 -0.9983  1.3630
 8175TIP3    H246017   5.073  -0.008  15.590 -0.6420 -0.0349  1.9543
 8176TIP3   OH246018   2.161   3.253  15.985  0.3500  0.2505 -0.2989
 8176TIP3    H146019   2.205   3.333  15.956  1.1966  0.0593  0.4411
 8176TIP3    H246020   2.123   3.277  16.070 -0.3156  0.1783 -0.5699
 8177TIP3   OH246021   4.198   5.080  14.803 -0.2257  0.2178  0.1269
 8177TIP3    H146022   4.239   4.997  14.826 -3.1929 -1.2153  0.4556
 8177TIP3    H246023   4.195   5.129  14.885 -0.9564 -0.4925  0.5339
 8178TIP3   OH246024   5.168   2.749  13.108  0.6730  0.1020 -0.0973
 8178TIP3    H146025   5.150   2.746  13.014  1.8923 -1.6238 -0.2882
 8178TIP3    H246026   5.107   2.815  13.141 -0.0773  0.4208 -2.0194
 8179TIP3   OH246027   3.881   1.284  12.324 -0.8760 -0.3490  0.3956
 8179TIP3    H146028   3.966   1.261  12.361 -0.6158 -0.2567 -0.1504
 8179TIP3    H246029   3.841   1.199  12.303 -0.6183 -0.3664 -0.0273
 8180TIP3   OH246030   1.052   5.877  11.604  0.2936 -0.3196  0.0689
 8180TIP3    H146031   1.131   5.885  11.658  0.7120  0.8483 -0.6997
 8180TIP3    H246032   1.012   5.795  11.633  1.2286 -0.3949  1.2050
 8181TIP3   OH246033   2.979   1.054   1.229  0.0566 -0.3241  0.9471
 8181TIP3    H146034   2.990   0.998   1.151  1.1776 -0.0359  0.8822
 8181TIP3    H246035   2.989   0.994   1.303  0.7501 -0.3079  0.8734
 8182TIP3   OH246036   4.571   1.883   1.325 -0.4041 -0.2459  0.1219
 8182TIP3    H146037   4.604   1.966   1.359 -0.6544 -0.0031 -0.2331
 8182TIP3    H246038   4.646   1.843   1.282 -0.0502 -0.6064  1.0525
 8183TIP3   OH246039   3.705   1.682   2.176  0.3506 -0.2216  0.3006
 8183TIP3    H146040   3.661   1.766   2.163 -0.0486 -0.4709  0.0234
 8183TIP3    H246041   3.798   1.702   2.168  0.1764 -0.1987 -2.1037
 8184TIP3   OH246042   4.210   3.074  12.158 -0.2702  0.4764  0.7751
 8184TIP3    H146043   4.117   3.059  12.172  0.1682 -1.8847  1.3528
 8184TIP3    H246044   4.216   3.167  12.135 -2.7697  0.6190  0.5401
 8185TIP3   OH246045   2.178   0.044   5.827  0.0241  0.3359 -0.6490
 8185TIP3    H146046   2.211  -0.013   5.896  2.3990  1.8259 -0.4909
 8185TIP3    H246047   2.083   0.046   5.840  0.3385 -0.1948  1.9690
 8186TIP3   OH246048   2.044   2.104   1.822 -0.1158 -0.4341 -0.3315
 8186TIP3    H146049   2.088   2.052   1.889  0.4928 -1.0861 -1.2215
 8186TIP3    H246050   2.081   2.073   1.739 -2.1315 -0.8691 -1.0846
 8187TIP3   OH246051   1.744   5.246   4.953 -0.1476 -0.5343 -0.7702
 8187TIP3    H146052   1.827   5.292   4.942 -0.5251  0.0612 -1.1095
 8187TIP3    H246053   1.677   5.309   4.927 -0.6257 -1.4822 -1.9020
 8188TIP3   OH246054   1.367   6.336  16.778  0.1877  0.3593 -0.1312
 8188TIP3    H146055   1.401   6.370  16.695  0.3457 -0.6715 -0.4935
 8188TIP3    H246056   1.282   6.298  16.755  0.0536  0.4293  0.2503
 8189TIP3   OH246057   6.148   5.657   4.943  0.4515  0.3565  0.2921
 8189TIP3    H146058   6.242   5.637   4.938  0.6847  0.8443  2.4456
 8189TIP3    H246059   6.138   5.706   5.025 -1.8098 -0.3772  0.4814
 8190TIP3   OH246060   0.882   3.123   6.511  0.2149  0.6791 -0.2796
 8190TIP3    H146061   0.961   3.080   6.545 -0.5488 -0.5148  0.0183
 8190TIP3    H246062   0.820   3.052   6.498 -0.6843  1.5634 -0.8960
 8191TIP3   OH246063   6.797   3.243  13.322  0.0588 -0.1592 -0.0695
 8191TIP3    H146064   6.818   3.195  13.402 -0.8831 -0.3407  0.0808
 8191TIP3    H246065   6.874   3.233  13.266 -0.2551 -2.1435 -0.1784
 8192TIP3   OH246066   3.768   2.951   4.436 -0.1912 -1.1744 -0.0941
 8192TIP3    H146067   3.842   3.003   4.467 -0.4788 -0.4147 -0.6692
 8192TIP3    H246068   3.714   2.938   4.514 -0.1710 -0.5115  0.0371
 8193TIP3   OH246069   4.705   2.344   4.158  0.1965  0.2359 -0.0388
 8193TIP3    H146070   4.725   2.378   4.071 -1.2586 -0.0778 -0.5137
 8193TIP3    H246071   4.632   2.398   4.188  2.3225  2.0644  2.0932
 8194TIP3   OH246072   3.293   3.289  13.192  0.3018 -0.0314 -0.0716
 8194TIP3    H146073   3.228   3.344  13.149 -0.0566 -0.4918 -0.1171
 8194TIP3    H246074   3.343   3.350  13.247 -0.8236  0.1560  0.7483
 8195TIP3   OH246075   6.279   6.554   0.098  0.2397  0.3209 -0.1951
 8195TIP3    H146076   6.302   6.601   0.178  0.8558 -0.2149 -0.0514
 8195TIP3    H246077   6.183   6.550   0.099  0.3049 -0.9571  1.2561
 8196TIP3   OH246078   0.107   5.875  11.302 -0.3147  0.8070 -0.2035
 8196TIP3    H146079   0.066   5.915  11.225 -0.9724 -0.3623 -0.4593
 8196TIP3    H246080   0.090   5.782  11.293 -0.9797  0.7287  1.7085
 8197TIP3   OH246081   1.735   4.977   5.103 -0.2867  0.4259 -0.0259
 8197TIP3    H146082   1.826   5.001   5.121 -0.5399  2.0091 -0.7686
 8197TIP3    H246083   1.697   5.055   5.063 -1.7264 -0.5378 -0.5782
 8198TIP3   OH246084   6.488   4.228   5.569 -0.2454 -0.2457 -0.0211
 8198TIP3    H146085   6.507   4.261   5.481  0.2725  1.7226  0.8007
 8198TIP3    H246086   6.520   4.138   5.569  0.8175  0.1280 -1.4750
 8199TIP3   OH246087   5.951   3.233  15.563  0.1403 -0.5066 -0.6869
 8199TIP3    H146088   5.885   3.214  15.496 -0.1173 -0.5101 -0.4337
 8199TIP3    H246089   5.951   3.156  15.619 -2.4628  1.0894  1.6116
 8200TIP3   OH246090   6.696   2.210   1.441  0.2517  0.1443  0.1085
 8200TIP3    H146091   6.660   2.122   1.455 -1.3182  0.9115  0.9514
 8200TIP3    H246092   6.781   2.208   1.485 -0.7229 -0.2767  1.9984
 8201TIP3   OH246093   5.547   0.719   1.587 -0.0843 -0.7712 -0.2697
 8201TIP3    H146094   5.635   0.758   1.587 -0.2692 -0.3184 -1.7555
 8201TIP3    H246095   5.563   0.625   1.582  0.3228 -0.7074 -0.2234
 8202TIP3   OH246096   6.197   4.538  10.747  0.0064 -0.1229 -0.2593
 8202TIP3    H146097   6.114   4.526  10.793  0.7100 -1.6584  0.6799
 8202TIP3    H246098   6.207   4.632  10.738 -0.6746  0.1666  1.8062
 8203TIP3   OH246099   6.133   5.895  12.491  0.3026  0.4640  0.0694
 8203TIP3    H146100   6.070   5.961  12.462  1.7098  2.1403  0.7169
 8203TIP3    H246101   6.189   5.880  12.415 -0.3136 -0.3786 -0.2314
 8204TIP3   OH246102   2.073   6.101   1.208 -0.6377  0.4519  0.3185
 8204TIP3    H146103   2.109   6.020   1.244 -0.8686  0.3373  0.2921
 8204TIP3    H246104   2.149   6.145   1.168  0.2470  2.0294  3.5562
 8205TIP3   OH246105   2.104   3.518   2.765  0.0301 -0.4674 -0.2029
 8205TIP3    H146106   2.153   3.584   2.714  0.5253  0.3134  1.2411
 8205TIP3    H246107   2.015   3.552   2.769  0.8224  1.4612  2.6734
 8206TIP3   OH246108   5.042   2.508  15.719  0.4847  0.5640 -0.3484
 8206TIP3    H146109   4.973   2.460  15.671  1.3373  0.0429 -1.0807
 8206TIP3    H246110   5.046   2.464  15.804  2.0290 -1.4499 -1.4038
 8207TIP3   OH246111   5.926   1.697   5.931 -0.0547  0.5161 -0.6514
 8207TIP3    H146112   5.876   1.727   5.855  0.9761  2.4476 -0.5853
 8207TIP3    H246113   5.885   1.740   6.006  0.8021  0.9859 -0.4444
 8208TIP3   OH246114   0.236   1.992  12.593  0.2939  0.3382 -0.1512
 8208TIP3    H146115   0.206   1.923  12.653  0.8978 -1.2264 -1.5896
 8208TIP3    H246116   0.311   2.031  12.637 -1.8597  2.1893  2.0647
 8209TIP3   OH246117   1.368   4.690   0.814  0.6276 -0.1628 -0.0435
 8209TIP3    H146118   1.308   4.665   0.884 -0.5885 -1.0376 -1.3788
 8209TIP3    H246119   1.454   4.693   0.856 -0.2547  0.5663  1.7686
 8210TIP3   OH246120   2.645   1.402   3.556 -0.4285  0.2400 -0.3794
 8210TIP3    H146121   2.562   1.438   3.526  0.0752  0.7169 -1.2096
 8210TIP3    H246122   2.646   1.312   3.523 -0.7282  0.1532 -0.1499
 8211TIP3   OH246123   1.409   6.047  15.068  0.2086  1.0341  0.5096
 8211TIP3    H146124   1.354   6.114  15.109  0.8815  2.6312 -1.1433
 8211TIP3    H246125   1.497   6.084  15.069  0.6421  0.0475 -0.1672
 8212TIP3   OH246126   2.259   5.441  16.229  0.2110  0.1590 -0.6878
 8212TIP3    H146127   2.211   5.522  16.212  0.7657  0.8782  0.9702
 8212TIP3    H246128   2.336   5.446  16.173 -0.4738  0.1076 -1.6363
 8213TIP3   OH246129   6.190   3.413   3.823  0.3642 -0.2353  0.0386
 8213TIP3    H146130   6.169   3.504   3.845  1.7159 -0.5776  2.8466
 8213TIP3    H246131   6.119   3.386   3.765 -2.3501  1.3071  2.5129
 8214TIP3   OH246132   5.773   2.061  10.646 -0.3272  0.3921 -0.1532
 8214TIP3    H146133   5.771   1.984  10.590  1.7266  1.0103 -1.0988
 8214TIP3    H246134   5.850   2.048  10.702 -0.4315  1.3711  0.2274
 8215TIP3   OH246135   4.002   3.711   2.243 -0.0534 -0.3465  0.0462
 8215TIP3    H146136   3.928   3.689   2.187 -0.0110  0.4327 -0.3308
 8215TIP3    H246137   4.055   3.632   2.245 -0.1530 -0.4472 -0.8723
 8216TIP3   OH246138   4.700   3.487  11.972  0.3079  0.4469 -0.0194
 8216TIP3    H146139   4.705   3.480  12.067 -0.8141  0.7477  0.0633
 8216TIP3    H246140   4.665   3.575  11.956  3.2788  1.5567 -0.7792
 8217TIP3   OH246141   6.284   1.391   3.033  0.4483  0.2965 -0.8352
 8217TIP3    H146142   6.294   1.439   3.115  2.3005 -0.2688 -0.6974
 8217TIP3    H246143   6.250   1.456   2.971 -1.0476  0.7022  0.3895
 8218TIP3   OH246144   4.094   5.816   1.598 -0.0957  0.1085  0.0275
 8218TIP3    H146145   4.047   5.742   1.558 -1.1652  0.8271 -0.0719
 8218TIP3    H246146   4.041   5.840   1.674  0.5066  0.4624  0.3364
 8219TIP3   OH246147   3.297   4.582   0.655  0.0406  0.3391  0.1278
 8219TIP3    H146148   3.312   4.676   0.650  1.2697  0.2541  2.0304
 8219TIP3    H246149   3.376   4.543   0.617  1.4152  0.0368  3.1478
 8220TIP3   OH246150   2.138   4.511   0.937 -0.0098  0.2052  0.2319
 8220TIP3    H146151   2.226   4.495   0.971  0.4001 -0.5358 -1.1121
 8220TIP3    H246152   2.119   4.433   0.885 -1.9212 -0.1578  1.4138
 8221TIP3   OH246153   2.619   0.008  14.170  0.0134  0.2109  0.5897
 8221TIP3    H146154   2.582  -0.072  14.208 -0.0173  0.6115  1.4165
 8221TIP3    H246155   2.576   0.016  14.085 -1.6678  0.5592  1.4483
 8222TIP3   OH246156   6.479   3.747   3.689  0.0036 -0.1842  0.0122
 8222TIP3    H146157   6.541   3.755   3.617  0.8740 -1.6110  0.5733
 8222TIP3    H246158   6.524   3.692   3.753 -1.9553 -1.5004  0.2988
 8223TIP3   OH246159   4.250   6.807  17.230 -0.2021 -0.3513  0.1158
 8223TIP3    H146160   4.192   6.810  17.155  0.6728  1.1190 -0.5318
 8223TIP3    H246161   4.224   6.882  17.283 -0.6280 -1.2188  1.1531
 8224TIP3   OH246162   4.311   4.686  13.326 -0.5147  0.5907 -0.5020
 8224TIP3    H146163   4.359   4.622  13.272  0.4955  1.8755 -1.1487
 8224TIP3    H246164   4.220   4.675  13.300 -0.4293 -1.0162 -0.1719
 8225TIP3   OH246165   2.012   2.534   1.071  0.2782  0.1069 -0.1135
 8225TIP3    H146166   1.991   2.526   1.164  1.6042  1.4054  0.3171
 8225TIP3    H246167   2.103   2.506   1.064  0.0463 -0.4091 -1.0883
 8226TIP3   OH246168   5.826   4.705   2.755  0.3959  0.2103 -0.0127
 8226TIP3    H146169   5.766   4.631   2.765 -0.4933  0.9787  0.3490
 8226TIP3    H246170   5.904   4.679   2.805  0.6551 -1.0864 -1.0525
 8227TIP3   OH246171   6.492   1.334  11.761  0.1341  0.1389 -0.0992
 8227TIP3    H146172   6.469   1.340  11.854 -2.3802  0.9190 -0.7385
 8227TIP3    H246173   6.543   1.253  11.755  0.0529 -0.0929  1.9004
 8228TIP3   OH246174   3.755   5.464   2.790 -0.1640 -0.0511 -0.3946
 8228TIP3    H146175   3.773   5.509   2.707 -1.2772 -3.8342 -2.8011
 8228TIP3    H246176   3.660   5.470   2.800 -0.1792 -0.8502 -0.1003
 8229TIP3   OH246177   6.655   1.962   5.049 -0.0075 -0.1284 -0.3829
 8229TIP3    H146178   6.574   1.915   5.068 -0.5634 -0.3978 -3.1318
 8229TIP3    H246179   6.626   2.044   5.009  1.0542  0.4889  0.0975
 8230TIP3   OH246180   3.045   2.128   0.533 -0.5929 -0.1627  0.1317
 8230TIP3    H146181   3.003   2.173   0.607 -0.7457  0.3580 -0.2713
 8230TIP3    H246182   3.116   2.186   0.507 -0.6458 -0.2669 -0.2415
 8231TIP3   OH246183   5.574   4.946   3.452 -0.5704 -0.4446 -0.6100
 8231TIP3    H146184   5.644   4.887   3.425 -0.3225  0.5511 -2.2001
 8231TIP3    H246185   5.503   4.888   3.479  0.1692 -1.4550 -0.7939
 8232TIP3   OH246186   5.741   0.441  14.881  0.0896  0.0176  0.3989
 8232TIP3    H146187   5.804   0.372  14.902 -0.1342 -0.8502 -1.6412
 8232TIP3    H246188   5.786   0.498  14.819 -0.1632  1.0011  1.1016
 8233TIP3   OH246189   2.035   0.457  14.494 -0.0107  0.5213  0.3211
 8233TIP3    H146190   2.049   0.403  14.573 -1.5115 -1.5469 -0.7823
 8233TIP3    H246191   1.947   0.493  14.505 -0.0660  0.5519 -0.2232
 8234TIP3   OH246192   3.876   1.459  14.472 -0.0008  0.1479  0.0796
 8234TIP3    H146193   3.964   1.494  14.458  0.0446  0.1037  0.2643
 8234TIP3    H246194   3.888   1.388  14.535 -0.1862  0.2190  0.1945
 8235TIP3   OH246195   4.444   1.037   1.765  0.0609 -0.5787 -0.3668
 8235TIP3    H146196   4.384   0.974   1.804  0.0907 -2.2209 -2.8219
 8235TIP3    H246197   4.390   1.084   1.701  0.6873 -0.0261 -0.4897
 8236TIP3   OH246198   5.795   1.944   1.004 -0.9561 -0.1679 -0.3633
 8236TIP3    H146199   5.820   2.037   1.005 -0.7697 -0.1339  3.9987
 8236TIP3    H246200   5.879   1.897   1.008 -1.1182 -0.3846  0.7988
 8237TIP3   OH246201   5.959   1.713   3.499  0.2199 -0.1079 -0.4116
 8237TIP3    H146202   5.998   1.793   3.462 -0.2453  0.2760 -0.0895
 8237TIP3    H246203   6.016   1.688   3.571 -0.7399  1.1221  0.8173
 8238TIP3   OH246204   5.893   3.887  12.796  0.0824 -0.1696  0.2701
 8238TIP3    H146205   5.814   3.841  12.825 -0.4844  0.9602  0.5533
 8238TIP3    H246206   5.887   3.887  12.701  1.2868 -2.7409  0.1535
 8239TIP3   OH246207   4.625   3.895   0.243  0.2642  0.3325  0.3070
 8239TIP3    H146208   4.604   3.888   0.337 -0.0989 -3.2693  0.0353
 8239TIP3    H246209   4.540   3.904   0.200  0.1445 -1.5123  0.1134
 8240TIP3   OH246210   1.974   6.200   2.027  0.1448 -0.3647 -0.1194
 8240TIP3    H146211   1.897   6.254   2.014  0.8669  0.4505 -1.1032
 8240TIP3    H246212   1.940   6.116   2.059 -1.2671 -0.5120 -1.9233
 8241TIP3   OH246213   1.635   4.958   0.699  0.5976 -0.5865  0.2745
 8241TIP3    H146214   1.562   4.949   0.760  1.9538 -0.8476  1.8928
 8241TIP3    H246215   1.698   4.891   0.727  2.0160  0.4932 -0.2753
 8242TIP3   OH246216   4.449   6.696   1.769  0.4820 -0.0308  0.4664
 8242TIP3    H146217   4.543   6.711   1.767  0.2316  1.6773  0.6936
 8242TIP3    H246218   4.412   6.779   1.799 -1.1176 -0.5882  0.0945
 8243TIP3   OH246219   4.929   3.175  15.955 -0.4785 -0.1806 -0.5793
 8243TIP3    H146220   4.890   3.230  15.887 -0.5694  1.0884  0.5050
 8243TIP3    H246221   4.865   3.172  16.025  0.5872  0.4247  0.4425
 8244TIP3   OH246222   3.719   0.252  17.184  0.0053 -0.4057 -0.4258
 8244TIP3    H146223   3.645   0.227  17.130 -0.8660  0.4065  0.3636
 8244TIP3    H246224   3.720   0.188  17.255 -0.4208  0.0417 -0.0123
 8245TIP3   OH246225   5.425   0.305   1.249  0.3482  0.2474 -0.1106
 8245TIP3    H146226   5.440   0.212   1.263  0.1660  0.3316  0.6219
 8245TIP3    H246227   5.513   0.342   1.237  0.5996  0.3968  2.1056
 8246TIP3   OH246228   0.007   4.673  16.126  0.1198 -0.2347  0.2691
 8246TIP3    H146229   0.030   4.582  16.147 -2.4785 -1.3528 -1.4748
 8246TIP3    H246230  -0.069   4.692  16.179 -0.5256  0.2542 -0.8145
 8247TIP3   OH246231   6.205   6.024  12.718 -0.8772  0.1119 -0.0547
 8247TIP3    H146232   6.207   5.969  12.640  0.6193 -1.4291  1.0336
 8247TIP3    H246233   6.289   6.069  12.719 -1.4269  1.1611 -0.0329
 8248TIP3   OH246234   3.835   3.474  13.857  0.5341 -0.1003 -0.1801
 8248TIP3    H146235   3.810   3.537  13.790 -1.0514 -1.0591 -0.5136
 8248TIP3    H246236   3.884   3.407  13.810  1.9403  0.6849  0.1223
 8249TIP3   OH246237   6.360   1.970  12.680 -0.2433  0.0328  0.2307
 8249TIP3    H146238   6.378   1.880  12.655 -0.7783  0.1194 -0.4726
 8249TIP3    H246239   6.446   2.013  12.680  0.1469 -0.7320  1.6179
 8250TIP3   OH246240   3.866   1.857  13.565  0.2191 -0.4382 -0.3527
 8250TIP3    H146241   3.906   1.776  13.596 -0.6580 -0.1673  1.5890
 8250TIP3    H246242   3.918   1.927  13.605 -1.6782 -0.0829  1.5914
 8251TIP3   OH246243   0.472   5.898   3.108  0.2761 -0.4491  0.2241
 8251TIP3    H146244   0.423   5.855   3.038  1.6151  0.4074 -1.2869
 8251TIP3    H246245   0.478   5.833   3.178 -1.6567 -1.0854 -0.1853
 8252TIP3   OH246246   0.877   4.271  16.425 -0.2123 -0.3725  0.2642
 8252TIP3    H146247   0.854   4.241  16.513  0.2839 -1.1250  0.1341
 8252TIP3    H246248   0.969   4.248  16.414  0.0667  0.8162 -0.0011
 8253TIP3   OH246249   3.502   6.704   3.684  0.8266  0.2877 -0.0180
 8253TIP3    H146250   3.588   6.664   3.694 -0.0215 -1.2451  1.2298
 8253TIP3    H246251   3.442   6.648   3.733 -1.1417  0.4906 -2.0737
 8254TIP3   OH246252   5.467   2.538   1.996 -0.0574  0.2440 -0.5315
 8254TIP3    H146253   5.411   2.506   1.926  0.1530 -1.5576  0.1016
 8254TIP3    H246254   5.524   2.464   2.017 -0.5988  0.4866  2.0031
 8255TIP3   OH246255   0.860   6.702  16.474  0.1744  0.1814 -0.4585
 8255TIP3    H146256   0.917   6.636  16.514 -0.6843 -0.2551  0.0578
 8255TIP3    H246257   0.902   6.785  16.494  0.4439 -0.1166  0.2320
 8256TIP3   OH246258   0.111   1.485   1.819 -0.5364  0.8162 -0.2115
 8256TIP3    H146259   0.182   1.549   1.822 -1.0565  1.4568 -1.2209
 8256TIP3    H246260   0.154   1.402   1.800  0.2732  0.6244  2.2935
 8257TIP3   OH246261   5.939   3.046   3.439  0.0523 -0.0165 -0.1608
 8257TIP3    H146262   5.960   3.026   3.530  1.9839  1.7863 -0.1666
 8257TIP3    H246263   5.849   3.017   3.428  0.2936 -1.6363  1.8943
 8258TIP3   OH246264   6.341   5.104   6.133 -0.0726  0.1138  0.5436
 8258TIP3    H146265   6.245   5.097   6.128 -0.3926  4.4294 -2.7066
 8258TIP3    H246266   6.372   5.045   6.064 -0.4060 -0.2992  0.7361
 8259TIP3   OH246267   4.622   3.049   5.828  0.2232 -0.3522 -0.5316
 8259TIP3    H146268   4.658   3.124   5.875  3.1715 -1.1026 -1.4903
 8259TIP3    H246269   4.540   3.081   5.791  0.5228  1.8259  0.6254
 8260TIP3   OH246270   2.534   2.827  15.462 -0.1057  0.1106  0.1896
 8260TIP3    H146271   2.502   2.903  15.511 -0.7016 -0.1763  0.2528
 8260TIP3    H246272   2.615   2.803  15.506 -0.5306 -0.0194  0.9184
 8261TIP3   OH246273   3.175   3.277   2.061 -0.0568  0.4193 -0.3752
 8261TIP3    H146274   3.086   3.276   2.028 -1.2312  2.7928  2.5354
 8261TIP3    H246275   3.217   3.351   2.016 -0.6191  1.4513  0.7569
 8262TIP3   OH246276   0.368   4.887   5.436  0.2733 -0.2101 -0.5122
 8262TIP3    H146277   0.444   4.835   5.410  0.4605  0.3711 -1.1503
 8262TIP3    H246278   0.295   4.825   5.433  0.7179 -0.7828  0.1505
 8263TIP3   OH246279   0.267   5.911   2.173 -0.1257 -0.2643  0.2802
 8263TIP3    H146280   0.205   5.856   2.125  2.2853 -1.2930 -1.7965
 8263TIP3    H246281   0.229   5.998   2.170 -2.0590 -1.0940  0.1011
 8264TIP3   OH246282   0.149   6.287   6.120 -0.4916 -0.7601  0.9644
 8264TIP3    H146283   0.241   6.288   6.096 -0.7221  0.4290  0.0834
 8264TIP3    H246284   0.149   6.291   6.216  0.4071 -3.6117  1.1065
 8265TIP3   OH246285   6.388   3.578   5.735 -0.1974 -0.1032  0.0134
 8265TIP3    H146286   6.380   3.647   5.800 -0.4451 -0.5707  0.4893
 8265TIP3    H246287   6.481   3.556   5.734 -0.3237 -0.7380  0.9014
 8266TIP3   OH246288   1.023   4.918   1.195 -0.8544 -0.1518  0.4302
 8266TIP3    H146289   0.976   4.993   1.231  1.2998  1.7469 -0.6096
 8266TIP3    H246290   0.966   4.887   1.124 -1.4193  0.9382  0.3942
 8267TIP3   OH246291   5.011   1.185  12.280  0.0757 -0.1663  0.2387
 8267TIP3    H146292   4.988   1.170  12.188 -0.1225 -0.5846  0.3569
 8267TIP3    H246293   4.933   1.228  12.316 -1.1535 -2.9098  1.0009
 8268TIP3   OH246294   0.727   0.378  13.912 -0.4765  0.2236  0.0496
 8268TIP3    H146295   0.732   0.288  13.944  1.0318  0.1887 -0.2509
 8268TIP3    H246296   0.806   0.390  13.860 -1.1448  1.4188 -0.7309
 8269TIP3   OH246297   6.027   1.780   4.991  0.7759 -1.0563 -0.6530
 8269TIP3    H146298   6.110   1.759   4.948  1.2263 -1.6167  0.4913
 8269TIP3    H246299   5.975   1.700   4.983  1.2604 -1.5246  0.7827
 8270TIP3   OH246300   6.396   1.194   3.220 -0.1725  0.3600 -0.2029
 8270TIP3    H146301   6.381   1.224   3.310 -0.3477  0.2863 -0.2074
 8270TIP3    H246302   6.351   1.258   3.165 -1.7611 -0.6714 -0.1550
 8271TIP3   OH246303   3.047   5.101  16.468  0.3934 -0.1530 -0.1557
 8271TIP3    H146304   3.085   5.131  16.550  1.0160  1.3719 -0.9727
 8271TIP3    H246305   2.962   5.144  16.464  0.3727 -0.2078 -0.3170
 8272TIP3   OH246306   5.028   2.788   1.069 -0.1726  0.4655 -0.3294
 8272TIP3    H146307   5.026   2.880   1.042 -2.6178  0.7375  0.6772
 8272TIP3    H246308   4.999   2.740   0.992  2.2340  0.3828 -1.2459
 8273TIP3   OH246309   1.828   0.597  11.050 -0.1259 -0.2434 -0.3306
 8273TIP3    H146310   1.866   0.516  11.085 -0.7226 -1.0766 -1.5720
 8273TIP3    H246311   1.855   0.598  10.959 -0.4895  0.7538 -0.4287
 8274TIP3   OH246312   3.119   5.050  12.592  0.1531 -0.0692  0.2414
 8274TIP3    H146313   3.102   5.141  12.569  0.8618  0.2116  0.8002
 8274TIP3    H246314   3.111   5.048  12.687  0.8610 -0.4287  0.3001
 8275TIP3   OH246315   0.103   1.592   0.282  0.0997 -0.0393  0.2327
 8275TIP3    H146316   0.033   1.595   0.218  0.0778 -3.4396  0.0140
 8275TIP3    H246317   0.059   1.594   0.367 -0.3195 -2.2379  0.0943
 8276TIP3   OH246318   5.503   5.657   0.670 -0.0886  0.6701 -0.2001
 8276TIP3    H146319   5.559   5.723   0.710  0.6079 -0.0605  0.0501
 8276TIP3    H246320   5.444   5.630   0.741  1.9102 -1.4681  0.7275
 8277TIP3   OH246321   5.536   3.315   2.743  0.1583  0.1177 -0.2142
 8277TIP3    H146322   5.624   3.285   2.725 -0.6815 -1.6668 -1.4596
 8277TIP3    H246323   5.514   3.371   2.668  0.4066  0.9741  0.3451
 8278TIP3   OH246324   1.280   4.773   5.593 -0.2084 -0.1979  0.0303
 8278TIP3    H146325   1.208   4.778   5.531  0.2034 -0.5315 -0.4761
 8278TIP3    H246326   1.345   4.835   5.561  0.9377 -1.9460 -1.1052
 8279TIP3   OH246327   2.601   4.730  13.039 -0.1443 -0.6156  0.1496
 8279TIP3    H146328   2.671   4.713  12.975  0.0700  1.4502 -0.2253
 8279TIP3    H246329   2.526   4.681  13.007 -0.0968  0.5632 -1.8474
 8280TIP3   OH246330   5.649   0.208  16.272  0.3921  0.1820 -0.3637
 8280TIP3    H146331   5.719   0.258  16.231  2.7416 -2.0877  0.7554
 8280TIP3    H246332   5.595   0.179  16.198  1.9983 -0.0760 -1.4706
 8281TIP3   OH246333   4.684   4.862   4.775 -0.2792  0.2727  0.1077
 8281TIP3    H146334   4.626   4.911   4.833 -0.4385 -1.6252  1.5548
 8281TIP3    H246335   4.739   4.810   4.833  2.1313  1.1757 -1.2797
 8282TIP3   OH246336   1.334   4.991   0.753 -0.1016  0.2276  0.3760
 8282TIP3    H146337   1.280   5.043   0.812 -1.7257 -0.1494 -0.7472
 8282TIP3    H246338   1.313   4.901   0.774 -1.3225  0.0959 -1.3267
 8283TIP3   OH246339   4.543   0.823  12.392 -0.3110  0.3632  0.0074
 8283TIP3    H146340   4.523   0.766  12.318 -2.6556 -1.0566  1.6617
 8283TIP3    H246341   4.550   0.910  12.354 -0.4953 -0.4700 -2.0124
 8284TIP3   OH246342   4.741   2.347   2.307  0.0990  0.1934  0.2885
 8284TIP3    H146343   4.717   2.353   2.399  1.8924  0.6251  0.7356
 8284TIP3    H246344   4.789   2.428   2.289  0.5919 -0.3183 -0.7834
 8285TIP3   OH246345   6.041   1.523   4.168  0.5394 -0.0448  0.6643
 8285TIP3    H146346   6.073   1.470   4.095 -0.2533  0.2374  0.1013
 8285TIP3    H246347   6.113   1.582   4.188  0.6367  0.1217 -0.1396
 8286TIP3   OH246348   4.973   5.561  13.144  0.0095 -0.4662  0.2651
 8286TIP3    H146349   5.009   5.650  13.146  1.4197 -0.9754 -1.0258
 8286TIP3    H246350   4.927   5.556  13.060 -1.1108 -0.5660  0.8817
 8287TIP3   OH246351   5.078   0.769   3.666  0.1937 -0.1917 -0.3018
 8287TIP3    H146352   5.151   0.708   3.658  1.5161  1.2844  0.2503
 8287TIP3    H246353   5.016   0.724   3.724  1.6159 -0.5886  0.9593
 8288TIP3   OH246354   1.274   4.189   3.772 -0.2999 -0.0199 -0.5831
 8288TIP3    H146355   1.207   4.140   3.725  0.0906 -0.4947 -0.6521
 8288TIP3    H246356   1.226   4.259   3.817 -0.8907 -0.6134 -0.2774
 8289TIP3   OH246357   1.222   3.961  10.304 -0.5254 -0.5842 -0.0979
 8289TIP3    H146358   1.173   3.879  10.297 -2.3452  0.4747 -0.0854
 8289TIP3    H246359   1.170   4.015  10.363  2.4727 -0.6879  2.8124
 8290TIP3   OH246360   5.513   4.431   4.138 -0.5842  0.1891 -0.2247
 8290TIP3    H146361   5.459   4.499   4.097  0.4962  1.3295  0.1947
 8290TIP3    H246362   5.562   4.393   4.066 -1.8908 -0.8092 -0.5986
 8291TIP3   OH246363   1.413   4.686   3.763 -0.4361  0.1182  0.4852
 8291TIP3    H146364   1.347   4.640   3.711  0.4534  0.6056 -1.0932
 8291TIP3    H246365   1.374   4.772   3.779 -0.9636 -0.2378  1.1493
 8292TIP3   OH246366   5.549   2.798   3.232  0.1485 -0.2950  0.9849
 8292TIP3    H146367   5.462   2.818   3.266  0.5191 -1.1330  2.4310
 8292TIP3    H246368   5.563   2.864   3.163 -2.1905 -1.0276 -0.2252
 8293TIP3   OH246369   1.390   3.800   5.331  0.0912  0.5494 -0.1650
 8293TIP3    H146370   1.467   3.751   5.358 -0.2260  0.1160 -0.0306
 8293TIP3    H246371   1.327   3.786   5.402  1.8612  5.7450  2.7476
 8294TIP3   OH246372   6.079   2.588   2.949 -0.9287  0.2853  0.2217
 8294TIP3    H146373   5.983   2.584   2.945 -0.9251  0.1297  0.2723
 8294TIP3    H246374   6.108   2.555   2.864 -0.9466  1.5236 -0.2635
 8295TIP3   OH246375   5.111   0.199  12.187  0.6331 -0.1967 -0.1251
 8295TIP3    H146376   5.054   0.275  12.181 -0.7919 -0.9838  2.5572
 8295TIP3    H246377   5.200   0.234  12.181 -0.0152  1.6961  1.0644
 8296TIP3   OH246378   6.682   4.208   1.745 -0.2949 -0.1019 -0.0769
 8296TIP3    H146379   6.721   4.149   1.809  0.1678  0.2589 -0.0212
 8296TIP3    H246380   6.641   4.277   1.798  0.3304  0.3470 -0.1720
 8297TIP3   OH246381   3.879   4.945   0.621  0.4277  0.0017  0.4441
 8297TIP3    H146382   3.946   4.978   0.561  1.4938 -0.0902  1.5775
 8297TIP3    H246383   3.840   4.870   0.575  1.5033 -0.3035  0.0226
 8298TIP3   OH246384   2.496   0.168   5.563 -0.6841 -0.5770 -0.0930
 8298TIP3    H146385   2.404   0.154   5.540 -0.5678  0.0033 -0.9415
 8298TIP3    H246386   2.493   0.235   5.631 -1.0685 -2.7115  2.0660
 8299TIP3   OH246387   4.237   1.067   5.079 -0.0428  0.2995 -0.5043
 8299TIP3    H146388   4.194   1.024   5.006 -0.7624 -2.2387  1.3413
 8299TIP3    H246389   4.182   1.143   5.098 -2.2485 -1.3817  0.0580
 8300TIP3   OH246390   4.392   2.027  17.027  0.3043 -0.1646  0.4071
 8300TIP3    H146391   4.340   2.056  16.952  0.6529 -1.2463 -0.2488
 8300TIP3    H246392   4.337   1.962  17.070  0.6116 -0.4286  0.3993
 8301TIP3   OH246393   4.984   3.891  16.465 -0.3873 -0.1533  0.3773
 8301TIP3    H146394   5.048   3.820  16.475  0.5559  0.5006 -0.9361
 8301TIP3    H246395   5.010   3.936  16.386 -2.7024 -0.0778 -0.3953
 8302TIP3   OH246396   1.421   2.766  14.867 -0.3359  0.0190  0.3190
 8302TIP3    H146397   1.391   2.857  14.870  0.7456  0.4233 -0.6107
 8302TIP3    H246398   1.504   2.767  14.915 -0.1373 -0.4080 -0.0160
 8303TIP3   OH246399   4.706   2.842   5.655 -0.3575  0.4232  0.3848
 8303TIP3    H146400   4.681   2.915   5.711 -0.7368  0.1490  0.5791
 8303TIP3    H246401   4.704   2.878   5.566 -0.5562  0.6492  0.4791
 8304TIP3   OH246402   2.471   2.613   1.855  0.3091  0.0127  0.1694
 8304TIP3    H146403   2.479   2.588   1.947  1.6168 -1.3737 -0.2972
 8304TIP3    H246404   2.411   2.548   1.817  0.1832  0.2658 -0.0669
 8305TIP3   OH246405   5.792   3.067   0.161 -0.3697 -0.5353 -0.3568
 8305TIP3    H146406   5.777   3.017   0.241  0.6652 -0.6689 -0.2318
 8305TIP3    H246407   5.797   3.158   0.190 -0.3038 -0.5533 -0.3123
 8306TIP3   OH246408   0.619   2.473  11.990 -0.0194  0.5274 -0.5258
 8306TIP3    H146409   0.677   2.488  11.915  1.2142  1.6427  0.6220
 8306TIP3    H246410   0.568   2.396  11.966 -0.6518  1.6995 -3.1119
 8307TIP3   OH246411   4.182   3.672  14.809  0.3097 -0.0017  0.0836
 8307TIP3    H146412   4.099   3.626  14.794  0.0869  0.2462  0.5384
 8307TIP3    H246413   4.206   3.704  14.722  2.2964 -3.9314 -0.9187
 8308TIP3   OH246414   1.897   6.331   6.525  0.0224 -0.3807 -0.0266
 8308TIP3    H146415   1.881   6.257   6.466  1.1230 -0.5716 -0.1023
 8308TIP3    H246416   1.992   6.342   6.523 -0.1584  1.1789 -0.1723
 8309TIP3   OH246417   2.048   3.662   1.574 -0.0012 -0.8972 -0.5822
 8309TIP3    H146418   2.121   3.599   1.570  0.3563 -0.7222  2.3348
 8309TIP3    H246419   2.090   3.747   1.566 -0.0296 -0.8488 -0.2069
 8310TIP3   OH246420   0.528   2.709  12.806 -0.0531  0.4627  0.5009
 8310TIP3    H146421   0.553   2.690  12.715  0.0064 -1.7616  0.9522
 8310TIP3    H246422   0.434   2.726  12.801 -0.7168 -2.7764  0.3809
 8311TIP3   OH246423   0.385   4.594   6.229  0.4210 -0.0984 -0.5321
 8311TIP3    H146424   0.436   4.556   6.158 -0.9522 -0.0232 -1.5682
 8311TIP3    H246425   0.450   4.637   6.285  1.8168 -2.7417 -0.0914
 8312TIP3   OH246426   2.925   4.746  14.198  0.5389  0.4864 -0.2509
 8312TIP3    H146427   2.918   4.687  14.273  1.1842 -0.2580 -0.7725
 8312TIP3    H246428   2.836   4.778  14.185  0.6340  1.6494  1.6432
 8313TIP3   OH246429   4.002   6.175   6.237 -0.3879 -0.0535  0.0053
 8313TIP3    H146430   3.985   6.213   6.324  0.7071 -0.3298  0.3457
 8313TIP3    H246431   4.087   6.131   6.246  1.3535  2.7401 -2.1510
 8314TIP3   OH246432   5.954   2.769   4.211  0.2971  0.0636  0.2011
 8314TIP3    H146433   5.879   2.826   4.229  0.0434 -0.2958  0.2874
 8314TIP3    H246434   6.030   2.827   4.218 -0.1105  0.9268 -2.0183
 8315TIP3   OH246435   2.658   0.604  12.455 -0.4728  0.5582 -0.2231
 8315TIP3    H146436   2.581   0.612  12.399 -0.3077  1.6276 -0.3188
 8315TIP3    H246437   2.716   0.675  12.425  0.7471 -0.5251 -0.4794
 8316TIP3   OH246438   4.199   0.190  13.378 -0.0246 -0.2032  0.1480
 8316TIP3    H146439   4.242   0.156  13.457  0.0104 -0.8375 -0.1444
 8316TIP3    H246440   4.196   0.285  13.392 -1.7938 -0.4656  1.8229
 8317TIP3   OH246441   5.680   1.250   4.793  0.1898 -0.2379 -0.0545
 8317TIP3    H146442   5.601   1.210   4.758  0.1697 -0.8174  0.6591
 8317TIP3    H246443   5.748   1.182   4.784  0.0851 -0.5437  1.4285
 8318TIP3   OH246444   5.896   5.432  10.970 -0.3145 -0.5184 -0.3238
 8318TIP3    H146445   5.962   5.497  10.996 -0.2869 -0.5036 -0.4312
 8318TIP3    H246446   5.826   5.484  10.930 -1.2357 -0.3385  1.4301
 8319TIP3   OH246447   4.302   2.225  12.740 -0.1157 -0.0449 -0.2477
 8319TIP3    H146448   4.254   2.144  12.721 -1.0781  0.5207 -0.3013
 8319TIP3    H246449   4.357   2.203  12.815  0.0741 -0.9164 -0.6382
 8320TIP3   OH246450   5.355   2.823   5.044  0.4532  0.1239  0.0169
 8320TIP3    H146451   5.309   2.803   4.963  0.7589  1.4979 -0.5155
 8320TIP3    H246452   5.448   2.821   5.021  0.5732 -0.2397  0.5137
 8321TIP3   OH246453   4.511   4.561   3.546  0.0297  0.2370  0.2546
 8321TIP3    H146454   4.565   4.640   3.547  0.7282 -0.2311 -0.2062
 8321TIP3    H246455   4.507   4.536   3.454 -0.8053  0.1553  0.3148
 8322TIP3   OH246456   1.980   3.820  15.007  0.2775 -0.2462  0.4481
 8322TIP3    H146457   2.046   3.863  14.953  0.6501 -0.7323  0.5124
 8322TIP3    H246458   1.993   3.727  14.991 -1.0123 -0.3102 -0.2587
 8323TIP3   OH246459   3.512   4.408  12.019  0.4303 -0.0356  0.2384
 8323TIP3    H146460   3.568   4.403  11.942  1.0950 -2.3139  0.8151
 8323TIP3    H246461   3.564   4.366  12.088 -1.7112 -1.6168  0.9424
 8324TIP3   OH246462   5.327   2.353   1.803  0.3664 -0.1725  0.1549
 8324TIP3    H146463   5.355   2.332   1.714 -1.0495  0.0165 -0.3389
 8324TIP3    H246464   5.242   2.311   1.812 -0.2002  1.1175  0.8903
 8325TIP3   OH246465   6.324   4.494  15.105  0.5769 -0.1195 -0.1401
 8325TIP3    H146466   6.353   4.559  15.170 -0.4504  0.4023 -0.1930
 8325TIP3    H246467   6.357   4.527  15.022  2.1872 -0.9641  0.1583
 8326TIP3   OH246468   0.764   0.770   4.631  0.3239 -0.8877  0.0757
 8326TIP3    H146469   0.760   0.778   4.726  1.4661 -1.2902  0.1653
 8326TIP3    H246470   0.681   0.728   4.606 -0.2575 -0.1931  0.8152
 8327TIP3   OH246471   2.076   6.390  12.517 -0.1465 -0.6492  0.0356
 8327TIP3    H146472   2.110   6.334  12.448  1.6360  0.5951 -0.1372
 8327TIP3    H246473   2.154   6.415  12.568 -1.1257  0.3420  1.0804
 8328TIP3   OH246474   5.800   0.973  16.682 -0.2627  0.2247  0.0135
 8328TIP3    H146475   5.884   0.993  16.643  1.1052 -1.9736  1.6825
 8328TIP3    H246476   5.762   0.906  16.625 -0.5266  0.6422 -0.3029
 8329TIP3   OH246477   2.518   5.376   3.765  0.6472 -0.2163  0.3196
 8329TIP3    H146478   2.495   5.315   3.695  1.5944 -0.6164  0.3519
 8329TIP3    H246479   2.486   5.334   3.845  1.6369 -0.8691  0.3881
 8330TIP3   OH246480   3.321   0.447  15.615 -0.4249 -0.6767 -0.5335
 8330TIP3    H146481   3.264   0.413  15.546 -0.7964 -0.7489 -0.1887
 8330TIP3    H246482   3.408   0.447  15.575 -0.3653 -2.2977 -0.4658
 8331TIP3   OH246483   6.374   0.388   6.205 -0.0849  0.2896 -0.0559
 8331TIP3    H146484   6.312   0.352   6.141  0.9459 -0.8773 -0.4222
 8331TIP3    H246485   6.324   0.454   6.252 -1.9520 -1.4388  0.4429
 8332TIP3   OH246486   1.069   1.735  15.061 -0.1303  0.2585 -0.2738
 8332TIP3    H146487   1.004   1.676  15.100 -1.1722 -0.7127 -3.3623
 8332TIP3    H246488   1.019   1.811  15.032 -0.3832 -1.4905 -4.7594
 8333TIP3   OH246489   1.143   3.453   4.501 -0.2509 -0.3338 -0.1429
 8333TIP3    H146490   1.229   3.445   4.542 -0.9523  0.0877  1.4119
 8333TIP3    H246491   1.106   3.365   4.506  0.3589 -0.6766 -1.4401
 8334TIP3   OH246492   0.177   0.421   7.264 -0.4273  0.0087  0.1150
 8334TIP3    H146493   0.191   0.370   7.184 -0.9107  1.5455 -0.9679
 8334TIP3    H246494   0.093   0.389   7.298 -1.6381  1.2880 -1.5441
 8335TIP3   OH246495   6.321   6.550  14.583 -0.0144  0.1419  0.1661
 8335TIP3    H146496   6.255   6.584  14.644 -0.4350 -1.5483  0.6854
 8335TIP3    H246497   6.388   6.512  14.639  1.3330  1.7108 -0.3711
 8336TIP3   OH246498   2.175   1.254   0.623 -0.2644 -0.4775 -0.0949
 8336TIP3    H146499   2.123   1.263   0.702 -0.0226 -2.5924  0.3411
 8336TIP3    H246500   2.112   1.229   0.555 -0.6157  2.1950 -0.8243
 8337TIP3   OH246501   5.699   5.959  11.943 -0.5104 -0.2801  0.0578
 8337TIP3    H146502   5.706   6.002  11.858 -2.0663  0.5158  0.3088
 8337TIP3    H246503   5.777   5.986  11.991 -0.6985  1.0007 -0.3513
 8338TIP3   OH246504   0.153   0.549  15.479  0.0881  0.5395 -0.4538
 8338TIP3    H146505   0.107   0.490  15.420  0.5774 -1.0834  0.7785
 8338TIP3    H246506   0.096   0.559  15.554  1.8846 -1.8503  1.2912
 8339TIP3   OH246507   0.619   0.484  13.087  0.0732  0.2465  0.0406
 8339TIP3    H146508   0.571   0.402  13.094 -0.2378  0.4158 -0.1029
 8339TIP3    H246509   0.643   0.491  12.995 -2.8401  1.9595 -0.6492
 8340TIP3   OH246510   2.531   6.338  13.396  0.3730 -0.0910  0.1088
 8340TIP3    H146511   2.481   6.400  13.449  0.0274 -0.2853  0.0115
 8340TIP3    H246512   2.481   6.331  13.314 -0.5509 -1.8429  0.8082
 8341TIP3   OH246513   1.774   2.168  16.535  0.5538  0.3443  0.0492
 8341TIP3    H146514   1.821   2.156  16.617 -0.5153  0.8442  0.7363
 8341TIP3    H246515   1.682   2.172  16.560  0.0263 -1.9033 -1.4199
 8342TIP3   OH246516   4.326   6.336   5.968  0.7958 -0.2058  0.5404
 8342TIP3    H146517   4.376   6.325   6.048 -1.4374  0.2580  2.0618
 8342TIP3    H246518   4.296   6.427   5.970 -0.1952 -0.4970 -0.2611
 8343TIP3   OH246519   5.095   5.233  15.972 -0.0384 -0.7895 -0.0005
 8343TIP3    H146520   5.096   5.208  15.880 -1.7991  0.5925 -0.4447
 8343TIP3    H246521   5.187   5.245  15.995  0.3430  0.7076 -2.1231
 8344TIP3   OH246522   5.950   2.670  10.967  0.0703 -0.5284  0.2447
 8344TIP3    H146523   5.910   2.724  10.900  0.5517  0.9913  1.1661
 8344TIP3    H246524   6.025   2.629  10.924 -0.5981 -0.8850 -0.5916
 8345TIP3   OH246525   3.034   5.743   2.671  0.0247 -0.5453 -0.4303
 8345TIP3    H146526   2.948   5.736   2.711  0.0227 -0.2856 -0.3915
 8345TIP3    H246527   3.018   5.739   2.577 -0.0732 -0.0216 -0.4368
 8346TIP3   OH246528   1.031   0.066   5.500  0.2141 -0.1323 -0.2164
 8346TIP3    H146529   1.083   0.098   5.427 -0.1407 -1.1015 -0.8984
 8346TIP3    H246530   0.975   0.141   5.523  0.9766  0.4770 -0.3284
 8347TIP3   OH246531   5.858   2.271   4.800 -0.3273 -0.0395 -0.7850
 8347TIP3    H146532   5.790   2.290   4.735  1.7141  3.6481 -2.0039
 8347TIP3    H246533   5.840   2.332   4.872  0.0516 -0.9927  0.1302
 8348TIP3   OH246534   4.499   5.259   5.785  0.3671 -0.1653 -0.1160
 8348TIP3    H146535   4.428   5.264   5.849  1.9189 -0.2620  1.6459
 8348TIP3    H246536   4.576   5.291   5.832  1.1420  1.6907 -2.5441
 8349TIP3   OH246537   5.578   3.749  15.562 -0.0951 -0.4803  0.0344
 8349TIP3    H146538   5.580   3.731  15.656 -1.3112 -2.2404 -0.2505
 8349TIP3    H246539   5.636   3.683  15.523  0.8713  0.6170 -0.3918
 8350TIP3   OH246540   3.896   3.408   5.647 -0.1510  0.1715  0.3152
 8350TIP3    H146541   3.827   3.409   5.714  0.8071 -0.2609  1.3270
 8350TIP3    H246542   3.850   3.426   5.565 -1.4376  0.0996  1.0048
 8351TIP3   OH246543   5.699   5.290  11.446  0.0713 -0.1934  0.4067
 8351TIP3    H146544   5.648   5.224  11.493 -2.3192  1.2715 -0.0380
 8351TIP3    H246545   5.642   5.317  11.374  2.1646  0.3181 -1.1156
 8352TIP3   OH246546   2.180   3.232  16.913  0.4448  0.1164  0.0463
 8352TIP3    H146547   2.218   3.196  16.993 -0.0357 -0.0529  0.2031
 8352TIP3    H246548   2.235   3.198  16.842  0.0615 -0.8413  0.1986
 8353TIP3   OH246549   2.222   6.639   4.371 -0.1772  0.5354 -0.3069
 8353TIP3    H146550   2.164   6.639   4.447  1.7635  1.8424  1.2207
 8353TIP3    H246551   2.275   6.560   4.381 -1.7564 -0.7541 -1.7957
 8354TIP3   OH246552   3.638   2.644  16.185  0.4145 -0.4718 -0.2324
 8354TIP3    H146553   3.609   2.602  16.104 -1.9451 -0.0316  0.3632
 8354TIP3    H246554   3.560   2.648  16.240  1.7986 -0.0547  1.7799
 8355TIP3   OH246555   1.187   5.363   5.756  0.3409  0.2249  0.2037
 8355TIP3    H146556   1.186   5.430   5.687  0.9903 -1.1705 -1.1703
 8355TIP3    H246557   1.274   5.371   5.796  0.2969  0.4291  0.2581
 8356TIP3   OH246558   6.175   3.335  12.287 -0.0227 -1.0805 -0.1903
 8356TIP3    H146559   6.174   3.253  12.337 -2.3713 -0.7034  0.4836
 8356TIP3    H246560   6.209   3.400  12.349  0.3197 -1.2427 -0.2070
 8357TIP3   OH246561   6.719   2.375  11.304 -0.5724 -0.0874 -0.1211
 8357TIP3    H146562   6.804   2.341  11.335 -0.4069 -1.0385 -1.5380
 8357TIP3    H246563   6.710   2.460  11.346  1.7363  0.6302 -0.9694
 8358TIP3   OH246564   3.475   6.162  17.230 -0.0859 -0.5564  0.4363
 8358TIP3    H146565   3.545   6.221  17.258  0.9272 -0.6003 -1.8857
 8358TIP3    H246566   3.406   6.220  17.199  0.9230 -0.5334 -1.8757
 8359TIP3   OH246567   3.227   0.666  13.534  0.1586 -0.6029  0.0865
 8359TIP3    H146568   3.294   0.622  13.481 -0.7221 -1.0275 -0.6938
 8359TIP3    H246569   3.199   0.599  13.596 -0.1865 -0.7149 -0.1862
 8360TIP3   OH246570   4.889   0.471  10.526  0.2515 -0.1428  0.0505
 8360TIP3    H146571   4.849   0.444  10.443  0.2168 -2.4705  0.7901
 8360TIP3    H246572   4.947   0.543  10.502 -1.3010  0.5754 -1.6744
 8361TIP3   OH246573   5.040   2.261   0.888 -0.6069  0.0831  0.1540
 8361TIP3    H146574   5.104   2.328   0.915 -1.0051  1.4010 -2.0300
 8361TIP3    H246575   5.073   2.230   0.803 -0.1580 -2.9024  1.3692
 8362TIP3   OH246576   5.626   0.919  11.997  0.4218  0.1349 -0.7461
 8362TIP3    H146577   5.703   0.923  12.054  1.6031 -1.1951 -2.1812
 8362TIP3    H246578   5.658   0.948  11.911 -0.5731 -0.8188 -1.4531
 8363TIP3   OH246579   2.027   5.261  12.635 -0.0822 -0.8295  0.4992
 8363TIP3    H146580   1.934   5.260  12.657  0.0665  0.4300  1.2597
 8363TIP3    H246581   2.030   5.274  12.541 -0.6752 -1.1314  0.4403
 8364TIP3   OH246582   2.746   5.461  11.628 -0.1149  0.1120  0.0048
 8364TIP3    H146583   2.705   5.392  11.681  1.2189 -0.5585  0.1806
 8364TIP3    H246584   2.744   5.538  11.685 -0.4412 -0.1076  0.3008
 8365TIP3   OH246585   0.376   1.486   5.102 -0.6119 -0.1469  0.7070
 8365TIP3    H146586   0.448   1.474   5.040 -1.8169  0.2992 -0.8298
 8365TIP3    H246587   0.415   1.531   5.177  0.9025 -0.8123  0.3294
 8366TIP3   OH246588   6.531   6.659  11.827 -0.4637 -0.0404  0.0837
 8366TIP3    H146589   6.530   6.753  11.845  0.8617  0.4416 -2.1165
 8366TIP3    H246590   6.439   6.638  11.810 -0.6464  1.0815 -0.4244
 8367TIP3   OH246591   0.970   5.887   0.008 -0.1103  0.0417  0.7263
 8367TIP3    H146592   0.909   5.814   0.001  1.4489 -1.2199 -0.2363
 8367TIP3    H246593   1.039   5.867  -0.056  1.8570  0.8623  2.5152
 8368TIP3   OH246594   2.610   1.354  14.772 -0.3807 -0.2810 -0.1096
 8368TIP3    H146595   2.536   1.408  14.744 -0.2885 -0.1167 -0.0385
 8368TIP3    H246596   2.582   1.264  14.755  0.2729 -0.1171 -2.1821
 8369TIP3   OH246597   6.449   3.371   4.488 -0.4892 -0.3308  0.2516
 8369TIP3    H146598   6.410   3.444   4.439 -1.9170 -1.6740 -0.6634
 8369TIP3    H246599   6.491   3.412   4.564  0.7287  1.6864 -1.4379
 8370TIP3   OH246600   0.917   4.299   1.346 -0.1985  0.3139 -0.1189
 8370TIP3    H146601   0.891   4.344   1.427  0.3574  2.4435 -1.0846
 8370TIP3    H246602   0.841   4.247   1.322  0.1652 -1.5591  2.5844
 8371TIP3   OH246603   5.285   5.121   2.400  0.1389  0.0528  0.4197
 8371TIP3    H146604   5.361   5.140   2.454  1.0172 -1.1310 -0.3773
 8371TIP3    H246605   5.319   5.118   2.311 -0.5033 -2.2358  0.2176
 8372TIP3   OH246606   2.668   4.323   2.234 -0.1494  0.1119 -0.6037
 8372TIP3    H146607   2.695   4.282   2.316  2.3186 -0.6985 -1.7761
 8372TIP3    H246608   2.604   4.262   2.197 -1.0940  0.3633  0.5928
 8373TIP3   OH246609   1.851   6.659  15.394 -0.3694  0.5912 -0.1211
 8373TIP3    H146610   1.824   6.668  15.303  0.4862  0.8060 -0.3552
 8373TIP3    H246611   1.774   6.685  15.445 -0.7109  0.8668 -0.7766
 8374TIP3   OH246612   1.331   6.077   2.552 -0.1321 -0.0489  0.6443
 8374TIP3    H146613   1.307   6.017   2.623 -0.9956  0.5244  0.8352
 8374TIP3    H246614   1.269   6.057   2.482  1.6308 -1.6500 -0.5428
 8375TIP3   OH246615   4.818   0.512  13.226 -0.0358  0.1640 -0.0324
 8375TIP3    H146616   4.737   0.476  13.263 -0.7606  0.8787 -0.8656
 8375TIP3    H246617   4.859   0.438  13.181 -0.4939 -0.0930 -0.0340
 8376TIP3   OH246618   3.587   2.124   0.290 -0.0402  0.1504  0.5369
 8376TIP3    H146619   3.519   2.164   0.345 -0.0902 -0.4590  0.9278
 8376TIP3    H246620   3.599   2.185   0.217  1.9669  2.3769  2.6169
 8377TIP3   OH246621   1.601   4.441   2.360  0.2052  0.0369 -0.0671
 8377TIP3    H146622   1.627   4.349   2.364  0.5942  0.1107 -0.8779
 8377TIP3    H246623   1.555   4.450   2.277  0.8326  0.7448 -0.3457
 8378TIP3   OH246624   5.576   4.596   3.817 -0.1891  0.4220 -0.2903
 8378TIP3    H146625   5.621   4.541   3.753  0.4198 -0.1799  0.6690
 8378TIP3    H246626   5.586   4.685   3.782 -0.6523  0.0204 -1.5124
 8379TIP3   OH246627   5.121   0.293  10.829  0.2040 -0.0826 -0.6051
 8379TIP3    H146628   5.190   0.231  10.851 -2.0842 -2.9603 -1.1583
 8379TIP3    H246629   5.089   0.325  10.914  0.1808 -1.0996 -0.2218
 8380TIP3   OH246630   1.585   0.728  13.462 -0.5554  0.1912 -1.0098
 8380TIP3    H146631   1.510   0.787  13.451 -0.4947  0.2388 -1.1708
 8380TIP3    H246632   1.598   0.723  13.556  0.4692  1.7142 -1.0618
 8381TIP3   OH246633   4.251   3.566  13.698  0.0147  0.6457 -0.0242
 8381TIP3    H146634   4.182   3.507  13.727  0.8717  0.0741  0.8703
 8381TIP3    H246635   4.209   3.653  13.697 -0.5578  0.3806  1.0163
 8382TIP3   OH246636   1.139   0.354  14.484 -0.5739  0.1188  0.0305
 8382TIP3    H146637   1.222   0.390  14.454 -1.1825  0.9424 -0.7009
 8382TIP3    H246638   1.162   0.269  14.522  0.5479  0.1770 -0.4867
 8383TIP3   OH246639   4.253   0.127   2.214  0.0289 -0.0752  0.2029
 8383TIP3    H146640   4.321   0.191   2.236  0.2741 -0.7220  1.3426
 8383TIP3    H246641   4.228   0.088   2.297 -0.1962 -1.4142 -0.4775
 8384TIP3   OH246642   5.540   5.074  16.242 -0.6449 -0.0721 -0.2227
 8384TIP3    H146643   5.503   5.061  16.155 -0.5213 -2.6732  0.0710
 8384TIP3    H246644   5.626   5.033  16.237 -1.3189 -1.7460  1.6088
 8385TIP3   OH246645   0.478   2.964   5.458  0.0776 -0.0218  0.4447
 8385TIP3    H146646   0.552   2.904   5.463 -1.9248 -2.5090  1.2538
 8385TIP3    H246647   0.408   2.913   5.418 -1.7062  1.7467  1.2250
 8386TIP3   OH246648   3.921   1.241  14.623  0.7341 -0.0798 -0.5018
 8386TIP3    H146649   3.873   1.216  14.702  2.2693 -0.6959  0.2614
 8386TIP3    H246650   3.949   1.159  14.584  2.5637  0.2764 -0.0202
 8387TIP3   OH246651   0.418   2.154  13.648  0.3905  1.3091 -0.1352
 8387TIP3    H146652   0.332   2.125  13.681  1.2536 -0.3222  0.7235
 8387TIP3    H246653   0.435   2.235  13.695 -0.0494  0.8918  0.7641
 8388TIP3   OH246654   5.641   0.140  15.225  0.1938  0.4889  0.0768
 8388TIP3    H146655   5.695   0.099  15.293  0.2155 -0.0374 -0.2510
 8388TIP3    H246656   5.678   0.107  15.143 -1.6538 -1.2096 -0.1177
 8389TIP3   OH246657   5.793   0.939   0.220 -0.3832  0.3047 -0.4189
 8389TIP3    H146658   5.837   1.014   0.181 -0.8271  1.7126  1.6752
 8389TIP3    H246659   5.841   0.863   0.188  1.2236  1.5880 -1.1113
 8390TIP3   OH246660   1.909   5.846   4.004  0.1754  0.0962  0.1092
 8390TIP3    H146661   1.992   5.874   3.967 -0.0182  0.7002  0.1174
 8390TIP3    H246662   1.885   5.916   4.065 -0.4493  0.0348 -0.0626
 8391TIP3   OH246663   2.552   4.642   0.141 -0.1984 -0.5939 -0.0940
 8391TIP3    H146664   2.561   4.631   0.235 -2.9874  0.8039  0.3882
 8391TIP3    H246665   2.500   4.567   0.113 -2.3065  0.7514  0.0747
 8392TIP3   OH246666   4.874   3.749   2.556  0.5419  0.2109 -0.2196
 8392TIP3    H146667   4.842   3.748   2.646 -0.2762 -0.6097 -0.5063
 8392TIP3    H246668   4.805   3.707   2.505  2.0619 -1.6028 -0.8578
 8393TIP3   OH246669   5.234   6.525   2.389 -0.6608  0.5524 -1.0752
 8393TIP3    H146670   5.303   6.530   2.455  0.3272  1.9244 -2.1668
 8393TIP3    H246671   5.154   6.550   2.435 -0.7073 -2.3490  0.5284
 8394TIP3   OH246672   5.762   2.946  14.425  0.2375  0.0473 -0.0213
 8394TIP3    H146673   5.797   3.035  14.424  2.4724 -0.7972  0.5135
 8394TIP3    H246674   5.801   2.904  14.349  0.6579 -0.9932  0.7563
 8395TIP3   OH246675   3.855   5.013  15.839 -0.1264 -0.1707 -0.2480
 8395TIP3    H146676   3.869   4.935  15.785 -2.2071 -0.0553 -1.0456
 8395TIP3    H246677   3.776   4.993  15.890 -0.5985  1.3335 -0.3524
 8396TIP3   OH246678   0.889   2.268   5.527 -0.0840  0.3628  0.2106
 8396TIP3    H146679   0.802   2.303   5.507  0.0529  0.0859 -0.8743
 8396TIP3    H246680   0.947   2.344   5.522 -0.0977  0.3506 -0.1429
 8397TIP3   OH246681   6.538   4.144   4.325 -0.3219 -0.1755 -0.8710
 8397TIP3    H146682   6.506   4.174   4.411  0.9170 -0.6401 -0.2323
 8397TIP3    H246683   6.620   4.100   4.345  0.8426  1.2146 -2.5068
 8398TIP3   OH246684   2.463   1.325  17.102  0.1135  0.5880  0.2049
 8398TIP3    H146685   2.397   1.344  17.036 -0.2677 -2.6087 -0.4507
 8398TIP3    H246686   2.442   1.382  17.175 -3.3784 -0.3317 -0.0058
 8399TIP3   OH246687   0.603   1.435   3.036  0.1744 -0.2232 -0.0791
 8399TIP3    H146688   0.650   1.352   3.030  1.6083  0.6318 -1.2541
 8399TIP3    H246689   0.522   1.420   2.987 -0.1958 -1.3278  0.8540
 8400TIP3   OH246690   2.376   1.578   1.467 -0.2950 -0.1149 -0.2098
 8400TIP3    H146691   2.402   1.500   1.419  1.5826  1.1909 -1.4095
 8400TIP3    H246692   2.283   1.587   1.450 -0.5120 -2.0391 -0.1126
 8401TIP3   OH246693   6.575   0.379  12.115 -0.0293 -0.0025 -0.4269
 8401TIP3    H146694   6.651   0.338  12.156 -0.0934  0.1265 -0.1797
 8401TIP3    H246695   6.507   0.376  12.182 -0.3983 -0.5867 -0.8290
 8402TIP3   OH246696   6.812   6.791  12.655 -0.2007 -0.4917  0.4246
 8402TIP3    H146697   6.875   6.844  12.703  0.8029 -1.5025  0.2470
 8402TIP3    H246698   6.745   6.769  12.720 -0.4928  0.7441  0.5637
 8403TIP3   OH246699   1.755   3.894  17.280  0.0372 -0.1668 -0.3851
 8403TIP3    H146700   1.839   3.882  17.324 -0.0466  2.2409  0.5116
 8403TIP3    H246701   1.755   3.986  17.252 -3.6306  0.8498  2.5901
 8404TIP3   OH246702   5.362   5.575  13.861  0.6511  0.3445  0.0259
 8404TIP3    H146703   5.417   5.603  13.935  1.0520  0.1481 -0.1983
 8404TIP3    H246704   5.424   5.544  13.795  0.1764 -2.7799  0.9460
 8405TIP3   OH246705   3.225   2.508   4.392  0.4628 -0.4675 -0.3451
 8405TIP3    H146706   3.273   2.427   4.377  1.6795  0.6361 -2.7126
 8405TIP3    H246707   3.209   2.510   4.487  1.4083 -2.8784 -0.1037
 8406TIP3   OH246708   1.015   0.609  13.377  0.0376  0.6174  0.0358
 8406TIP3    H146709   1.022   0.528  13.427 -0.9605  1.2294  1.2011
 8406TIP3    H246710   0.927   0.605  13.338  0.2231  0.8575 -0.4102
 8407TIP3   OH246711   3.732   6.534   3.694  0.3212  0.2112 -0.0473
 8407TIP3    H146712   3.778   6.454   3.671  1.5433  1.1941 -1.1480
 8407TIP3    H246713   3.721   6.529   3.789 -1.6941 -2.3001 -0.3662
 8408TIP3   OH246714   4.698   4.946   3.038 -0.0163 -0.6315  0.0257
 8408TIP3    H146715   4.768   4.885   3.065 -0.0870 -0.5513  0.3827
 8408TIP3    H246716   4.623   4.922   3.092 -1.1661 -2.6486 -2.3575
 8409TIP3   OH246717   2.186   5.646   0.305 -0.3681  0.4509  0.1895
 8409TIP3    H146718   2.116   5.711   0.294  0.0377  0.8378 -0.1365
 8409TIP3    H246719   2.267   5.697   0.300 -0.0149 -0.1856 -0.9158
 8410TIP3   OH246720   6.048   2.706   5.357 -0.7227 -0.4199 -0.0689
 8410TIP3    H146721   5.994   2.779   5.327 -1.1120 -1.3097 -1.5948
 8410TIP3    H246722   6.120   2.747   5.404 -1.3227  0.9118 -0.2817
 8411TIP3   OH246723   0.971   2.338   1.271 -0.4066 -0.0812  0.1671
 8411TIP3    H146724   0.937   2.427   1.266 -1.9703 -0.6011  1.1852
 8411TIP3    H246725   0.939   2.296   1.191  0.5831  0.3258 -0.4633
 8412TIP3   OH246726   6.284   5.766  11.696 -0.0609  0.5112 -0.1812
 8412TIP3    H146727   6.258   5.849  11.737  0.5710  0.6973 -0.1493
 8412TIP3    H246728   6.342   5.724  11.760 -1.1606 -0.4124  0.2162
 8413TIP3   OH246729   6.181   3.086  10.638 -0.0567 -0.1929  0.0185
 8413TIP3    H146730   6.109   3.066  10.577 -0.5994 -0.3713  0.7136
 8413TIP3    H246731   6.207   3.000  10.672  0.6119 -0.1477 -0.3613
 8414TIP3   OH246732   2.338   1.916   3.824 -0.0274  0.0146  0.4827
 8414TIP3    H146733   2.413   1.968   3.798 -0.2453 -0.3570 -0.9052
 8414TIP3    H246734   2.269   1.980   3.842 -0.4432  0.2159 -1.6898
 8415TIP3   OH246735   2.223   5.844   1.221  0.1185 -0.1868  0.5192
 8415TIP3    H146736   2.186   5.802   1.299  0.0032 -2.3992 -0.6730
 8415TIP3    H246737   2.177   5.803   1.148  2.6796 -0.7050 -0.8653
 8416TIP3   OH246738   2.807   1.034   4.077  0.1539 -0.5376 -0.0795
 8416TIP3    H146739   2.793   0.991   3.992  1.1133  0.2321 -0.6368
 8416TIP3    H246740   2.733   1.005   4.130  0.9912 -3.2581 -0.2816
 8417TIP3   OH246741   6.371   2.717  16.022 -0.2557 -0.5436 -0.0907
 8417TIP3    H146742   6.445   2.774  15.999 -0.1455 -0.5301  0.2878
 8417TIP3    H246743   6.410   2.630  16.030 -0.8101 -1.0740 -2.8378
 8418TIP3   OH246744   1.328   2.705   0.020 -0.1630 -0.1898  0.1500
 8418TIP3    H146745   1.238   2.675   0.030  0.0791 -0.4995  1.4895
 8418TIP3    H246746   1.344   2.759   0.098  0.4832  0.7051 -0.5843
 8419TIP3   OH246747   2.458   3.803  12.074  0.4245  0.2848  0.4641
 8419TIP3    H146748   2.528   3.743  12.046  0.2545  0.2100  0.2054
 8419TIP3    H246749   2.445   3.782  12.166  0.0560 -0.3796  0.2586
 8420TIP3   OH246750   6.796   0.818   0.913 -0.0235  0.2031 -0.2773
 8420TIP3    H146751   6.778   0.743   0.856  0.9606 -0.1801 -0.0994
 8420TIP3    H246752   6.733   0.885   0.886 -1.3259 -0.8919 -0.0369
 8421TIP3   OH246753   5.051   5.861   5.650  0.1178  0.1878 -0.6486
 8421TIP3    H146754   5.062   5.784   5.706 -0.8200  2.2139  2.5179
 8421TIP3    H246755   5.125   5.918   5.673 -1.0035  1.6036 -0.4568
 8422TIP3   OH246756   3.933   4.282   5.471 -0.1973 -0.4816 -0.2373
 8422TIP3    H146757   3.915   4.333   5.392 -2.1472  1.5569  1.4562
 8422TIP3    H246758   3.896   4.196   5.453 -1.8060  0.3593 -1.0915
 8423TIP3   OH246759   6.345   3.942  13.059 -0.0757 -0.1766 -0.0198
 8423TIP3    H146760   6.269   3.903  13.018 -1.7054 -0.1655  2.8285
 8423TIP3    H246761   6.326   4.036  13.062  0.8648  0.0465 -0.9363
 8424TIP3   OH246762   5.765   5.853  15.160  0.2904  0.0349 -0.1609
 8424TIP3    H146763   5.687   5.908  15.154 -0.0143 -0.4825 -1.0332
 8424TIP3    H246764   5.807   5.861  15.074  0.9862  0.0016  0.1726
 8425TIP3   OH246765   1.742   1.755  11.698  0.2397 -0.3588 -0.5385
 8425TIP3    H146766   1.771   1.669  11.668  1.6531  0.0528 -0.3696
 8425TIP3    H246767   1.787   1.818  11.641 -1.2935  0.2719 -1.1030
 8426TIP3   OH246768   0.895   4.954  14.696 -0.3716  0.4758 -0.7505
 8426TIP3    H146769   0.829   5.023  14.686 -1.7018 -0.4175  1.5846
 8426TIP3    H246770   0.958   4.990  14.757 -0.5491 -0.0015 -0.2837
 8427TIP3   OH246771   1.194   3.593  14.162  0.4187 -0.4945 -0.3597
 8427TIP3    H146772   1.160   3.663  14.107 -0.9330 -0.9076 -0.0763
 8427TIP3    H246773   1.218   3.637  14.244 -2.7616 -0.6853  0.7557
 8428TIP3   OH246774   3.045   0.264  14.697 -0.3918  0.0218 -0.5412
 8428TIP3    H146775   3.019   0.199  14.632  0.5497 -0.4936 -0.4173
 8428TIP3    H246776   3.124   0.227  14.738  0.4216  1.4329 -0.7784
 8429TIP3   OH246777   1.440   0.462  16.702  0.2580  0.3408 -0.0030
 8429TIP3    H146778   1.411   0.470  16.611 -0.6886 -0.0084  0.2608
 8429TIP3    H246779   1.370   0.503  16.753  1.0556  1.0515  0.5356
 8430TIP3   OH246780   5.372   5.675  12.675 -0.0584  0.2324 -0.3859
 8430TIP3    H146781   5.425   5.633  12.607  0.5878  0.2941  0.0836
 8430TIP3    H246782   5.418   5.657  12.757 -0.0735  1.3693 -0.1174
 8431TIP3   OH246783   0.212   2.356   1.354  0.3348  0.0456  0.5293
 8431TIP3    H146784   0.292   2.404   1.377  1.1314 -0.6507 -0.6810
 8431TIP3    H246785   0.182   2.318   1.436  0.9957  0.6909  1.0773
 8432TIP3   OH246786   6.649   6.635   0.223  0.7387 -0.5900 -0.4359
 8432TIP3    H146787   6.729   6.673   0.258  1.0904 -1.1104 -0.6694
 8432TIP3    H246788   6.674   6.600   0.137  0.5662 -1.8712  0.0250
 8433TIP3   OH246789   1.630   3.792  11.238 -0.3977 -0.3347 -0.0394
 8433TIP3    H146790   1.617   3.702  11.208  0.4539 -1.2314  2.1824
 8433TIP3    H246791   1.689   3.785  11.312 -0.2515  2.0876  0.1313
 8434TIP3   OH246792   1.025   4.205   1.817 -0.1725  0.0198  0.2079
 8434TIP3    H146793   0.949   4.220   1.762 -0.1343  0.4480  0.2736
 8434TIP3    H246794   1.068   4.129   1.778 -0.6582 -0.2551  0.2034
 8435TIP3   OH246795   2.978   4.914  15.651 -0.7743 -0.0081 -0.3677
 8435TIP3    H146796   2.986   4.844  15.716  0.8959 -0.1171 -0.6877
 8435TIP3    H246797   2.947   4.869  15.572 -3.4372  0.2166  0.4752
 8436TIP3   OH246798   1.754   0.318  10.806 -0.1630 -0.2210  0.0248
 8436TIP3    H146799   1.740   0.250  10.872 -0.1079  0.1826  0.4565
 8436TIP3    H246800   1.837   0.294  10.765 -0.3530 -0.6482 -0.1178
 8437TIP3   OH246801   4.894   5.809   1.914  0.2197  0.4135 -0.5005
 8437TIP3    H146802   4.817   5.858   1.885  0.4682  2.1067  1.6037
 8437TIP3    H246803   4.858   5.732   1.959 -0.2306  1.0613  0.2463
 8438TIP3   OH246804   1.298   3.720  14.397 -0.6031 -1.3479  0.2437
 8438TIP3    H146805   1.376   3.748  14.349 -1.0503  1.2311  0.9933
 8438TIP3    H246806   1.322   3.732  14.489 -2.0939  0.0100  0.4579
 8439TIP3   OH246807   3.965   2.492  17.257  0.7280 -0.1569 -0.1026
 8439TIP3    H146808   4.004   2.418  17.304  1.2700 -0.3425 -0.8517
 8439TIP3    H246809   3.878   2.501  17.297  0.5306 -1.4041 -0.2204
 8440TIP3   OH246810   5.284   5.311  14.579 -0.2546 -0.4562 -0.5955
 8440TIP3    H146811   5.268   5.269  14.663  0.7904 -0.9555 -0.6323
 8440TIP3    H246812   5.320   5.397  14.601  0.2752 -0.6911 -0.5209
 8441TIP3   OH246813   6.355   2.924  14.781 -0.0482  0.1739  0.3309
 8441TIP3    H146814   6.320   2.910  14.869 -1.4402 -0.8088 -0.3623
 8441TIP3    H246815   6.384   2.838  14.753 -0.0302  0.3961 -0.3436
 8442TIP3   OH246816   1.282   4.696  12.348 -0.3652  0.2349  0.3262
 8442TIP3    H146817   1.244   4.783  12.335 -1.2441 -0.1936 -0.0742
 8442TIP3    H246818   1.327   4.676  12.265  1.0750  0.9011  0.9428
 8443TIP3   OH246819   4.197   4.505   1.007  0.4127 -0.2004  0.2654
 8443TIP3    H146820   4.177   4.483   0.916 -0.3526  0.9790  0.1325
 8443TIP3    H246821   4.161   4.594   1.018  1.1335 -0.0618  1.5061
 8444TIP3   OH246822   5.190   4.337  11.437 -0.1946  0.1210  0.3163
 8444TIP3    H146823   5.200   4.311  11.528  1.4989  0.7535  0.3421
 8444TIP3    H246824   5.278   4.330  11.400 -0.7177  0.5729 -1.0760
 8445TIP3   OH246825   3.198   0.904  12.015  0.1377 -0.2440 -0.4887
 8445TIP3    H146826   3.271   0.872  12.068 -1.4734  0.7936  2.4326
 8445TIP3    H246827   3.174   0.829  11.960  1.5214 -1.5092  0.5762
 8446TIP3   OH246828   6.213   1.925  13.705 -0.0022 -0.6036  0.7054
 8446TIP3    H146829   6.198   1.838  13.742 -0.4196 -0.5312  0.7102
 8446TIP3    H246830   6.241   1.978  13.779  1.0718 -0.9402  0.5393
 8447TIP3   OH246831   4.627   2.530   2.999 -0.9986  0.0566 -0.2143
 8447TIP3    H146832   4.630   2.567   2.911 -2.0623  1.1511  0.1926
 8447TIP3    H246833   4.718   2.516   3.023 -0.4252  4.0773  0.2671
 8448TIP3   OH246834   6.171   3.999  11.822 -0.2660 -0.0732 -0.0536
 8448TIP3    H146835   6.252   4.006  11.772 -1.0069 -0.0984 -1.2636
 8448TIP3    H246836   6.170   3.909  11.853 -0.2234 -0.3041 -0.7139
 8449TIP3   OH246837   0.030   4.947   3.110  0.6416  0.0570 -0.7343
 8449TIP3    H146838   0.053   4.863   3.071  0.0780  0.5355 -2.1320
 8449TIP3    H246839   0.094   5.008   3.074 -0.3229  0.6402 -1.4640
 8450TIP3   OH246840   5.120   2.501  11.980  0.2613  0.5629  0.4491
 8450TIP3    H146841   5.184   2.434  12.006  0.2039  0.5369  0.5225
 8450TIP3    H246842   5.043   2.483  12.033 -0.0981  0.0859 -0.2204
 8451TIP3   OH246843   6.312   0.779   2.411 -0.1062  0.1943  0.1930
 8451TIP3    H146844   6.392   0.810   2.455  1.2348 -0.9470 -1.3954
 8451TIP3    H246845   6.287   0.851   2.353 -0.7019  0.8719  1.2722
 8452TIP3   OH246846   3.719   3.345  14.072 -0.5903 -0.0014 -0.6912
 8452TIP3    H146847   3.726   3.250  14.062 -1.3688 -0.1037 -0.2455
 8452TIP3    H246848   3.783   3.380  14.009  0.9156 -0.8504  0.3251
 8453TIP3   OH246849   3.375   2.001  16.767  0.0429  0.3586  0.3972
 8453TIP3    H146850   3.426   1.980  16.845  1.0699  0.0637 -0.3332
 8453TIP3    H246851   3.441   2.016  16.699 -0.8157  1.4739 -0.2012
 8454TIP3   OH246852   5.099   2.889   5.581 -0.8183 -0.6144  0.3457
 8454TIP3    H146853   5.077   2.915   5.491  4.2857 -1.3833 -1.2997
 8454TIP3    H246854   5.090   2.794   5.581 -0.9839 -0.6004  0.7170
 8455TIP3   OH246855   0.234   2.728   1.426  0.5899 -0.4748 -0.6924
 8455TIP3    H146856   0.182   2.707   1.504  1.5185 -2.5473 -0.5996
 8455TIP3    H246857   0.288   2.802   1.454  1.1589 -1.4026  0.7914
 8456TIP3   OH246858   3.773   6.794   0.066 -0.3758  0.3394  0.2273
 8456TIP3    H146859   3.857   6.799   0.111  0.0142 -1.1471 -0.3079
 8456TIP3    H246860   3.709   6.779   0.136  0.0619 -0.6184  0.4273
 8457TIP3   OH246861   6.769   5.665   3.138  0.2459 -0.4257  0.1416
 8457TIP3    H146862   6.771   5.710   3.222  1.7796  0.9782 -0.6193
 8457TIP3    H246863   6.861   5.647   3.118  0.0878  1.1848 -2.2364
 8458TIP3   OH246864   1.298   5.267  14.270  0.5353 -0.0658  0.1869
 8458TIP3    H146865   1.325   5.228  14.353  0.3013 -2.8624 -1.0088
 8458TIP3    H246866   1.212   5.305  14.289 -0.4111 -2.3922  0.7918
 8459TIP3   OH246867   3.777   5.611   4.779 -0.4203  0.8280  0.2305
 8459TIP3    H146868   3.766   5.704   4.802  1.7910  1.2131 -0.1894
 8459TIP3    H246869   3.836   5.577   4.846 -0.6884 -0.1186 -0.0127
 8460TIP3   OH246870   1.037   2.813   2.612 -0.3732 -0.7830 -0.1657
 8460TIP3    H146871   1.045   2.725   2.575  0.5253 -0.3276 -1.0836
 8460TIP3    H246872   1.078   2.870   2.547  1.0603  0.0591  1.4430
 8461TIP3   OH246873   2.534   1.700   3.149 -0.7598  0.0289 -0.0321
 8461TIP3    H146874   2.553   1.670   3.060  0.9452  2.1334 -0.4316
 8461TIP3    H246875   2.620   1.714   3.189 -1.4743  1.8881  0.9365
 8462TIP3   OH246876   5.717   1.150  15.219 -0.6995 -0.6778 -0.2231
 8462TIP3    H146877   5.739   1.148  15.126  0.0617  1.9389 -0.1250
 8462TIP3    H246878   5.748   1.066  15.253 -1.6734 -1.9800 -2.4691
 8463TIP3   OH246879   3.274   0.966  15.909 -0.4299  0.1784  0.0381
 8463TIP3    H146880   3.292   0.890  15.854  0.0956  0.7596 -0.6101
 8463TIP3    H246881   3.357   0.985  15.953 -0.1807  1.1703 -0.8223
 8464TIP3   OH246882   1.206   2.233   1.788  0.1663  0.1982 -0.2845
 8464TIP3    H146883   1.130   2.242   1.731  0.3458  0.7057 -0.4543
 8464TIP3    H246884   1.200   2.145   1.823 -0.0279 -0.0707 -0.9838
 8465TIP3   OH246885   3.091   0.857   2.779 -0.2214  0.2759  0.5238
 8465TIP3    H146886   2.997   0.861   2.796 -0.6880 -3.5429 -0.5073
 8465TIP3    H246887   3.119   0.775   2.821  2.2390  0.3982 -0.7911
 8466TIP3   OH246888   0.150   3.602  16.837 -0.6484 -0.0484  0.1099
 8466TIP3    H146889   0.068   3.645  16.862 -0.5359 -0.3501  1.0117
 8466TIP3    H246890   0.126   3.511  16.820 -0.6760  0.0930 -0.6337
 8467TIP3   OH246891   3.298   1.768   5.192  0.8801 -0.0234  0.6660
 8467TIP3    H146892   3.335   1.846   5.150  0.0571  0.6594  1.1822
 8467TIP3    H246893   3.241   1.729   5.125  1.2162 -0.1276  0.4409
 8468TIP3   OH246894   4.667   2.858   2.094  0.1406  0.0728 -0.0297
 8468TIP3    H146895   4.648   2.818   2.179 -0.1554  1.8253  0.7611
 8468TIP3    H246896   4.601   2.926   2.084 -0.6760 -1.0009 -2.3189
 8469TIP3   OH246897   4.667   0.868  13.673  0.4120 -0.3466 -0.0809
 8469TIP3    H146898   4.617   0.787  13.659 -0.8261  0.4546 -0.4085
 8469TIP3    H246899   4.628   0.931  13.612  0.1009  1.0147  1.4857
 8470TIP3   OH246900   2.907   3.863   2.482  0.2001  0.2752  0.1576
 8470TIP3    H146901   2.895   3.922   2.407  0.7650  0.4552  0.2089
 8470TIP3    H246902   2.825   3.814   2.487 -0.0953  0.7283 -0.1754
 8471TIP3   OH246903   0.366   4.831  11.034 -0.0056 -0.4828  0.1857
 8471TIP3    H146904   0.351   4.878  10.952  1.7528 -0.2835 -0.0364
 8471TIP3    H246905   0.370   4.739  11.010 -1.0037 -0.5588  0.2778
 8472TIP3   OH246906   2.416   3.570   2.236 -0.0474  0.3770  0.5112
 8472TIP3    H146907   2.511   3.566   2.249  0.1581  1.7152 -0.4886
 8472TIP3    H246908   2.392   3.659   2.262 -0.7259  0.7125 -1.2189
 8473TIP3   OH246909   0.130   4.336  11.873  0.0046 -0.0914  0.5140
 8473TIP3    H146910   0.201   4.359  11.932 -0.6627 -1.9044  2.0911
 8473TIP3    H246911   0.142   4.243  11.856 -1.2140 -0.1190 -0.2516
 8474TIP3   OH246912   3.336   4.222   6.394 -0.6836 -0.1925  0.2139
 8474TIP3    H146913   3.244   4.225   6.366 -0.3315  1.9722 -0.7625
 8474TIP3    H246914   3.358   4.313   6.413  1.2547 -0.7148  0.5011
 8475TIP3   OH246915   0.801   6.339  14.531  0.1768 -0.1596 -0.3695
 8475TIP3    H146916   0.793   6.304  14.620  2.2654  1.0276  0.3126
 8475TIP3    H246917   0.727   6.399  14.522  0.2416  0.0990  0.7465
 8476TIP3   OH246918   6.119   1.890   4.693  0.1316  0.5718 -0.3442
 8476TIP3    H146919   6.214   1.891   4.679  0.1317  1.1657 -0.3117
 8476TIP3    H246920   6.108   1.856   4.782  0.1656 -2.5837 -1.4963
 8477TIP3   OH246921   3.885   0.546   0.772 -0.2001 -1.0271 -0.7792
 8477TIP3    H146922   3.936   0.560   0.852  0.3960 -2.1862 -0.9552
 8477TIP3    H246923   3.794   0.542   0.802  0.0099 -1.3559 -0.1753
 8478TIP3   OH246924   6.676   6.108   3.900 -0.1757  0.1089  0.2002
 8478TIP3    H146925   6.658   6.156   3.980  0.0764 -2.2363  1.7180
 8478TIP3    H246926   6.616   6.144   3.836 -0.6901  1.7083  1.5624
 8479TIP3   OH246927   5.721   0.809  16.195  0.0786  0.0918  0.2759
 8479TIP3    H146928   5.712   0.850  16.109 -3.0551  0.0184  0.5211
 8479TIP3    H246929   5.666   0.731  16.192  0.5390 -0.3507  2.1104
 8480TIP3   OH246930   5.628   1.994  12.196  0.3764 -0.5433  0.0767
 8480TIP3    H146931   5.535   2.007  12.212  0.2826 -1.7580  0.6066
 8480TIP3    H246932   5.642   2.021  12.106 -0.2007  1.0306  0.4382
 8481TIP3   OH246933   3.400   2.401  16.814 -0.1259  0.6640  0.2459
 8481TIP3    H146934   3.375   2.490  16.787  0.5765  1.1339  1.1121
 8481TIP3    H246935   3.495   2.406  16.826 -0.0277 -0.3099 -0.0513
 8482TIP3   OH246936   2.703   6.452  10.888 -0.0216 -0.5937  0.4452
 8482TIP3    H146937   2.727   6.475  10.978  1.2632 -3.1422  0.8208
 8482TIP3    H246938   2.630   6.391  10.898 -0.3484 -0.3257 -0.2924
 8483TIP3   OH246939   5.666   0.985  13.643  0.0106 -0.4027 -0.3137
 8483TIP3    H146940   5.691   0.895  13.624 -0.1913 -0.5787  0.2281
 8483TIP3    H246941   5.672   1.030  13.559  1.9580 -0.4733 -0.2240
 8484TIP3   OH246942   5.989   6.568   0.010  0.1269 -0.1733  0.1411
 8484TIP3    H146943   6.048   6.559  -0.065  0.1417 -0.6032  0.2069
 8484TIP3    H246944   5.905   6.590  -0.029 -0.3574 -2.4294 -0.1538
 8485TIP3   OH246945   0.445   1.139  11.736 -0.1008 -0.2735  0.2869
 8485TIP3    H146946   0.366   1.167  11.689  0.2271 -0.1320 -0.1841
 8485TIP3    H246947   0.489   1.220  11.759  0.1412 -0.3696  0.1547
 8486TIP3   OH246948   0.510   0.924  16.493 -0.1432 -0.2944  0.2444
 8486TIP3    H146949   0.581   0.982  16.464 -0.2169  0.2356  1.1222
 8486TIP3    H246950   0.472   0.891  16.412  0.1746  0.5456 -0.2558
 8487TIP3   OH246951   6.167   4.565  12.803 -0.6073 -0.3645  0.2052
 8487TIP3    H146952   6.204   4.479  12.821  1.0430  0.2843 -0.0447
 8487TIP3    H246953   6.072   4.550  12.803 -0.3172 -2.3603 -0.7996
 8488TIP3   OH246954   0.248   5.192   2.290 -0.7444 -0.0997 -0.7307
 8488TIP3    H146955   0.337   5.157   2.282 -0.5776  0.2533 -0.4097
 8488TIP3    H246956   0.259   5.277   2.332 -1.1308  0.4509 -1.7213
 8489TIP3   OH246957   2.396   3.609   2.556 -0.1634 -0.1529 -0.3939
 8489TIP3    H146958   2.335   3.680   2.575 -0.0255 -0.1727  0.1212
 8489TIP3    H246959   2.341   3.539   2.519 -0.5162 -0.3333  0.4624
 8490TIP3   OH246960   3.779   3.445  12.520  0.5875 -0.1974 -0.0954
 8490TIP3    H146961   3.804   3.537  12.511  0.0087  0.1773  1.8351
 8490TIP3    H246962   3.829   3.400  12.452 -1.1295  1.8935 -2.8715
 8491TIP3   OH246963   1.240   6.200  13.924  0.2353 -0.2168  0.5598
 8491TIP3    H146964   1.152   6.161  13.925  0.8730 -1.7733 -1.4841
 8491TIP3    H246965   1.228   6.283  13.879 -0.0259 -0.8546 -0.5643
 8492TIP3   OH246966   3.798   5.508   2.034  0.5559  0.4552  0.0222
 8492TIP3    H146967   3.769   5.535   2.121  4.7859  0.6875  1.4800
 8492TIP3    H246968   3.863   5.573   2.008 -1.2473  0.8816 -3.7522
 8493TIP3   OH246969   1.193   5.449  12.651  0.3509  0.1123 -0.1440
 8493TIP3    H146970   1.281   5.428  12.685  1.0169  1.8331 -0.7299
 8493TIP3    H246971   1.145   5.366  12.655  0.0825  0.3327  5.8625
 8494TIP3   OH246972   5.615   4.471  12.619 -0.0551 -0.1167 -0.2547
 8494TIP3    H146973   5.559   4.393  12.628 -0.0513 -0.2014 -0.9368
 8494TIP3    H246974   5.586   4.511  12.536 -1.7234  1.9411  1.2698
 8495TIP3   OH246975   3.185   5.646  16.873  0.0338  0.0483 -0.8053
 8495TIP3    H146976   3.165   5.663  16.781  1.3546 -0.8085 -1.2742
 8495TIP3    H246977   3.278   5.668  16.882  0.5334 -2.1351 -0.2731
 8496TIP3   OH246978   5.042   5.168  13.912 -0.0796 -0.0033  0.1768
 8496TIP3    H146979   5.108   5.209  13.967 -0.3463  1.0486 -0.2793
 8496TIP3    H246980   5.004   5.099  13.967  1.0513 -0.3086  0.6051
 8497TIP3   OH246981   4.191   1.986  12.627 -0.6972  0.1997 -0.5285
 8497TIP3    H146982   4.103   2.012  12.654 -0.9992 -1.8264  0.5166
 8497TIP3    H246983   4.178   1.910  12.571  0.4151 -0.5681  0.2242
 8498TIP3   OH246984   5.056   0.666   1.995 -0.0152  0.3309  0.1618
 8498TIP3    H146985   5.134   0.611   2.005 -1.5549 -1.8200  0.7682
 8498TIP3    H246986   5.080   0.731   1.929  1.6234 -1.5499 -1.1313
 8499TIP3   OH246987   6.134   0.802  16.141 -0.0629  0.3037  0.4016
 8499TIP3    H146988   6.209   0.748  16.116  1.2240  2.2274  0.0140
 8499TIP3    H246989   6.063   0.772  16.084  1.7135  1.7851 -2.7219
 8500TIP3   OH246990   4.263   3.289   0.734 -0.3307  0.0456 -0.0048
 8500TIP3    H146991   4.268   3.194   0.742 -0.4140 -0.0225 -0.7031
 8500TIP3    H246992   4.209   3.317   0.808  0.8111 -0.3123  0.9908
 8501TIP3   OH246993   5.175   2.007  16.208 -0.4403 -0.2271 -0.1459
 8501TIP3    H146994   5.225   1.944  16.155  0.5240 -0.6191  1.2065
 8501TIP3    H246995   5.114   1.954  16.258  0.1864 -0.0875  0.7929
 8502TIP3   OH246996   0.377   0.586  12.151  0.1278 -0.0062 -0.1569
 8502TIP3    H146997   0.376   0.491  12.152  0.7858 -0.0115  0.3653
 8502TIP3    H246998   0.330   0.612  12.230 -0.0671  0.1060 -0.3077
 8503TIP3   OH246999   3.508   3.413   1.317  0.1956 -1.0900  0.5296
 8503TIP3    H147000   3.455   3.444   1.390 -0.1456 -0.7567  0.1369
 8503TIP3    H247001   3.552   3.335   1.351  1.1102 -0.1558  1.5366
 8504TIP3   OH247002   4.927   5.938  17.070 -0.1106 -0.6302 -0.4999
 8504TIP3    H147003   4.972   5.944  17.154 -0.5244 -0.2039 -0.3078
 8504TIP3    H247004   4.843   5.981  17.084  0.1138  0.0985 -1.3402
 8505TIP3   OH247005   2.351   2.048  16.696  0.0425  0.2883  0.3343
 8505TIP3    H147006   2.283   2.086  16.751  0.2178  0.9234  0.1152
 8505TIP3    H247007   2.387   1.977  16.749 -0.2410  0.4671  0.7716
 8506TIP3   OH247008   6.604   3.239  17.097  0.0525  0.2333 -0.0373
 8506TIP3    H147009   6.595   3.147  17.071 -1.3981 -0.0030  1.2319
 8506TIP3    H247010   6.690   3.244  17.139  0.3397 -0.4493 -0.5415
 8507TIP3   OH247011   4.293   1.789   0.536  0.3651  0.1546  0.3172
 8507TIP3    H147012   4.274   1.882   0.528 -2.4667 -0.4540 -0.7960
 8507TIP3    H247013   4.287   1.771   0.630 -1.4301  0.6832  0.3232
 8508TIP3   OH247014   2.206   5.501  12.700  0.4955  0.2171 -0.5410
 8508TIP3    H147015   2.143   5.430  12.683 -0.2681  1.1610 -1.7945
 8508TIP3    H247016   2.235   5.528  12.613  1.2873  0.9972 -0.0422
 8509TIP3   OH247017   2.352   5.607  15.220  0.0970 -0.2379 -0.4254
 8509TIP3    H147018   2.408   5.681  15.197  1.0002 -1.3731 -1.9330
 8509TIP3    H247019   2.288   5.644  15.280  1.0093  1.6036 -0.5495
 8510TIP3   OH247020   3.529   6.811   2.180 -0.5865 -0.9611  0.3147
 8510TIP3    H147021   3.456   6.861   2.217  0.2359  1.3203 -1.0868
 8510TIP3    H247022   3.491   6.763   2.107 -0.9846 -0.9726  0.5260
 8511TIP3   OH247023   6.308   3.080   5.277  0.2297 -0.8013 -0.2879
 8511TIP3    H147024   6.265   2.994   5.268 -0.1050 -0.8560  1.6181
 8511TIP3    H247025   6.248   3.141   5.235 -1.5243 -0.9477  1.9329
 8512TIP3   OH247026   2.273   2.813  12.484  0.4660  0.4510 -0.2146
 8512TIP3    H147027   2.187   2.819  12.525  0.3247  2.4641 -0.7834
 8512TIP3    H247028   2.311   2.733  12.521 -1.1983  0.1381  0.8720
 8513TIP3   OH247029   4.853   3.899   3.094 -0.0454  0.0706  0.4173
 8513TIP3    H147030   4.797   3.829   3.127  2.2993 -1.6713  0.7902
 8513TIP3    H247031   4.882   3.946   3.172 -1.0264  1.0482  0.2163
 8514TIP3   OH247032   5.290   5.134   3.136  0.0034  0.5330 -0.0052
 8514TIP3    H147033   5.369   5.087   3.162 -0.9502 -1.0212  0.1474
 8514TIP3    H247034   5.322   5.218   3.102  1.7438 -0.2860 -0.4432
 8515TIP3   OH247035   0.077   6.390  12.857 -0.2772  0.3026 -0.1537
 8515TIP3    H147036   0.030   6.453  12.802  0.7142  0.5393 -0.7543
 8515TIP3    H247037   0.167   6.394  12.825  0.1299 -0.2027  0.9252
 8516TIP3   OH247038   5.054   0.161  16.183  0.4839 -0.4084  0.0883
 8516TIP3    H147039   5.106   0.191  16.257  1.2921 -2.5632  0.4469
 8516TIP3    H247040   4.986   0.227  16.172  0.4656  0.0180  2.6596
 8517TIP3   OH247041   4.714   6.703  13.828 -1.1944  0.2340 -0.0495
 8517TIP3    H147042   4.760   6.651  13.893 -0.7662  0.9862  0.2448
 8517TIP3    H247043   4.780   6.722  13.761 -1.5904 -0.4037 -0.6321
 8518TIP3   OH247044   5.208   3.126  16.637 -0.5445 -0.2426  0.2376
 8518TIP3    H147045   5.134   3.146  16.693 -0.5230  1.1937 -0.2137
 8518TIP3    H247046   5.272   3.084  16.695  0.1931  2.7856  1.7121
 8519TIP3   OH247047   2.860   3.548   3.209 -0.4175  0.2078  0.6968
 8519TIP3    H147048   2.824   3.590   3.131  0.5047 -0.5728 -0.1658
 8519TIP3    H247049   2.785   3.537   3.267 -1.3335 -0.2318 -0.5488
 8520TIP3   OH247050   3.965   1.883   1.254 -0.0719  0.1397 -0.0795
 8520TIP3    H147051   3.898   1.883   1.321 -0.6568 -1.5231 -0.6515
 8520TIP3    H247052   3.953   1.966   1.208 -1.9827 -0.3302 -0.4379
 8521TIP3   OH247053   6.596   6.642   1.768 -0.4383  0.3928  0.3603
 8521TIP3    H147054   6.530   6.692   1.817 -0.2940 -0.1712  1.1439
 8521TIP3    H247055   6.561   6.635   1.680 -0.3263  2.1471  0.1569
 8522TIP3   OH247056   2.199   1.676  14.770 -0.5527 -0.2649  0.1571
 8522TIP3    H147057   2.209   1.759  14.723 -1.3501  0.7104  1.6773
 8522TIP3    H247058   2.197   1.700  14.863  0.9175 -2.1591  0.7249
 8523TIP3   OH247059   6.481   3.546   2.609  0.2981  0.4619 -0.1597
 8523TIP3    H147060   6.564   3.503   2.632 -0.3806 -0.6410  0.2588
 8523TIP3    H247061   6.446   3.494   2.537 -0.3953  0.4697  0.1667
 8524TIP3   OH247062   1.245   6.633  15.704 -0.5683  0.2051  0.4609
 8524TIP3    H147063   1.271   6.542  15.718  0.3933  0.4434  0.2676
 8524TIP3    H247064   1.251   6.646  15.609  0.7277  0.8758  0.6197
 8525TIP3   OH247065   6.012   1.342  14.213 -0.1922  0.5419  0.4257
 8525TIP3    H147066   5.940   1.368  14.272 -0.6594 -1.9556  0.9976
 8525TIP3    H247067   6.091   1.360  14.264 -0.5772 -1.0693  1.6437
 8526TIP3   OH247068   2.611   4.025  11.683 -0.0163 -1.0777 -0.0856
 8526TIP3    H147069   2.651   3.997  11.765  1.4338 -0.0810 -0.4422
 8526TIP3    H247070   2.573   4.110  11.702  1.3805 -0.2868 -0.7505
 8527TIP3   OH247071   1.257   0.360   0.649 -0.0224 -0.3084  0.2821
 8527TIP3    H147072   1.255   0.402   0.735  1.5749 -1.5210  0.9385
 8527TIP3    H247073   1.180   0.303   0.649  0.2449 -0.6867  1.1323
 8528TIP3   OH247074   3.747   2.365  14.911  0.1923  0.5868  0.1257
 8528TIP3    H147075   3.827   2.321  14.882  0.4432  0.6824  0.6620
 8528TIP3    H247076   3.743   2.347  15.005 -0.6631  0.1948  0.0149
 8529TIP3   OH247077   5.623   5.098   5.793  0.0176 -0.2599 -0.5763
 8529TIP3    H147078   5.603   5.006   5.776  0.1511 -0.2064 -1.0336
 8529TIP3    H247079   5.538   5.140   5.806  0.0725 -0.9340  2.1928
 8530TIP3   OH247080   0.914   5.847   5.643 -0.1683  0.5306  0.3844
 8530TIP3    H147081   0.972   5.914   5.680  2.3204 -0.1659 -2.0943
 8530TIP3    H247082   0.853   5.896   5.589 -0.0354  1.0315  0.6813
 8531TIP3   OH247083   6.761   0.782  12.308 -0.0885 -0.2729  0.6648
 8531TIP3    H147084   6.805   0.852  12.357 -1.7052 -0.2329  2.1010
 8531TIP3    H247085   6.804   0.701  12.338  0.2860 -0.0811  0.6513
 8532TIP3   OH247086   5.634   5.915  13.579  0.1119  0.2264  0.3285
 8532TIP3    H147087   5.583   5.985  13.539  0.3492  0.2380  0.0439
 8532TIP3    H247088   5.706   5.899  13.518  1.5038  1.4813  1.6017
 8533TIP3   OH247089   0.692   0.760  12.827 -0.0932  0.6639 -0.5111
 8533TIP3    H147090   0.781   0.785  12.850  0.6815 -2.1157 -0.3862
 8533TIP3    H247091   0.637   0.828  12.867  1.7554  0.5952  2.2366
 8534TIP3   OH247092   5.151   3.225  14.070 -0.3456 -0.1353  0.2103
 8534TIP3    H147093   5.189   3.214  14.157 -1.5036  1.0251  0.8762
 8534TIP3    H247094   5.191   3.156  14.018  0.9242 -0.3766  1.4758
 8535TIP3   OH247095   6.811   6.733   5.246  0.0136  0.0463  0.0416
 8535TIP3    H147096   6.720   6.717   5.273  0.4246  1.3762  2.3610
 8535TIP3    H247097   6.813   6.825   5.219  0.9664  0.4817  1.4938
 8536TIP3   OH247098   2.969   5.452  10.766  0.6685  0.0992  0.4842
 8536TIP3    H147099   2.892   5.428  10.714  0.0079  3.0202  0.0381
 8536TIP3    H247100   3.043   5.439  10.707  0.0935  1.5164 -0.5662
 8537TIP3   OH247101   4.584   1.777   4.239 -0.0878 -0.1153  0.7857
 8537TIP3    H147102   4.640   1.806   4.312  0.5715 -2.1714  1.1459
 8537TIP3    H247103   4.646   1.752   4.170 -0.6076 -0.9326  0.6062
 8538TIP3   OH247104   1.604   2.620   0.158 -0.1044  0.7082 -0.4770
 8538TIP3    H147105   1.543   2.694   0.168 -3.1784 -1.9196  1.0285
 8538TIP3    H247106   1.570   2.571   0.084  1.4906  0.3635 -0.9908
 8539TIP3   OH247107   0.491   1.135  15.596  0.1342  0.4791 -0.2911
 8539TIP3    H147108   0.422   1.069  15.607  0.6225 -0.2641 -1.4898
 8539TIP3    H247109   0.564   1.086  15.559  1.4920  1.1739  1.4300
 8540TIP3   OH247110   5.406   3.318  11.391  0.3955 -0.1251  0.1218
 8540TIP3    H147111   5.403   3.376  11.467  1.0448 -0.1867  0.2043
 8540TIP3    H247112   5.396   3.230  11.427  0.6603 -0.1515  0.1323
 8541TIP3   OH247113   2.894   2.801   4.926  0.1061 -0.0108 -0.7003
 8541TIP3    H147114   2.849   2.868   4.875  2.1718  1.4491 -0.6672
 8541TIP3    H247115   2.840   2.788   5.004 -0.6228  1.1628 -1.0098
 8542TIP3   OH247116   6.006   5.181   1.160  0.3477 -0.0113  0.3246
 8542TIP3    H147117   6.069   5.211   1.226 -0.1018  0.0164  0.7378
 8542TIP3    H247118   5.921   5.186   1.203  0.1211 -0.6183 -0.0386
 8543TIP3   OH247119   5.183   1.214  16.828 -0.1232 -0.6515  0.3374
 8543TIP3    H147120   5.224   1.282  16.775 -0.3549 -1.0237 -0.3248
 8543TIP3    H247121   5.250   1.190  16.892 -0.5135  1.1779  1.4749
 8544TIP3   OH247122   1.870   4.314  16.073 -0.2592 -0.5962 -0.1063
 8544TIP3    H147123   1.837   4.341  15.987 -0.5402  1.0473  0.5090
 8544TIP3    H247124   1.901   4.395  16.113  2.0484 -1.6937  0.4139
 8545TIP3   OH247125   3.132   1.896   2.262 -0.3588 -0.1234  0.7074
 8545TIP3    H147126   3.062   1.831   2.276  1.8467 -2.3526  1.7709
 8545TIP3    H247127   3.179   1.864   2.185  0.3134  0.6190  0.8069
 8546TIP3   OH247128   5.107   5.574  11.483  0.6048  0.5578 -0.2013
 8546TIP3    H147129   5.076   5.608  11.567  0.5875 -0.3124  0.1455
 8546TIP3    H247130   5.046   5.504  11.460  1.6972 -0.4672 -0.0207
 8547TIP3   OH247131   3.142   1.360  13.852 -0.4005  0.1066 -0.2904
 8547TIP3    H147132   3.184   1.382  13.935 -2.7771 -0.5219  1.0958
 8547TIP3    H247133   3.215   1.331  13.796  1.2463  0.7154  1.4782
 8548TIP3   OH247134   2.699   0.484   5.194 -0.4480  0.0275  0.0939
 8548TIP3    H147135   2.703   0.428   5.115 -0.5472  1.2612 -0.7988
 8548TIP3    H247136   2.618   0.458   5.237 -0.6170 -0.3435 -0.4376
 8549TIP3   OH247137   4.230   3.155  13.323  0.9262 -0.7123 -0.3337
 8549TIP3    H147138   4.202   3.064  13.313  0.4078 -0.5738 -0.1787
 8549TIP3    H247139   4.158   3.197  13.371  1.0690 -0.1766 -0.5814
 8550TIP3   OH247140   6.819   5.117  17.225 -0.5571  0.0510  0.0122
 8550TIP3    H147141   6.859   5.071  17.299 -1.5011  0.3290  0.6962
 8550TIP3    H247142   6.827   5.210  17.247  1.2397  0.2407 -1.3194
 8551TIP3   OH247143   2.432   5.138  15.915 -0.1962 -0.2729  0.0219
 8551TIP3    H147144   2.347   5.181  15.921 -0.7782 -1.5326  0.8819
 8551TIP3    H247145   2.493   5.199  15.956 -0.5772  0.9085 -1.1470
 8552TIP3   OH247146   1.287   1.905   3.699  0.1885 -0.3899  0.6638
 8552TIP3    H147147   1.334   1.887   3.618  0.8255 -0.3436  1.0181
 8552TIP3    H247148   1.194   1.897   3.675  0.3481  0.4660 -0.2538
 8553TIP3   OH247149   3.357   1.775   5.877 -0.4539 -0.4812  0.1038
 8553TIP3    H147150   3.352   1.806   5.786  0.3522  0.4929  0.3824
 8553TIP3    H247151   3.268   1.746   5.898 -0.6780 -0.5667 -0.9430
 8554TIP3   OH247152   3.246   3.949  13.671  0.5709 -0.1271 -0.5319
 8554TIP3    H147153   3.206   3.893  13.738  0.6008  0.3918 -0.0774
 8554TIP3    H247154   3.263   3.890  13.598 -1.2075 -0.3407 -0.8150
 8555TIP3   OH247155   5.554   4.069   4.050  0.2903  0.1349 -0.4588
 8555TIP3    H147156   5.613   3.995   4.036  2.0306  1.4891 -0.5310
 8555TIP3    H247157   5.611   4.139   4.083 -0.7956  2.2733 -2.9365
 8556TIP3   OH247158   3.505   5.886  15.364  0.2591 -0.0174  0.3415
 8556TIP3    H147159   3.494   5.859  15.273  0.3581  0.1078  0.2928
 8556TIP3    H247160   3.594   5.858  15.387 -0.0087 -0.6638  0.6109
 8557TIP3   OH247161   5.229   4.962   1.155  0.3024  0.2074  0.3348
 8557TIP3    H147162   5.211   4.870   1.173 -1.4517  0.0929 -1.8075
 8557TIP3    H247163   5.144   5.005   1.162  1.0149  1.5814  0.7298
 8558TIP3   OH247164   4.205   2.419  16.529  0.4283 -0.2793  0.1006
 8558TIP3    H147165   4.221   2.448  16.619 -0.0073  0.8555 -0.1819
 8558TIP3    H247166   4.111   2.403  16.524  0.1345  1.5707 -0.6907
 8559TIP3   OH247167   0.707   3.937   2.119 -0.2610 -0.1544 -0.2343
 8559TIP3    H147168   0.750   3.889   2.048 -0.4200 -0.8976  0.1672
 8559TIP3    H247169   0.737   4.027   2.108 -0.2077 -0.2786 -1.1889
 8560TIP3   OH247170   0.508   6.117   3.893  0.6267  0.0834  0.3736
 8560TIP3    H147171   0.579   6.071   3.849 -1.1386 -0.2215 -2.2612
 8560TIP3    H247172   0.551   6.166   3.964  3.3358 -0.6353 -0.7251
 8561TIP3   OH247173   1.140   2.058   5.879  0.1245 -0.5882  0.0963
 8561TIP3    H147174   1.199   2.057   5.804  1.8824  2.1651  1.3417
 8561TIP3    H247175   1.061   2.101   5.847 -0.1618 -1.7640 -0.8282
 8562TIP3   OH247176   1.462   4.968  16.383  0.6386 -0.0175 -0.0304
 8562TIP3    H147177   1.548   4.988  16.348  1.0252 -0.1224  0.8490
 8562TIP3    H247178   1.406   4.957  16.306  1.0376  1.6450 -0.5624
 8563TIP3   OH247179   6.009   4.354   4.072  0.6144 -0.6292  0.3128
 8563TIP3    H147180   5.982   4.353   3.980  2.2228  0.4650 -0.1793
 8563TIP3    H247181   5.999   4.445   4.099 -0.4439 -1.0550  1.4182
 8564TIP3   OH247182   3.289   0.109   2.252 -0.5668  0.4898  0.6636
 8564TIP3    H147183   3.253   0.181   2.200  0.4698  1.4163  1.1988
 8564TIP3    H247184   3.283   0.141   2.342 -1.2820 -0.6279  1.0177
 8565TIP3   OH247185   2.572   2.450  11.165  0.9555  0.5639 -0.0735
 8565TIP3    H147186   2.552   2.445  11.258  1.4197  1.7898  0.0921
 8565TIP3    H247187   2.594   2.542  11.149 -0.4045  0.6474 -1.6547
 8566TIP3   OH247188   1.229   1.269   3.441  0.1745 -0.0455  0.2573
 8566TIP3    H147189   1.147   1.309   3.410 -0.3724 -0.8116  0.6813
 8566TIP3    H247190   1.202   1.185   3.477  1.2817 -0.6780 -0.3861
 8567TIP3   OH247191   3.291   5.984  11.260 -0.0429 -0.6068  0.4424
 8567TIP3    H147192   3.270   6.077  11.252 -1.6669 -1.0987 -1.4559
 8567TIP3    H247193   3.206   5.942  11.276  0.5501 -1.8541  0.3462
 8568TIP3   OH247194   4.893   6.226   3.861 -0.0252  0.1664 -0.3749
 8568TIP3    H147195   4.846   6.287   3.805 -1.8165 -2.0107 -1.3122
 8568TIP3    H247196   4.828   6.200   3.927  1.0275  0.0218  0.6203
 8569TIP3   OH247197   3.475   2.338  12.581 -0.5013 -0.7759  0.0546
 8569TIP3    H147198   3.546   2.292  12.625  1.1521  2.5439  1.0627
 8569TIP3    H247199   3.398   2.321  12.635  0.4505 -0.8515  1.4181
 8570TIP3   OH247200   4.533   1.353   6.713  0.3582 -0.5746  0.2745
 8570TIP3    H147201   4.553   1.269   6.754 -1.5349 -1.2870 -0.2015
 8570TIP3    H247202   4.455   1.384   6.760  0.6886  0.6320  0.0438
 8571TIP3   OH247203   5.212   5.783  16.798  0.3003  0.7360  0.3131
 8571TIP3    H147204   5.228   5.697  16.839  0.9286  0.7384  0.0866
 8571TIP3    H247205   5.232   5.769  16.706  2.2474  1.5926  0.5809
 8572TIP3   OH247206   0.531   1.419  11.774  0.2510  0.1488  0.1736
 8572TIP3    H147207   0.536   1.430  11.679  0.2867  1.7566  0.3479
 8572TIP3    H247208   0.593   1.483  11.808 -0.8103  0.5602  1.3401
 8573TIP3   OH247209   2.726   3.349   2.114  0.0568 -1.0428  0.0063
 8573TIP3    H147210   2.704   3.435   2.149  0.1905 -1.3723  0.9291
 8573TIP3    H247211   2.805   3.363   2.062 -0.0744 -0.5625 -0.0594
 8574TIP3   OH247212   5.388   1.003  15.249 -0.0529 -0.3327 -0.4496
 8574TIP3    H147213   5.444   0.946  15.301  1.9861  2.5249  0.6649
 8574TIP3    H247214   5.433   1.010  15.165 -0.0749 -0.0890 -0.4421
 8575TIP3   OH247215   1.470   5.641   3.488 -0.8738 -0.1037  0.5476
 8575TIP3    H147216   1.464   5.606   3.399 -1.0099 -0.8661  0.8545
 8575TIP3    H247217   1.380   5.642   3.520 -1.1909  2.6945 -0.2693
 8576TIP3   OH247218   1.873   6.353   3.487  0.2584  0.1754  0.1440
 8576TIP3    H147219   1.888   6.446   3.470  0.9573  0.3656  1.6757
 8576TIP3    H247220   1.935   6.308   3.430 -1.6182  0.5420 -2.2571
 8577TIP3   OH247221   1.269   4.905  14.691  0.3737 -0.0587  0.4043
 8577TIP3    H147222   1.335   4.909  14.760  0.0835 -0.2283  0.6903
 8577TIP3    H247223   1.223   4.822  14.705 -0.4679  0.4487  0.7327
 8578TIP3   OH247224   5.181   5.238  16.862  0.0799 -0.1099 -0.1354
 8578TIP3    H147225   5.126   5.314  16.842 -0.0441 -0.6823 -2.0298
 8578TIP3    H247226   5.118   5.167  16.878  0.1619  0.3710  2.5924
 8579TIP3   OH247227   3.375   6.357  14.948  0.3968  0.0985  0.2777
 8579TIP3    H147228   3.294   6.308  14.931  0.8710 -0.3934 -0.5980
 8579TIP3    H247229   3.445   6.293  14.936  0.9273  0.5820  0.8054
 8580TIP3   OH247230   3.578   1.765  12.954 -0.0785 -0.7835 -0.1710
 8580TIP3    H147231   3.484   1.751  12.941  0.0864 -2.4751  0.2800
 8580TIP3    H247232   3.619   1.718  12.882  0.4570 -1.1322  0.3569
 8581TIP3   OH247233   0.878   0.754   2.364 -0.6757  0.1077 -0.0014
 8581TIP3    H147234   0.883   0.836   2.315  0.1263  0.4258  0.5890
 8581TIP3    H247235   0.901   0.779   2.454  0.7035 -0.9484 -0.0410
 8582TIP3   OH247236   3.273   2.077   2.993 -0.0458  0.5472 -0.3150
 8582TIP3    H147237   3.305   2.006   2.939 -0.0143 -0.3636  0.8682
 8582TIP3    H247238   3.352   2.115   3.033 -0.0900  1.0372 -0.6855
 8583TIP3   OH247239   2.451   5.181   1.639  0.7351 -0.5514  0.3799
 8583TIP3    H147240   2.426   5.223   1.722  1.2014 -1.7601  1.1361
 8583TIP3    H247241   2.451   5.087   1.659 -0.9444 -0.9661 -1.4676
 8584TIP3   OH247242   1.431   6.486   0.594  0.0166  0.1767  0.0348
 8584TIP3    H147243   1.346   6.506   0.634 -0.8366 -1.6575 -0.8234
 8584TIP3    H247244   1.483   6.450   0.666 -0.4617 -0.1680  0.2126
 8585TIP3   OH247245   1.669   4.536  13.742 -0.4115 -0.4435  0.5512
 8585TIP3    H147246   1.680   4.520  13.836 -0.7223  0.2519  0.7075
 8585TIP3    H247247   1.758   4.535  13.708  0.0697  3.3713  1.5212
 8586TIP3   OH247248   1.742   0.323   5.264  0.1696 -0.5597  0.4005
 8586TIP3    H147249   1.742   0.405   5.313  1.5695 -0.9004  0.9859
 8586TIP3    H247250   1.670   0.272   5.302 -0.7632  0.4008 -0.0207
 8587TIP3   OH247251   6.376   5.858   5.076  0.3338  0.2304  0.5377
 8587TIP3    H147252   6.303   5.889   5.022 -1.9534 -0.2059  3.2611
 8587TIP3    H247253   6.392   5.769   5.045 -0.2383  0.3430 -0.0994
 8588TIP3   OH247254   0.482   6.063   0.711 -0.0161 -0.1099 -0.5362
 8588TIP3    H147255   0.470   6.080   0.618  3.7152  0.2797 -1.0234
 8588TIP3    H247256   0.561   6.008   0.716  0.1948  0.3439  2.3899
 8589TIP3   OH247257   2.038   0.655   0.051 -0.3594  0.3525  0.4050
 8589TIP3    H147258   1.960   0.631   0.101  0.1995  0.6736  1.4532
 8589TIP3    H247259   2.040   0.593  -0.022 -1.7493  0.5250  0.2002
 8590TIP3   OH247260   0.855   2.934  15.659 -0.1638 -0.2050  0.4462
 8590TIP3    H147261   0.874   2.889  15.741 -0.2587 -0.0597  0.5470
 8590TIP3    H247262   0.887   3.023  15.672 -0.3383 -0.1327  0.3889
 8591TIP3   OH247263   4.373   0.125  11.963  0.2702 -0.4219  0.6126
 8591TIP3    H147264   4.435   0.195  11.983  0.2136 -0.0565 -0.4934
 8591TIP3    H247265   4.292   0.151  12.007  0.8252 -0.7937  1.8799
 8592TIP3   OH247266   1.904   4.562  13.571 -0.0839 -0.2611  0.1207
 8592TIP3    H147267   1.852   4.587  13.495 -0.8471  0.4987  0.8823
 8592TIP3    H247268   1.961   4.638  13.587  0.1725 -0.4739  0.2250
 8593TIP3   OH247269   3.358   5.073   5.337  0.5100  0.2120  0.0067
 8593TIP3    H147270   3.278   5.116   5.308  0.1062  1.1523  2.4664
 8593TIP3    H247271   3.428   5.135   5.314  0.3118  0.4229 -0.0232
 8594TIP3   OH247272   1.636   6.533   0.036  0.3341  0.0613  0.2756
 8594TIP3    H147273   1.605   6.454   0.081  0.2131 -0.7244 -1.1314
 8594TIP3    H247274   1.564   6.595   0.043 -0.9758 -1.1894 -1.5852
 8595TIP3   OH247275   0.294   6.784  11.594  0.2630 -0.2005  0.4158
 8595TIP3    H147276   0.253   6.743  11.517 -2.3427  0.1430  1.5584
 8595TIP3    H247277   0.375   6.735  11.607  1.0852  0.1526 -2.9186
 8596TIP3   OH247278   3.246   4.001  15.015 -0.3435  0.3947  0.2307
 8596TIP3    H147279   3.163   3.964  14.987 -0.9203  1.1557  0.8905
 8596TIP3    H247280   3.283   4.041  14.937 -0.3969 -0.3100 -0.1556
 8597TIP3   OH247281   4.443   2.102  12.086  0.3374  0.0634 -0.3571
 8597TIP3    H147282   4.537   2.091  12.103  0.1370 -2.3839 -0.7074
 8597TIP3    H247283   4.431   2.076  11.995 -0.9400 -1.3403  0.1882
 8598TIP3   OH247284   2.352   3.264   5.999 -0.2639 -0.1738  0.1081
 8598TIP3    H147285   2.299   3.343   6.009  0.2556 -0.1254  3.1623
 8598TIP3    H247286   2.304   3.211   5.936 -0.5722  2.5793 -2.0905
 8599TIP3   OH247287   4.294   1.502   4.846 -0.0827 -0.5838 -0.0215
 8599TIP3    H147288   4.283   1.474   4.937  3.6295  0.5342  0.8548
 8599TIP3    H247289   4.371   1.454   4.815  0.3200  1.0835 -1.6945
 8600TIP3   OH247290   0.460   1.855   2.607  0.3338 -0.0210 -0.1376
 8600TIP3    H147291   0.377   1.874   2.651  0.0924 -0.7154 -0.2970
 8600TIP3    H247292   0.440   1.785   2.546  1.2136 -0.7716  0.4179
 8601TIP3   OH247293   0.176   6.770  13.996  0.2342 -0.3438  0.2456
 8601TIP3    H147294   0.199   6.757  14.088 -1.7800  1.8201  1.0863
 8601TIP3    H247295   0.082   6.750  13.991  0.0948  0.5562 -1.1209
 8602TIP3   OH247296   5.364   4.359   2.934  0.7599 -0.0994  0.6076
 8602TIP3    H147297   5.354   4.337   3.027 -1.0496 -0.7693  0.2695
 8602TIP3    H247298   5.290   4.317   2.891  2.5473 -1.2622 -1.4062
 8603TIP3   OH247299   3.569   0.671  13.814 -0.4116 -0.0173 -0.2328
 8603TIP3    H147300   3.565   0.752  13.764 -1.0023 -0.2583 -0.5805
 8603TIP3    H247301   3.653   0.632  13.788  1.2985  1.9239  2.2158
 8604TIP3   OH247302   1.001   1.470   4.271 -0.0501  0.4668 -0.1787
 8604TIP3    H147303   0.960   1.553   4.293  2.1513  1.0688  1.7834
 8604TIP3    H247304   1.090   1.476   4.305  0.2895 -2.5350 -0.3424
 8605TIP3   OH247305   5.386   4.125  14.487 -0.0140 -0.0684 -0.1063
 8605TIP3    H147306   5.348   4.089  14.567  0.4628  2.5094  1.3284
 8605TIP3    H247307   5.318   4.117  14.421 -1.5934  0.7485  1.4005
 8606TIP3   OH247308   4.712   6.582   4.532 -0.4380  0.1501  0.7325
 8606TIP3    H147309   4.663   6.658   4.500  1.2053  0.6823 -0.5955
 8606TIP3    H247310   4.780   6.619   4.588 -0.8345 -0.5107  1.6744
 8607TIP3   OH247311   1.643   5.853  16.939 -0.1616 -0.3173 -0.4270
 8607TIP3    H147312   1.649   5.942  16.904 -1.0275 -0.1353 -0.1479
 8607TIP3    H247313   1.612   5.866  17.029 -3.2078 -1.0219 -1.3013
 8608TIP3   OH247314   3.838   3.415   3.979  0.1976  0.2937 -0.2207
 8608TIP3    H147315   3.750   3.418   4.018  1.0905  0.0146  1.8521
 8608TIP3    H247316   3.873   3.503   3.993  0.5246  0.1968 -0.4199
 8609TIP3   OH247317   0.471   2.323   4.941  0.3418 -0.1461  0.1900
 8609TIP3    H147318   0.522   2.380   4.884 -0.1133  1.7378  1.6007
 8609TIP3    H247319   0.382   2.359   4.938 -0.4349 -2.0906 -0.5697
 8610TIP3   OH247320   2.929   1.076  15.103 -0.1022  0.0382  0.2430
 8610TIP3    H147321   2.868   1.003  15.090  0.4719 -0.2129 -1.1683
 8610TIP3    H247322   3.001   1.039  15.153  0.8919 -0.7855 -1.7158
 8611TIP3   OH247323   1.283   6.479   4.669 -0.1687 -0.5675  0.0741
 8611TIP3    H147324   1.290   6.531   4.748 -0.2288  0.0513 -0.3284
 8611TIP3    H247325   1.223   6.408   4.692 -0.0237 -0.5045  0.6440
 8612TIP3   OH247326   6.438   4.226   6.051  0.2223 -0.4201  0.5738
 8612TIP3    H147327   6.480   4.141   6.067  1.4978  0.1037  0.0228
 8612TIP3    H247328   6.369   4.207   5.988  0.1628 -1.1379  0.8480
 8613TIP3   OH247329   2.114   4.527  14.419 -0.0601  0.4991  0.4364
 8613TIP3    H147330   2.156   4.442  14.403 -0.3531  0.3457  0.4771
 8613TIP3    H247331   2.022   4.506  14.433  0.1182  0.6611  1.9353
 8614TIP3   OH247332   2.943   2.864  14.176  0.0264  0.1916  0.2078
 8614TIP3    H147333   2.944   2.769  14.173 -2.0901  0.1359  0.6532
 8614TIP3    H247334   3.017   2.887  14.232 -0.2580 -1.2522  1.2069
 8615TIP3   OH247335   0.913   3.918  16.589 -0.1158  0.1258  0.1788
 8615TIP3    H147336   0.944   3.946  16.676  0.2571  0.0053  0.0851
 8615TIP3    H247337   0.829   3.963  16.578  0.6691  1.5389 -0.1297
 8616TIP3   OH247338   1.995   2.992  11.141  0.3284 -0.3501  0.0546
 8616TIP3    H147339   2.068   3.052  11.158 -0.5427  0.7710 -0.0569
 8616TIP3    H247340   1.921   3.031  11.188 -0.7254 -0.2622 -1.6263
 8617TIP3   OH247341   5.748   3.038  15.068  0.0553  0.3144 -0.0363
 8617TIP3    H147342   5.819   2.975  15.082 -2.0951 -1.6822  2.4889
 8617TIP3    H247343   5.715   3.018  14.980 -1.4795 -3.1773  1.2003
 8618TIP3   OH247344   2.773   5.558  15.102  0.4132  0.0290 -0.4140
 8618TIP3    H147345   2.797   5.630  15.043  0.3326  0.6679  0.3323
 8618TIP3    H247346   2.739   5.601  15.180 -0.9300 -0.8427 -0.4997
 8619TIP3   OH247347   4.430   5.343   1.011 -0.0799  0.0817 -0.4606
 8619TIP3    H147348   4.512   5.392   1.000 -1.1773  1.8018 -1.3036
 8619TIP3    H247349   4.414   5.345   1.105 -0.5041  2.0744 -0.5446
 8620TIP3   OH247350   1.280   4.524   4.573  0.0078 -0.2453 -0.1817
 8620TIP3    H147351   1.214   4.564   4.629 -0.2984  0.0850 -0.7808
 8620TIP3    H247352   1.326   4.463   4.631 -0.7800 -0.4377  0.2582
 8621TIP3   OH247353   4.480   2.484  10.905 -0.5008 -0.1227 -0.5325
 8621TIP3    H147354   4.468   2.578  10.916 -0.4799 -0.1767 -0.0534
 8621TIP3    H247355   4.407   2.457  10.848 -1.3373 -0.0616  0.4950
 8622TIP3   OH247356   0.872   1.595   0.016  0.3948 -0.0034  0.4712
 8622TIP3    H147357   0.892   1.607   0.109  1.5241  0.9414  0.1136
 8622TIP3    H247358   0.847   1.503   0.008  0.9931 -0.2649  1.5912
 8623TIP3   OH247359   0.958   1.195  16.676 -0.2698 -0.1124  0.2330
 8623TIP3    H147360   1.000   1.273  16.712  0.3319 -0.4026  0.1662
 8623TIP3    H247361   0.914   1.225  16.597  1.2465 -0.1372 -0.6414
 8624TIP3   OH247362   3.192   1.429   4.782 -0.1231  0.2864  0.7009
 8624TIP3    H147363   3.151   1.469   4.706  0.5027  0.3049  0.3687
 8624TIP3    H247364   3.189   1.335   4.764 -0.6184  0.2499  0.9809
 8625TIP3   OH247365   5.136   3.705  11.988  0.4692 -0.3357  0.0535
 8625TIP3    H147366   5.057   3.742  12.029  0.2283 -0.0128 -0.7006
 8625TIP3    H247367   5.180   3.659  12.059 -0.2758 -0.3089  0.5377
 8626TIP3   OH247368   2.708   0.081  14.408  0.5868 -0.3284  0.6515
 8626TIP3    H147369   2.706   0.017  14.337  2.2206 -0.3478  0.5980
 8626TIP3    H247370   2.777   0.048  14.467  0.1457  0.3832  1.5640
 8627TIP3   OH247371   2.263   1.122  12.530 -0.0159  0.6504  0.1074
 8627TIP3    H147372   2.237   1.149  12.618 -1.7794  1.1592 -0.5530
 8627TIP3    H247373   2.186   1.076  12.496  0.8394  0.0189 -0.9896
 8628TIP3   OH247374   3.578   1.188   3.315 -0.4339  0.3455  0.3810
 8628TIP3    H147375   3.578   1.176   3.410 -0.0246  0.8338  0.4439
 8628TIP3    H247376   3.667   1.215   3.294 -0.5971  0.5150 -0.1067
 8629TIP3   OH247377   6.233   4.821  12.716 -0.4489 -0.6296  0.4966
 8629TIP3    H147378   6.227   4.727  12.735  0.4193 -0.7831  0.0100
 8629TIP3    H247379   6.315   4.831  12.669  0.1243  0.5827  1.7307
 8630TIP3   OH247380   1.127   1.248   4.440  0.0701  0.3442  0.6467
 8630TIP3    H147381   1.173   1.328   4.463  0.4411  0.2632  0.2083
 8630TIP3    H247382   1.056   1.276   4.383  0.2642  0.3538  0.4071
 8631TIP3   OH247383   4.193   1.529  13.530 -0.3410  0.4508 -0.4053
 8631TIP3    H147384   4.102   1.510  13.509 -1.0836  1.6753  1.5398
 8631TIP3    H247385   4.199   1.625  13.523  0.3209  0.5407  1.1885
 8632TIP3   OH247386   1.753   5.046   3.626 -0.5286  0.2139 -0.0613
 8632TIP3    H147387   1.794   5.070   3.709 -1.1438  0.1670  0.2591
 8632TIP3    H247388   1.764   4.951   3.620  0.3297  0.3324 -0.4790
 8633TIP3   OH247389   3.400   2.705  16.347 -0.4567 -0.1574  0.5626
 8633TIP3    H147390   3.315   2.695  16.305 -0.4848  0.1991  0.5282
 8633TIP3    H247391   3.379   2.726  16.439 -0.4220  0.9018  0.3365
 8634TIP3   OH247392   3.886   5.788   4.248 -0.0802 -0.1284 -0.4335
 8634TIP3    H147393   3.850   5.860   4.301 -0.7760  0.9289 -2.3029
 8634TIP3    H247394   3.974   5.774   4.284 -1.2024 -0.6572  2.1788
 8635TIP3   OH247395   2.494   0.942  13.684 -0.2059 -0.0230 -0.0543
 8635TIP3    H147396   2.459   0.973  13.768 -1.7006  0.1988 -0.7367
 8635TIP3    H247397   2.527   1.021  13.641 -0.3939  0.0203 -0.1188
 8636TIP3   OH247398   5.099   0.504  11.661 -0.1424  0.0396  0.0051
 8636TIP3    H147399   5.163   0.538  11.723 -0.3093 -0.6949  0.6011
 8636TIP3    H247400   5.145   0.432  11.617  0.0807  0.7621 -0.9581
 8637TIP3   OH247401   3.574   2.490   4.651 -0.2342  0.5587  0.2110
 8637TIP3    H147402   3.484   2.514   4.630 -1.0192 -0.4334  2.2485
 8637TIP3    H247403   3.608   2.450   4.571 -1.3657  1.5724 -0.7954
 8638TIP3   OH247404   4.731   1.411  13.826  0.5097 -0.1740 -0.1697
 8638TIP3    H147405   4.731   1.430  13.732 -0.0438 -0.2842 -0.1921
 8638TIP3    H247406   4.809   1.357  13.839  1.3291  0.9563 -0.3362
 8639TIP3   OH247407   6.058   6.724  14.272 -0.4849 -0.2776 -0.2371
 8639TIP3    H147408   6.025   6.635  14.283 -0.1038 -0.1624  2.1824
 8639TIP3    H247409   6.137   6.727  14.326  0.0628  1.2225 -1.1079
 8640TIP3   OH247410   4.158   5.466  17.077 -0.2080 -0.3556 -0.5090
 8640TIP3    H147411   4.224   5.534  17.084  1.3656 -1.8029 -0.9282
 8640TIP3    H247412   4.198   5.389  17.117 -1.3961 -1.4248 -1.3166
 8641TIP3   OH247413   0.784   2.211   0.229 -0.0422 -0.0906 -0.0706
 8641TIP3    H147414   0.872   2.233   0.199  0.7545 -0.6969  1.8161
 8641TIP3    H247415   0.785   2.228   0.323 -2.4360  1.4801 -0.2689
 8642TIP3   OH247416   5.999   3.918  14.648  0.1702 -0.1302 -0.7530
 8642TIP3    H147417   6.068   3.970  14.688 -0.1009  1.5068 -2.3761
 8642TIP3    H247418   6.010   3.831  14.686  2.1176  0.5075  0.2095
 8643TIP3   OH247419   0.236   5.239   5.125 -1.1268  0.0810 -0.1718
 8643TIP3    H147420   0.223   5.297   5.050  2.9194  1.0431 -0.2488
 8643TIP3    H247421   0.296   5.172   5.093 -1.7690 -1.2349  1.3557
 8644TIP3   OH247422   0.473   3.766   3.046 -0.1405  0.0449  0.4270
 8644TIP3    H147423   0.392   3.735   3.085 -0.1160 -1.2279 -0.5061
 8644TIP3    H247424   0.495   3.844   3.096 -2.2924  0.8024  0.2550
 8645TIP3   OH247425   1.831   0.623  14.052 -0.4238 -0.1273  0.0570
 8645TIP3    H147426   1.904   0.619  13.990 -1.1064 -0.3931 -0.7320
 8645TIP3    H247427   1.853   0.558  14.119 -0.4902 -1.0267 -0.7864
 8646TIP3   OH247428   2.780   5.103   3.784 -0.4619  0.1097 -0.3630
 8646TIP3    H147429   2.870   5.136   3.775  0.1126 -1.0785  0.8640
 8646TIP3    H247430   2.747   5.143   3.864 -0.9044  0.2739 -0.6269
 8647TIP3   OH247431   0.280   3.521   2.329 -0.4501  0.1989  0.3460
 8647TIP3    H147432   0.359   3.572   2.348 -0.0052 -0.0703 -0.7132
 8647TIP3    H247433   0.249   3.492   2.415  1.4665 -0.9673  0.6814
 8648TIP3   OH247434   0.230   2.709  10.780 -0.4625 -0.0582  0.3982
 8648TIP3    H147435   0.209   2.655  10.857 -2.6257  0.8217  0.4508
 8648TIP3    H247436   0.326   2.709  10.777 -0.3914 -2.4910  1.3945
 8649TIP3   OH247437   1.652   5.073   5.872 -0.0986 -0.1974 -0.4281
 8649TIP3    H147438   1.689   5.159   5.856  2.2927 -1.6816 -3.3699
 8649TIP3    H247439   1.714   5.030   5.930 -0.6373 -0.3942  0.0090
 8650TIP3   OH247440   6.562   0.392  11.828 -0.1944 -0.2499 -0.5342
 8650TIP3    H147441   6.579   0.373  11.920 -0.4161 -0.6641 -0.5782
 8650TIP3    H247442   6.620   0.333  11.780  2.1119  2.0255 -0.6476
 8651TIP3   OH247443   4.292   3.792   2.291 -0.2141  0.0739 -0.4308
 8651TIP3    H147444   4.201   3.775   2.268  0.4709  0.3971 -3.5857
 8651TIP3    H247445   4.289   3.873   2.343 -1.6826  0.4044 -0.9980
 8652TIP3   OH247446   1.967   0.718  14.293 -0.3227  0.9044 -0.4868
 8652TIP3    H147447   2.031   0.710  14.222 -0.7595  0.3545 -0.8254
 8652TIP3    H247448   2.015   0.760  14.364  0.0596  1.6918 -1.1955
 8653TIP3   OH247449   4.192   4.905   4.374 -0.1380  0.6551 -0.1612
 8653TIP3    H147450   4.232   4.818   4.381 -1.7347 -0.0520  0.3739
 8653TIP3    H247451   4.162   4.924   4.463 -0.6631  1.3234 -0.4825
 8654TIP3   OH247452   1.655   6.595   5.681 -0.4542  0.5239  0.1304
 8654TIP3    H147453   1.566   6.562   5.666 -0.4780  1.1145 -1.0377
 8654TIP3    H247454   1.703   6.574   5.601  1.0790 -1.7608  1.5946
 8655TIP3   OH247455   4.456   3.813  16.138 -0.3985 -0.4043 -0.2196
 8655TIP3    H147456   4.538   3.768  16.161 -0.9252 -1.7231 -0.8774
 8655TIP3    H247457   4.441   3.791  16.046 -0.2281  1.8394 -0.8228
 8656TIP3   OH247458   0.243   0.587  13.701 -0.0545 -0.5732 -0.4596
 8656TIP3    H147459   0.274   0.622  13.785  0.5760 -0.7883 -0.5930
 8656TIP3    H247460   0.230   0.664  13.647 -2.8031 -0.2521  0.5816
 8657TIP3   OH247461   2.070   0.041  15.956 -0.1260 -0.3076  0.0599
 8657TIP3    H147462   2.015   0.064  16.032  0.6746  0.2295  0.4810
 8657TIP3    H247463   2.014   0.057  15.880 -0.6300  0.0157  0.4965
 8658TIP3   OH247464   2.977   6.771  13.183  0.3535  0.7029 -0.2671
 8658TIP3    H147465   2.968   6.680  13.157  1.0125  0.8621 -1.0868
 8658TIP3    H247466   2.915   6.782  13.255 -0.5048 -0.1114 -0.8753
 8659TIP3   OH247467   6.675   2.346   5.091 -0.1920  0.8410  0.3572
 8659TIP3    H147468   6.700   2.337   5.183 -0.7860  0.0727  0.4471
 8659TIP3    H247469   6.625   2.428   5.087 -1.8603 -0.1158  1.0975
 8660TIP3   OH247470   0.864   4.490   3.920 -0.3108  0.3908 -0.5066
 8660TIP3    H147471   0.801   4.546   3.873 -1.5185 -0.0169  0.5926
 8660TIP3    H247472   0.824   4.475   4.005  0.9064 -0.5756 -0.0878
 8661TIP3   OH247473   0.713   6.026   1.804  0.0363 -0.0324 -0.1182
 8661TIP3    H147474   0.778   6.022   1.734 -0.9518  0.5235 -1.0813
 8661TIP3    H247475   0.629   6.036   1.759 -0.8389 -1.6951  1.0726
 8662TIP3   OH247476   1.219   4.625   6.426 -0.6346  0.5994  0.0300
 8662TIP3    H147477   1.137   4.671   6.446 -0.6945  0.3661  0.3313
 8662TIP3    H247478   1.207   4.538   6.464 -0.7135  0.1710 -0.9773
 8663TIP3   OH247479   1.469   1.638   0.274  0.0914  0.0130  0.0535
 8663TIP3    H147480   1.560   1.632   0.245  0.0319  1.6959 -0.5350
 8663TIP3    H247481   1.473   1.687   0.356 -0.1996 -0.6194  0.4421
 8664TIP3   OH247482   2.032   4.547   3.684  0.0462 -0.0258 -0.0489
 8664TIP3    H147483   2.116   4.552   3.638  0.2922 -0.9187  0.2813
 8664TIP3    H247484   2.041   4.608   3.757  0.3672 -0.0361 -0.0791
 8665TIP3   OH247485   5.957   5.249   2.132  0.3588  0.2657 -0.7257
 8665TIP3    H147486   5.906   5.192   2.190  0.6071 -0.1702 -0.9366
 8665TIP3    H247487   5.909   5.332   2.131 -0.5978 -0.3007 -1.3111
 8666TIP3   OH247488   2.649   5.084   0.790  0.4096 -0.0130 -0.5664
 8666TIP3    H147489   2.713   5.087   0.861 -0.4063  0.0069  0.1824
 8666TIP3    H247490   2.630   4.991   0.778 -2.3260  0.1564  1.9032
 8667TIP3   OH247491   0.594   3.467  11.840  0.3106 -0.2037 -0.5087
 8667TIP3    H147492   0.570   3.407  11.911 -0.1672 -0.0284 -0.5190
 8667TIP3    H247493   0.565   3.553  11.871 -0.6924 -0.2550 -1.2890
 8668TIP3   OH247494   1.145   1.034  16.027  0.1682 -0.1952 -0.3687
 8668TIP3    H147495   1.218   1.002  15.973 -0.2938 -0.4623 -0.8500
 8668TIP3    H247496   1.069   0.985  15.995  0.0310 -0.9840  1.1009
 8669TIP3   OH247497   1.568   2.446  15.315 -0.0932  0.1729  0.1010
 8669TIP3    H147498   1.646   2.501  15.306 -1.7328  2.7049  0.6950
 8669TIP3    H247499   1.506   2.483  15.252 -0.8035 -1.8720 -0.4490
 8670TIP3   OH247500   0.851   0.474  14.588 -0.6507 -0.1928 -0.3765
 8670TIP3    H147501   0.941   0.500  14.569 -1.0360  0.7500 -0.9121
 8670TIP3    H247502   0.798   0.516  14.521 -1.5111 -0.6694 -0.0131
 8671TIP3   OH247503   4.806   1.483  12.647  0.5813 -0.3697 -0.2189
 8671TIP3    H147504   4.890   1.451  12.615 -0.1617  0.4872 -3.2331
 8671TIP3    H247505   4.748   1.407  12.642  0.5688 -0.3392 -0.5585
 8672TIP3   OH247506   0.472   2.831  11.801 -0.7754  0.1875 -0.2505
 8672TIP3    H147507   0.408   2.785  11.747 -1.4687 -0.9337  1.4815
 8672TIP3    H247508   0.419   2.894  11.852 -0.5014 -0.5656  0.9980
 8673TIP3   OH247509   4.138   1.920   1.611 -0.1364 -0.0404 -0.4123
 8673TIP3    H147510   4.056   1.969   1.622  0.8009  1.3867  0.3802
 8673TIP3    H247511   4.189   1.973   1.550  1.1305  0.2694  0.9057
 8674TIP3   OH247512   3.535   0.212  16.657 -0.1668  0.0567 -0.2879
 8674TIP3    H147513   3.596   0.205  16.731 -0.5553 -1.4290 -0.0936
 8674TIP3    H247514   3.449   0.219  16.698 -0.1920  1.4903 -0.5764
 8675TIP3   OH247515   4.280   0.192  16.511  0.3327  0.1432  0.4134
 8675TIP3    H147516   4.185   0.184  16.513  0.4218 -0.8558  0.7835
 8675TIP3    H247517   4.296   0.287  16.517 -0.6484  0.4006 -0.9019
 8676TIP3   OH247518   1.166   4.225  15.644 -0.0985  0.2268 -0.5639
 8676TIP3    H147519   1.211   4.309  15.646 -1.0794  0.7450  0.5551
 8676TIP3    H247520   1.073   4.248  15.653 -0.4320 -0.9205 -1.0849
 8677TIP3   OH247521   1.684   1.034  17.240  0.0376  0.3228 -0.0366
 8677TIP3    H147522   1.741   1.031  17.163  0.1963 -0.9012  0.1091
 8677TIP3    H247523   1.646   0.946  17.245  0.2514  0.2962  1.4534
 8678TIP3   OH247524   6.810   5.934  13.635 -0.0297  0.1850  0.0605
 8678TIP3    H147525   6.845   5.846  13.627  1.0076  0.6002 -0.0693
 8678TIP3    H247526   6.886   5.991  13.623 -0.8545  1.1151 -0.8847
 8679TIP3   OH247527   5.088   1.685   1.145 -0.5856 -0.4335  0.1476
 8679TIP3    H147528   5.150   1.741   1.099 -1.7725  2.0037  1.3966
 8679TIP3    H247529   5.021   1.665   1.080  0.1496 -0.9088 -0.4714
 8680TIP3   OH247530   1.889   4.491  12.072  0.7063 -0.0229  0.0820
 8680TIP3    H147531   1.858   4.409  12.035  1.2729 -1.7341  3.1951
 8680TIP3    H247532   1.810   4.543  12.088 -0.1723 -2.0768  2.7905
 8681TIP3   OH247533   2.164   4.790   2.389 -0.3080  0.2350 -0.4777
 8681TIP3    H147534   2.201   4.861   2.442 -0.2316  0.6211 -1.0411
 8681TIP3    H247535   2.071   4.789   2.411 -0.0585 -0.4052  0.5677
 8682TIP3   OH247536   4.964   4.623  10.837 -0.1787  0.2702  0.2694
 8682TIP3    H147537   4.954   4.611  10.743 -0.7254  0.6302  0.2830
 8682TIP3    H247538   4.890   4.576  10.876  0.6312 -0.7805  0.5755
 8683TIP3   OH247539   2.695   1.478  11.246  0.1702  0.5568  0.3470
 8683TIP3    H147540   2.781   1.482  11.287  0.8281 -0.4041 -0.9027
 8683TIP3    H247541   2.642   1.425  11.305  0.7594  0.1950  0.5504
 8684TIP3   OH247542   1.140   5.540   2.027  0.4121  0.2915 -0.1228
 8684TIP3    H147543   1.066   5.525   1.967  0.2582  1.4145 -0.2308
 8684TIP3    H247544   1.206   5.476   2.001  1.1288  2.0267 -2.7989
 8685TIP3   OH247545   4.512   6.779   0.454  0.6540  0.0355 -0.3248
 8685TIP3    H147546   4.581   6.797   0.390  1.8391 -0.1167  0.9044
 8685TIP3    H247547   4.557   6.737   0.527 -0.9054 -1.0686  0.0264
 8686TIP3   OH247548   5.996   4.949   0.545  0.5535 -0.8908  0.1352
 8686TIP3    H147549   6.001   5.042   0.521  2.2111 -1.8909 -3.7572
 8686TIP3    H247550   5.904   4.933   0.562  0.5587  2.0174  3.4098
 8687TIP3   OH247551   5.985   2.087   4.540  0.5099 -0.2557  0.1975
 8687TIP3    H147552   6.000   2.165   4.592  1.6335 -0.9903  1.0132
 8687TIP3    H247553   6.054   2.026   4.568 -0.7516 -1.7810  0.0885
 8688TIP3   OH247554   4.683   6.736   5.895 -0.1658  0.3134  0.0638
 8688TIP3    H147555   4.644   6.649   5.896  0.7317 -0.1057  1.7714
 8688TIP3    H247556   4.647   6.778   5.818 -0.5078 -1.6210 -0.8597
 8689TIP3   OH247557   3.660   6.192   0.447 -0.1028  0.2831  1.0122
 8689TIP3    H147558   3.724   6.154   0.508 -0.0301  1.9586  1.9979
 8689TIP3    H247559   3.686   6.156   0.361  0.7988 -0.7968  1.7070
 8690TIP3   OH247560   1.523   2.206  16.693  0.1571 -0.4394  0.2821
 8690TIP3    H147561   1.477   2.193  16.776  0.2239 -1.2039  0.2063
 8690TIP3    H247562   1.572   2.287  16.705 -1.6281  0.7059  0.1757
 8691TIP3   OH247563   3.599   1.299  15.984 -0.3490 -0.2231 -0.0696
 8691TIP3    H147564   3.597   1.383  16.030 -2.3132 -1.4166  2.1630
 8691TIP3    H247565   3.655   1.314  15.908  2.2692  2.0773  2.2285
 8692TIP3   OH247566   0.891   3.047  13.337  0.3864 -0.1095 -0.4073
 8692TIP3    H147567   0.872   2.967  13.386  0.9885  0.6868  1.1404
 8692TIP3    H247568   0.986   3.049  13.328  0.5046  1.1784  0.8775
 8693TIP3   OH247569   4.839   2.996  11.404  1.0016  0.5636  0.3978
 8693TIP3    H147570   4.765   2.961  11.356  1.4531  2.1750 -1.5579
 8693TIP3    H247571   4.916   2.961  11.359  1.4276  0.3479  1.2912
 8694TIP3   OH247572   4.458   0.272  12.635  0.0845  0.1649  0.0861
 8694TIP3    H147573   4.376   0.228  12.655  0.3338 -0.7630 -0.9022
 8694TIP3    H247574   4.442   0.317  12.553  0.8284 -0.7476 -0.5750
 8695TIP3   OH247575   5.656   1.541   3.122 -0.0451 -0.8013  0.2856
 8695TIP3    H147576   5.647   1.636   3.123 -0.9377 -0.8753  3.1718
 8695TIP3    H247577   5.575   1.509   3.080  0.4262 -0.3103 -1.0324
 8696TIP3   OH247578   3.554   5.454   5.468 -0.7421 -0.0803 -0.3823
 8696TIP3    H147579   3.478   5.421   5.516  1.1529 -0.2481  2.6208
 8696TIP3    H247580   3.579   5.534   5.514  0.8178  0.0481 -1.4118
 8697TIP3   OH247581   0.310   5.319  15.231  0.5908  0.4484  0.3086
 8697TIP3    H147582   0.361   5.400  15.237  0.8459  0.2908  0.2710
 8697TIP3    H247583   0.250   5.323  15.305  1.1043  0.3248  0.7288
 8698TIP3   OH247584   4.025   6.445   2.588  0.1598  0.1099 -0.2367
 8698TIP3    H147585   4.052   6.355   2.571  1.0064  0.1991  0.5736
 8698TIP3    H247586   3.931   6.447   2.568  0.8980  0.0123 -3.9518
 8699TIP3   OH247587   3.768   0.596  14.845  0.0027  0.0860 -0.4703
 8699TIP3    H147588   3.788   0.600  14.938 -0.0564  0.5181 -0.4726
 8699TIP3    H247589   3.842   0.548  14.807  0.2996  0.3756 -0.2706
 8700TIP3   OH247590   2.890   5.770  16.460  0.2648 -0.1317  0.8003
 8700TIP3    H147591   2.927   5.777  16.372  0.0279  0.9357  0.7692
 8700TIP3    H247592   2.795   5.774  16.446  0.2677  3.2601  1.3077
 8701TIP3   OH247593   3.648   4.870   0.891  0.2779  0.3200 -0.1205
 8701TIP3    H147594   3.734   4.839   0.918  0.4788  0.4807 -0.5711
 8701TIP3    H247595   3.637   4.836   0.802 -0.7568 -0.9466  0.4851
 8702TIP3   OH247596   6.226   6.229   0.609  0.0722 -0.5983 -0.4215
 8702TIP3    H147597   6.201   6.242   0.518 -1.7979 -1.3177 -0.0292
 8702TIP3    H247598   6.196   6.309   0.653 -0.5761 -0.9953 -0.1390
 8703TIP3   OH247599   3.937   6.195   2.322 -0.5951 -0.0480 -0.3876
 8703TIP3    H147600   4.003   6.135   2.288 -1.0394  0.4120 -2.1170
 8703TIP3    H247601   3.914   6.249   2.247 -0.9105  1.6405  0.9049
 8704TIP3   OH247602   1.075   4.451   0.972  0.1745 -0.6737 -0.7000
 8704TIP3    H147603   0.997   4.429   1.023 -0.5601  0.8284 -1.1284
 8704TIP3    H247604   1.145   4.456   1.037 -0.7877  1.3883  0.2520
 8705TIP3   OH247605   5.187   6.162  15.365 -0.2234  0.6223 -0.0069
 8705TIP3    H147606   5.134   6.176  15.287 -0.5169 -3.2066 -0.5723
 8705TIP3    H247607   5.123   6.157  15.437 -0.2491  0.2774 -0.0573
 8706TIP3   OH247608   2.178   0.223  12.762  0.0013  0.3176  0.1542
 8706TIP3    H147609   2.212   0.212  12.851 -1.4996  2.3327  0.9922
 8706TIP3    H247610   2.114   0.152  12.753  0.2336  0.0374  0.6357
 8707TIP3   OH247611   2.535   4.322   2.797  0.3690 -0.1783  0.2038
 8707TIP3    H147612   2.511   4.338   2.706  0.8316 -0.8461 -0.0412
 8707TIP3    H247613   2.507   4.400   2.843 -1.5918 -0.6233 -0.1953
 8708TIP3   OH247614   3.803   3.696   4.696 -0.4726  0.4805 -0.5122
 8708TIP3    H147615   3.888   3.662   4.670  0.3390  1.3547  0.9491
 8708TIP3    H247616   3.785   3.767   4.634 -0.4718 -0.1724 -1.2645
 8709TIP3   OH247617   5.780   1.020  15.949  0.0864 -0.2018  0.3311
 8709TIP3    H147618   5.874   1.007  15.944 -0.1100 -2.1038  1.1109
 8709TIP3    H247619   5.742   0.943  15.907 -1.1250  0.9390 -0.7192
 8710TIP3   OH247620   6.243   4.828   0.476  0.4130 -0.4887  0.0673
 8710TIP3    H147621   6.299   4.898   0.509  0.0652 -0.7887  1.3161
 8710TIP3    H247622   6.153   4.859   0.491  0.2508 -1.4970  1.3215
 8711TIP3   OH247623   2.841   0.658   3.480  0.2800 -0.2624 -0.4282
 8711TIP3    H147624   2.930   0.668   3.512  0.1333  1.0174 -0.4021
 8711TIP3    H247625   2.832   0.724   3.411 -0.8113 -0.0277 -0.0725
 8712TIP3   OH247626   5.683   2.512   4.070  0.2298  0.0377  0.3882
 8712TIP3    H147627   5.762   2.499   4.121  0.8673 -0.0536 -0.6195
 8712TIP3    H247628   5.615   2.531   4.135  1.2064  0.7370  1.2004
 8713TIP3   OH247629   6.379   0.160  14.271 -0.1037  0.0272  0.0108
 8713TIP3    H147630   6.287   0.188  14.270  0.3282  1.5149 -0.1781
 8713TIP3    H247631   6.427   0.237  14.240  1.2858 -0.4207  1.0058
 8714TIP3   OH247632   3.908   6.458  14.705  0.7325 -0.2635 -0.7805
 8714TIP3    H147633   3.866   6.372  14.704 -0.1270  0.1260  0.2699
 8714TIP3    H247634   3.838   6.519  14.685  1.3564  0.1902 -1.5851
 8715TIP3   OH247635   6.078   3.686  16.832  0.3373  0.0095 -0.1182
 8715TIP3    H147636   6.062   3.641  16.915 -1.3303 -1.8569 -1.4221
 8715TIP3    H247637   6.085   3.779  16.857  1.8991 -0.7166  2.3399
 8716TIP3   OH247638   3.794   4.839   5.217 -0.6674 -0.0185  0.2094
 8716TIP3    H147639   3.813   4.746   5.232  1.3056 -0.0299 -2.0845
 8716TIP3    H247640   3.857   4.885   5.272 -2.1746 -0.0325  1.9533
 8717TIP3   OH247641   3.429   1.988  11.078  0.1198 -0.5034  0.3100
 8717TIP3    H147642   3.467   2.066  11.037 -1.1453 -0.4975 -0.8771
 8717TIP3    H247643   3.335   1.997  11.063 -0.2850 -0.9134  2.5395
 8718TIP3   OH247644   2.738   1.871   4.172 -0.0027  0.3303  0.8108
 8718TIP3    H147645   2.658   1.828   4.204  1.1286 -0.6489  2.4055
 8718TIP3    H247646   2.794   1.799   4.142  0.9248  0.8842  1.1858
 8719TIP3   OH247647   4.559   6.408  11.656  0.4725  0.2906 -0.3632
 8719TIP3    H147648   4.651   6.384  11.669  0.2911  0.4978  1.4877
 8719TIP3    H247649   4.544   6.481  11.717 -1.2906 -0.7203  0.4680
 8720TIP3   OH247650   0.005   4.553  15.831 -0.9207  0.2187  0.4439
 8720TIP3    H147651  -0.013   4.483  15.893 -2.6549 -1.5346 -1.9274
 8720TIP3    H247652  -0.050   4.626  15.860 -0.3482  0.0435  1.9903
 8721TIP3   OH247653   0.504   4.801  15.989  0.2844  0.4404  0.1164
 8721TIP3    H147654   0.419   4.828  15.953  0.9654 -0.5006 -2.3134
 8721TIP3    H247655   0.509   4.707  15.968  1.6757  0.3696  0.7288
 8722TIP3   OH247656   3.912   1.398   2.241 -0.8205 -0.0056 -0.3194
 8722TIP3    H147657   3.967   1.458   2.290 -0.4217 -1.0747  0.5654
 8722TIP3    H247658   3.824   1.413   2.275 -0.5079 -0.9222  0.9193
 8723TIP3   OH247659   3.955   1.835  14.504 -0.0049 -0.5936 -0.1496
 8723TIP3    H147660   4.038   1.802  14.539  0.1616  0.2222  0.2313
 8723TIP3    H247661   3.923   1.895  14.571 -0.0831  0.3619 -1.0247
 8724TIP3   OH247662   3.666   1.797  17.119 -0.2525  0.6143 -0.5528
 8724TIP3    H147663   3.728   1.782  17.047 -0.3224  0.9223 -0.6800
 8724TIP3    H247664   3.669   1.717  17.171  0.9932  1.0070 -0.0033
 8725TIP3   OH247665   6.139   4.525  13.590 -0.2298 -0.0425 -0.3912
 8725TIP3    H147666   6.091   4.442  13.589 -1.1005  0.4573 -2.0190
 8725TIP3    H247667   6.082   4.586  13.543  0.5339  1.4142  0.5381
 8726TIP3   OH247668   2.073   3.096  13.726 -0.2373 -0.5959 -0.0995
 8726TIP3    H147669   2.007   3.071  13.661 -0.0383 -1.0634 -0.1288
 8726TIP3    H247670   2.055   3.038  13.800  1.5816 -2.3447 -0.9776
 8727TIP3   OH247671   5.210   5.099   4.184  0.2204  0.0872  0.2263
 8727TIP3    H147672   5.244   5.051   4.108 -2.2904 -1.2107 -0.1224
 8727TIP3    H247673   5.203   5.032   4.253  2.3417  1.2252  1.5934
 8728TIP3   OH247674   4.031   1.065  12.878  0.5563 -0.5052 -0.3095
 8728TIP3    H147675   4.010   1.145  12.927  0.3031 -1.2983  0.9095
 8728TIP3    H247676   4.127   1.059  12.883  0.7133  0.5549 -1.7631
 8729TIP3   OH247677   3.313   4.665   2.291 -0.1465 -0.3554  0.1692
 8729TIP3    H147678   3.222   4.642   2.274 -0.1637  0.2540 -0.5986
 8729TIP3    H247679   3.337   4.613   2.369 -1.0000 -0.8623  0.1023
 8730TIP3   OH247680   3.065   0.772   3.725 -0.4359  0.0797  0.0785
 8730TIP3    H147681   3.019   0.855   3.739 -0.7910 -0.2278  0.7441
 8730TIP3    H247682   3.147   0.782   3.774 -1.3011 -0.6698  1.7020
 8731TIP3   OH247683   4.986   3.847  15.639  0.3294 -0.0497  0.3643
 8731TIP3    H147684   5.033   3.764  15.642 -1.0916 -0.8758  0.5272
 8731TIP3    H247685   4.987   3.879  15.729 -0.1262 -0.4834  0.5283
 8732TIP3   OH247686   4.299   6.442   3.128  0.4249  0.4453  0.5692
 8732TIP3    H147687   4.339   6.421   3.212 -1.5215 -0.7747  1.2231
 8732TIP3    H247688   4.216   6.393   3.127  0.5158  0.2387 -2.1442
 8733TIP3   OH247689   1.414   3.994   6.295 -0.8874  0.2054 -0.0572
 8733TIP3    H147690   1.468   3.916   6.286 -1.4275 -0.3330  1.3201
 8733TIP3    H247691   1.365   3.999   6.213  0.4279  0.0812 -0.8641
 8734TIP3   OH247692   3.568   2.058  16.550  0.5225  0.1486  0.3889
 8734TIP3    H147693   3.571   2.066  16.455  0.2206  1.0180  0.4464
 8734TIP3    H247694   3.588   2.146  16.582  0.8754 -0.1984  1.1322
 8735TIP3   OH247695   3.347   5.137   3.188  0.6483  0.0493  0.0998
 8735TIP3    H147696   3.351   5.052   3.232 -1.5050 -0.7177 -1.0938
 8735TIP3    H247697   3.336   5.115   3.096  0.4688  1.6220 -0.2553
 8736TIP3   OH247698   4.149   2.104   1.949  0.0972  0.2775 -0.0759
 8736TIP3    H147699   4.194   2.060   2.020 -1.0527 -2.8022 -1.1704
 8736TIP3    H247700   4.078   2.152   1.992  1.3803  1.1179  1.1418
 8737TIP3   OH247701   1.247   6.632   1.826 -0.5319 -0.3159  0.2567
 8737TIP3    H147702   1.272   6.675   1.745 -0.3090  0.4045  0.6988
 8737TIP3    H247703   1.151   6.627   1.822 -0.4351 -1.6923 -0.7417
 8738TIP3   OH247704   6.130   4.077  17.180 -0.2065  0.2891  0.5663
 8738TIP3    H147705   6.140   4.121  17.264  1.0952  0.6964  0.2128
 8738TIP3    H247706   6.158   3.987  17.197 -1.1885  0.0260  0.8656
 8739TIP3   OH247707   3.596   3.312  13.820  0.2494 -0.0094  0.3946
 8739TIP3    H147708   3.672   3.362  13.850  0.4195 -0.4749  0.7519
 8739TIP3    H247709   3.610   3.303  13.725  0.4124  0.2891  0.3886
 8740TIP3   OH247710   1.769   2.301  14.392 -0.5664 -0.2468  0.2920
 8740TIP3    H147711   1.850   2.348  14.373 -1.8011  1.4742 -0.9897
 8740TIP3    H247712   1.777   2.219  14.343  0.2203  0.1215 -0.2125
 8741TIP3   OH247713   6.123   2.749  16.116 -0.0698  0.5629 -0.3006
 8741TIP3    H147714   6.204   2.724  16.072 -0.2746  0.2262 -0.4948
 8741TIP3    H247715   6.124   2.844  16.118 -0.0604  0.5814 -1.0425
 8742TIP3   OH247716   1.878   5.950   4.494 -0.1213  0.1327 -0.6735
 8742TIP3    H147717   1.926   5.924   4.415  0.1210 -0.1399 -0.4373
 8742TIP3    H247718   1.861   5.868   4.540 -0.1467  0.3048 -0.3771
 8743TIP3   OH247719   2.053   4.722  16.655 -0.1445 -0.0140  0.2844
 8743TIP3    H147720   1.972   4.753  16.613  0.6461  1.9619  0.1491
 8743TIP3    H247721   2.103   4.682  16.584 -0.5359 -0.2769  0.1566
 8744TIP3   OH247722   5.341   6.542   1.879  0.3351  0.0716  0.7450
 8744TIP3    H147723   5.413   6.479   1.868 -0.3307 -0.6786  0.5927
 8744TIP3    H247724   5.307   6.524   1.966  1.2486  1.4091  1.3960
 8745TIP3   OH247725   1.941   0.621  13.104  0.5482 -0.6712  0.1488
 8745TIP3    H147726   1.914   0.597  13.192 -0.1884 -2.0291 -0.4363
 8745TIP3    H247727   2.036   0.623  13.108  0.5037 -0.1041  1.1274
 8746TIP3   OH247728   2.017   5.052   1.099 -0.6470  0.2288 -0.0586
 8746TIP3    H147729   1.957   5.002   1.154  0.9187 -0.9636  0.6161
 8746TIP3    H247730   2.104   5.022   1.125  0.2714  2.3000 -0.6537
 8747TIP3   OH247731   2.647   5.799  16.762 -0.2994 -0.2052 -0.2835
 8747TIP3    H147732   2.663   5.772  16.672  0.2820 -1.3430  0.1520
 8747TIP3    H247733   2.570   5.750  16.789  0.9580 -1.7221  0.6185
 8748TIP3   OH247734   4.750   3.592  15.086 -1.1280 -0.3601 -0.0790
 8748TIP3    H147735   4.774   3.684  15.098 -1.5260 -0.4040  1.1297
 8748TIP3    H247736   4.787   3.569  15.001  1.1818  0.2054  0.7280
 8749TIP3   OH247737   5.378   0.852  13.642  0.6852  0.2201  0.2427
 8749TIP3    H147738   5.405   0.942  13.658 -0.4794  0.4454  0.9836
 8749TIP3    H247739   5.363   0.848  13.548  0.3332  0.9170  0.2660
 8750TIP3   OH247740   6.524   4.112  16.163  0.3816 -0.2508 -0.1013
 8750TIP3    H147741   6.549   4.080  16.249  1.6872 -1.6388 -0.9619
 8750TIP3    H247742   6.467   4.187  16.180 -1.2327 -1.8918  1.9739
 8751TIP3   OH247743   6.008   5.406   1.740 -0.1327 -0.1322 -0.0538
 8751TIP3    H147744   5.986   5.495   1.767  0.8354 -0.5024  2.0602
 8751TIP3    H247745   6.102   5.409   1.722  0.4047 -1.2060  2.2782
 8752TIP3   OH247746   6.326   6.318  16.496  0.1408 -0.1487 -0.4112
 8752TIP3    H147747   6.306   6.369  16.418  1.8966 -0.3422 -1.0226
 8752TIP3    H247748   6.285   6.365  16.567  1.7610  2.1835 -0.9603
 8753TIP3   OH247749   2.586   5.187   2.536  0.3431 -0.7094 -0.6390
 8753TIP3    H147750   2.676   5.182   2.570  0.4738 -0.2272 -0.9151
 8753TIP3    H247751   2.570   5.280   2.525  0.3363 -0.8625 -2.0021
 8754TIP3   OH247752   5.981   2.542   5.034 -0.4068 -0.0003 -0.4757
 8754TIP3    H147753   6.017   2.526   4.947 -1.4900  0.1822 -0.9734
 8754TIP3    H247754   6.052   2.584   5.082  0.8349 -1.8469 -0.6601
 8755TIP3   OH247755   5.816   2.819  10.771  0.2791 -0.4085  0.6669
 8755TIP3    H147756   5.801   2.900  10.722 -0.3252  0.0883  1.6431
 8755TIP3    H247757   5.860   2.761  10.709 -0.8167  0.0637 -0.5649
 8756TIP3   OH247758   4.211   1.433   0.058  0.2259 -1.0045 -0.0947
 8756TIP3    H147759   4.175   1.494  -0.007  0.6051 -1.2448 -0.5283
 8756TIP3    H247760   4.171   1.461   0.141  1.0164  0.3549 -0.1530
 8757TIP3   OH247761   3.968   6.064   3.941 -0.3602  0.3876  0.1225
 8757TIP3    H147762   4.056   6.027   3.949 -0.3038  0.3379 -0.7011
 8757TIP3    H247763   3.910   5.987   3.939 -0.2204  0.3062 -1.8934
 8758TIP3   OH247764   4.547   3.081  16.697  0.1871  0.7059  0.1324
 8758TIP3    H147765   4.525   3.076  16.604 -1.2870 -0.4615  0.5194
 8758TIP3    H247766   4.525   2.994  16.731 -1.4012  1.8228  2.0198
 8759TIP3   OH247767   2.677   3.666   0.722  0.1409 -0.3897  0.1973
 8759TIP3    H147768   2.605   3.681   0.661  0.1597 -0.1917  0.2240
 8759TIP3    H247769   2.729   3.597   0.681 -0.3766 -0.9351  0.4472
 8760TIP3   OH247770   3.148   4.541   5.336 -0.5301  0.6832  0.1715
 8760TIP3    H147771   3.170   4.609   5.272 -0.2535  1.3523  0.9818
 8760TIP3    H247772   3.083   4.486   5.291 -0.8799  1.5763 -0.4234
 8761TIP3   OH247773   2.089   1.926  16.126  0.6481 -0.1598  0.3901
 8761TIP3    H147774   2.119   1.991  16.189  2.3081 -0.1686 -0.3849
 8761TIP3    H247775   2.016   1.882  16.171 -0.9129  2.5890  0.7207
 8762TIP3   OH247776   5.081   2.360  13.684  0.2886 -0.4154  1.0686
 8762TIP3    H147777   5.069   2.409  13.603  0.6540  1.3148  2.0243
 8762TIP3    H247778   5.000   2.311  13.695 -0.5975  0.9454  0.7108
 8763TIP3   OH247779   2.972   3.184  15.561 -0.0683  0.3484 -0.3462
 8763TIP3    H147780   2.938   3.273  15.549  0.6931  0.9302  1.6460
 8763TIP3    H247781   3.066   3.195  15.570  0.2223 -0.8529 -1.7731
 8764TIP3   OH247782   3.165   0.138  11.758 -0.2123 -0.3208 -0.4404
 8764TIP3    H147783   3.225   0.096  11.697  2.1773  1.6277  0.4834
 8764TIP3    H247784   3.205   0.124  11.844 -2.2098 -0.8251  0.4247
 8765TIP3   OH247785   4.191   4.430  12.008  0.6114 -0.3849  0.3110
 8765TIP3    H147786   4.143   4.349  12.018  0.2700 -0.4671 -1.7573
 8765TIP3    H247787   4.124   4.499  12.011  1.0863  0.0034  3.9234
 8766TIP3   OH247788   3.233   4.988   5.690  0.5045 -0.3206  0.7114
 8766TIP3    H147789   3.300   4.930   5.724 -0.2214 -1.3057  0.4965
 8766TIP3    H247790   3.192   4.938   5.619  1.4667  1.3738 -1.1086
 8767TIP3   OH247791   2.146   6.788  13.178 -0.8111 -0.0999 -0.3481
 8767TIP3    H147792   2.203   6.794  13.255 -0.6680  1.2813 -0.5374
 8767TIP3    H247793   2.186   6.848  13.114 -0.8296 -1.3633 -1.5621
 8768TIP3   OH247794   1.093   1.575   2.423 -0.1121  0.0924  0.1006
 8768TIP3    H147795   1.007   1.548   2.390 -0.4574  0.1758  0.9150
 8768TIP3    H247796   1.156   1.528   2.369 -0.6777 -0.2032 -0.2997
 8769TIP3   OH247797   4.863   0.941   6.451  0.5334 -0.1247 -0.3085
 8769TIP3    H147798   4.864   1.037   6.460 -1.2863 -0.1112  0.0178
 8769TIP3    H247799   4.955   0.916   6.446  1.0121  1.6852 -0.7648
 8770TIP3   OH247800   0.712   1.651  13.317  0.3210 -0.4927 -0.6430
 8770TIP3    H147801   0.629   1.645  13.365  0.1790  1.2182 -0.6667
 8770TIP3    H247802   0.749   1.563  13.325  0.0070 -0.4454  2.0773
 8771TIP3   OH247803   6.562   6.384   6.874  0.0520 -0.1291  0.2641
 8771TIP3    H147804   6.482   6.421   6.835 -2.2101 -0.8714  3.9729
 8771TIP3    H247805   6.571   6.298   6.831  0.2118  0.8873 -1.8232
 8772TIP3   OH247806   4.809   0.354   3.497 -0.1228 -0.6448  0.1672
 8772TIP3    H147807   4.811   0.434   3.550 -0.6775 -0.9713  0.6868
 8772TIP3    H247808   4.759   0.378   3.419 -1.4951 -0.8640  0.9624
 8773TIP3   OH247809   2.647   0.916  10.771  0.2229  0.1406  0.2648
 8773TIP3    H147810   2.649   0.995  10.717 -1.7031  0.5871  0.7858
 8773TIP3    H247811   2.594   0.940  10.847  1.1580 -1.1074  1.3368
 8774TIP3   OH247812   1.886   3.952   0.814 -0.0527 -0.3735 -0.1686
 8774TIP3    H147813   1.804   3.916   0.848 -0.0405  1.1409  1.5385
 8774TIP3    H247814   1.954   3.894   0.849 -0.1725  0.2003  1.0519
 8775TIP3   OH247815   6.368   3.163   4.303  0.3915  0.0848 -0.3031
 8775TIP3    H147816   6.445   3.191   4.353  0.0090  1.6837 -0.5706
 8775TIP3    H247817   6.312   3.240   4.302 -1.1449 -1.0161 -0.2599
 8776TIP3   OH247818   4.162   3.702   5.835 -0.0377  0.1118  0.2900
 8776TIP3    H147819   4.137   3.664   5.751  1.0942  4.0991 -1.9631
 8776TIP3    H247820   4.079   3.715   5.881 -0.9115  0.3757 -1.3175
 8777TIP3   OH247821   0.620   1.454  16.312 -0.2580  0.2492 -0.1796
 8777TIP3    H147822   0.642   1.546  16.300  1.0081  0.5669  3.7830
 8777TIP3    H247823   0.590   1.449  16.403 -2.7797 -2.8313 -1.0854
 8778TIP3   OH247824   5.404   6.083  15.216 -0.1640  0.1517 -0.1754
 8778TIP3    H147825   5.417   6.046  15.129 -1.4466  0.6810 -0.6078
 8778TIP3    H247826   5.309   6.090  15.225 -0.0720 -0.5970  1.5684
 8779TIP3   OH247827   0.747   6.439   4.618  0.0253 -0.8497  0.7068
 8779TIP3    H147828   0.716   6.523   4.650 -1.0766 -1.6110  1.6593
 8779TIP3    H247829   0.668   6.387   4.604  0.5502 -1.0165 -1.9648
 8780TIP3   OH247830   1.002   2.684  14.856  0.2027  0.0986 -0.7220
 8780TIP3    H147831   0.953   2.704  14.777  0.1037  1.9891 -0.2116
 8780TIP3    H247832   1.089   2.660  14.825 -0.1369 -0.1711 -1.4616
 8781TIP3   OH247833   2.035   5.982  13.836 -0.0570  0.6131 -0.5749
 8781TIP3    H147834   1.946   5.967  13.804 -0.3068  0.0550  0.3667
 8781TIP3    H247835   2.054   6.073  13.815 -1.3837  1.1466  0.5246
 8782TIP3   OH247836   3.787   0.050   5.715  0.1548 -0.6416  0.0981
 8782TIP3    H147837   3.761   0.099   5.637  0.3003 -2.0641 -0.8858
 8782TIP3    H247838   3.882   0.061   5.719  0.1006 -0.2676  0.2665
 8783TIP3   OH247839   2.738   4.100  16.666 -0.0251  0.1180 -0.5030
 8783TIP3    H147840   2.823   4.085  16.707 -0.4042  0.7748  0.5687
 8783TIP3    H247841   2.686   4.023  16.690  0.0780  0.0116 -0.6234
 8784TIP3   OH247842   1.158   1.411  12.666 -0.1360  0.0266 -0.4418
 8784TIP3    H147843   1.091   1.466  12.708  1.3043  1.2962  0.2372
 8784TIP3    H247844   1.218   1.474  12.625  2.9637 -0.9244  2.4902
 8785TIP3   OH247845   6.531   5.138  14.821 -0.1722 -0.2054  0.4319
 8785TIP3    H147846   6.441   5.114  14.801  0.2271 -1.2437 -0.1573
 8785TIP3    H247847   6.532   5.152  14.915 -0.4558 -2.4368  0.7938
 8786TIP3   OH247848   3.323   6.440   1.639  0.9593  0.1697 -0.6616
 8786TIP3    H147849   3.294   6.486   1.718  1.6743  1.1301 -0.9413
 8786TIP3    H247850   3.244   6.398   1.605  0.0736  2.0367 -0.9503
 8787TIP3   OH247851   4.439   1.070   5.270  0.2734 -0.2306  0.6669
 8787TIP3    H147852   4.430   0.987   5.316 -0.5189 -0.8823 -0.6645
 8787TIP3    H247853   4.358   1.080   5.221  0.1641  1.5594  1.1744
 8788TIP3   OH247854   5.667   3.663  11.802 -0.5983  0.4058 -0.0789
 8788TIP3    H147855   5.686   3.574  11.833  1.7896  0.5566 -0.9754
 8788TIP3    H247856   5.607   3.651  11.729 -0.0703 -0.5189 -0.3743
 8789TIP3   OH247857   6.480   5.073   0.436 -0.2500  0.5853 -0.0922
 8789TIP3    H147858   6.555   5.124   0.468 -0.0805 -0.8354  1.8838
 8789TIP3    H247859   6.518   5.015   0.370  0.0339  1.2132 -0.4860
 8790TIP3   OH247860   0.063   6.289   5.474  0.6566  0.8103  0.8480
 8790TIP3    H147861   0.147   6.331   5.456  0.9342  0.2445  0.8072
 8790TIP3    H247862   0.085   6.217   5.534  0.3015  0.2232  0.2771
 8791TIP3   OH247863   2.961   1.131  11.519 -0.5141 -0.2486 -0.0492
 8791TIP3    H147864   3.010   1.080  11.583 -0.1336  0.7991  0.5044
 8791TIP3    H247865   2.903   1.067  11.477 -0.9016 -0.9205  1.4565
 8792TIP3   OH247866   0.771   2.117   4.535 -0.5282 -0.2171  0.9845
 8792TIP3    H147867   0.749   2.154   4.449  0.3041  1.7130  1.5899
 8792TIP3    H247868   0.716   2.039   4.542  0.0575 -0.9155 -1.6880
 8793TIP3   OH247869   5.261   4.022  13.720 -0.1245 -0.3121  0.1273
 8793TIP3    H147870   5.268   3.963  13.795  1.7114  0.8192  0.8533
 8793TIP3    H247871   5.322   4.093  13.739 -0.9003  0.8560 -1.6438
 8794TIP3   OH247872   2.915   5.322  14.794  0.0569  0.2955  0.0212
 8794TIP3    H147873   2.824   5.342  14.773  0.0001 -0.7123 -0.7039
 8794TIP3    H247874   2.917   5.318  14.890 -0.9377 -0.9100  0.0104
 8795TIP3   OH247875   1.028   2.845   4.095  0.3120 -0.0657  0.1030
 8795TIP3    H147876   1.053   2.853   4.003 -0.8280 -0.8003 -0.2670
 8795TIP3    H247877   1.076   2.769   4.126  1.2001  0.5596  0.2994
 8796TIP3   OH247878   2.183   4.880   2.139  0.0291  0.3533  0.2547
 8796TIP3    H147879   2.182   4.856   2.232  0.6905 -0.3830  0.0770
 8796TIP3    H247880   2.258   4.938   2.130 -0.2575  0.7305  0.2443
 8797TIP3   OH247881   1.129   2.089  15.051 -0.2477 -1.0903 -0.4101
 8797TIP3    H147882   1.180   2.048  15.120  0.2823  1.7894  0.9778
 8797TIP3    H247883   1.039   2.063  15.069 -0.2735  0.5109  2.1061
 8798TIP3   OH247884   3.520   2.710  11.801  0.0331  0.5230 -0.7391
 8798TIP3    H147885   3.441   2.695  11.852  0.9702 -0.3577  0.5013
 8798TIP3    H247886   3.490   2.749  11.719 -1.5487  1.3915  0.2431
 8799TIP3   OH247887   3.485   6.794   0.191  0.4966  0.3982 -0.0927
 8799TIP3    H147888   3.422   6.726   0.167  0.3918 -0.3104  2.1530
 8799TIP3    H247889   3.433   6.874   0.194 -0.1499 -0.0600  1.0346
 8800TIP3   OH247890   4.234   3.465   5.169 -0.3486 -0.0510  0.9551
 8800TIP3    H147891   4.217   3.527   5.098  0.8198  0.2524  0.9398
 8800TIP3    H247892   4.218   3.379   5.130  0.6254  0.0952  0.2203
 8801TIP3   OH247893   1.522   6.449   3.465 -0.1195  0.6480 -0.1562
 8801TIP3    H147894   1.511   6.442   3.371 -2.1399 -0.4985  0.1344
 8801TIP3    H247895   1.512   6.359   3.497 -2.7249  1.4674  1.4483
 8802TIP3   OH247896   1.653   0.943  14.986  0.0710  0.5927 -0.0667
 8802TIP3    H147897   1.719   0.940  14.917  0.9000 -1.6085  0.7736
 8802TIP3    H247898   1.675   0.870  15.044 -2.5836  0.3551  0.7162
 8803TIP3   OH247899   1.873   2.024  13.023 -0.7490  0.3328  0.4956
 8803TIP3    H147900   1.860   2.119  13.026  1.2670  0.6635 -0.5427
 8803TIP3    H247901   1.800   1.991  12.971 -1.2864  1.3449  0.6033
 8804TIP3   OH247902   4.944   1.412   3.059  0.5586 -0.2118 -0.0716
 8804TIP3    H147903   4.946   1.317   3.057 -0.7871 -0.2430 -0.4830
 8804TIP3    H247904   4.954   1.438   2.967 -1.1705 -0.0142 -0.2091
 8805TIP3   OH247905   0.293   0.336   5.968 -0.2655 -0.2027 -0.5137
 8805TIP3    H147906   0.384   0.329   5.939 -0.8556  1.7378 -3.0099
 8805TIP3    H247907   0.267   0.425   5.943 -3.2205 -1.1565 -1.0146
 8806TIP3   OH247908   2.238   4.758  12.038 -0.0169 -0.2321 -0.1208
 8806TIP3    H147909   2.235   4.766  12.134 -1.1974  2.4060 -0.3356
 8806TIP3    H247910   2.147   4.745  12.012  0.0079  1.4115 -1.0536
 8807TIP3   OH247911   1.984   3.955   0.529 -0.1748  0.1485 -0.4152
 8807TIP3    H147912   1.948   3.949   0.618  0.6146 -1.7578 -0.2053
 8807TIP3    H247913   1.918   3.913   0.474 -0.4959  1.0044 -0.6883
 8808TIP3   OH247914   2.221   4.055   0.476 -0.7850 -0.3879 -0.1353
 8808TIP3    H147915   2.141   4.019   0.515  0.0934 -2.0968  0.1535
 8808TIP3    H247916   2.192   4.130   0.425 -2.1145  1.3329  3.0088
 8809TIP3   OH247917   3.597   4.315  12.513  0.2367  0.3568  0.3717
 8809TIP3    H147918   3.625   4.233  12.554 -2.1797 -0.1099  1.1670
 8809TIP3    H247919   3.503   4.318  12.527 -0.0345  2.2389 -1.5477
 8810TIP3   OH247920   6.471   3.447  12.647 -0.2344 -0.8465 -0.0681
 8810TIP3    H147921   6.557   3.435  12.688  0.3468 -1.3894 -1.4012
 8810TIP3    H247922   6.424   3.505  12.706  1.5067  0.4663  0.0745
 8811TIP3   OH247923   2.722   1.035   0.617  0.1935 -0.3406 -0.1698
 8811TIP3    H147924   2.715   0.995   0.703 -0.8263  1.3363  0.5608
 8811TIP3    H247925   2.632   1.057   0.593  0.5944  0.3157 -1.1229
 8812TIP3   OH247926   0.933   5.980  14.291  0.2311 -0.4420  0.0121
 8812TIP3    H147927   0.925   5.988  14.196 -0.9020  1.5184  0.2329
 8812TIP3    H247928   1.019   5.941  14.305  0.4786 -0.6093 -1.8098
 8813TIP3   OH247929   2.281   6.529  10.420  0.2897 -0.0806  0.6980
 8813TIP3    H147930   2.305   6.596  10.485 -1.0842  2.2297 -1.0998
 8813TIP3    H247931   2.189   6.511  10.438  0.2806 -0.4489  0.2771
 8814TIP3   OH247932   0.057   5.121  11.652 -1.1469  0.7973 -0.0608
 8814TIP3    H147933   0.051   5.212  11.622 -4.4283  0.4269 -0.7463
 8814TIP3    H247934  -0.002   5.116  11.727  2.2739  0.1991  2.7335
 8815TIP3   OH247935   3.221   0.555   0.416 -0.1863  0.1341  0.5366
 8815TIP3    H147936   3.289   0.514   0.363  0.6879  2.1822  0.0116
 8815TIP3    H247937   3.247   0.537   0.507  1.0942  0.9058  0.3417
 8816TIP3   OH247938   2.253   3.788  14.640 -0.1208 -0.0238 -0.3393
 8816TIP3    H147939   2.257   3.813  14.733 -0.4711 -0.0633 -0.3144
 8816TIP3    H247940   2.318   3.845  14.598 -0.1865  0.2184 -0.1203
 8817TIP3   OH247941   4.106   4.906   1.971  0.3868 -0.1367  0.3435
 8817TIP3    H147942   4.168   4.864   1.911  1.2989  0.6339  0.7461
 8817TIP3    H247943   4.144   4.894   2.058 -0.0325  0.3216  0.5915
 8818TIP3   OH247944   6.473   2.926   3.323 -0.1284  0.0582  0.3367
 8818TIP3    H147945   6.527   2.848   3.334  0.4649  0.5330  0.8342
 8818TIP3    H247946   6.535   2.999   3.326 -0.4247  0.4483 -2.2210
 8819TIP3   OH247947   4.953   2.027  15.955  0.2078 -0.1229  0.0382
 8819TIP3    H147948   4.995   2.097  15.905  1.9438 -1.9611 -1.1935
 8819TIP3    H247949   5.013   2.011  16.028  0.3320 -0.9415 -0.2305
 8820TIP3   OH247950   5.060   4.743   4.079  0.4772 -0.3583  0.5650
 8820TIP3    H147951   5.086   4.677   4.144 -0.5153 -1.5765 -0.2439
 8820TIP3    H247952   5.139   4.756   4.026  0.3003 -1.9192 -0.1066
 8821TIP3   OH247953   3.794   0.908   1.803  0.0546  0.3272  0.2438
 8821TIP3    H147954   3.853   0.839   1.834 -0.2835 -0.1259 -0.1017
 8821TIP3    H247955   3.729   0.861   1.751  1.3074  1.2376 -2.1816
 8822TIP3   OH247956   5.513   2.535  12.250 -0.3293  0.1439 -0.1887
 8822TIP3    H147957   5.596   2.498  12.218  0.2560  2.4121 -1.4543
 8822TIP3    H247958   5.537   2.620  12.286 -1.8854  0.0931  1.0249
 8823TIP3   OH247959   6.419   0.422  15.636 -0.3022 -0.6764  0.2215
 8823TIP3    H147960   6.364   0.480  15.689 -1.5773 -0.8188 -0.9193
 8823TIP3    H247961   6.393   0.440  15.546 -1.3485 -3.6310 -0.1157
 8824TIP3   OH247962   1.389   4.314  13.023  0.0627 -0.4965  0.0995
 8824TIP3    H147963   1.307   4.266  13.039  0.3753 -1.1157 -0.1443
 8824TIP3    H247964   1.368   4.375  12.952 -0.5685  0.3332  0.9769
 8825TIP3   OH247965   6.715   4.465   4.780 -0.0661 -0.2614  0.6170
 8825TIP3    H147966   6.674   4.451   4.695 -2.1030 -1.5897  1.7998
 8825TIP3    H247967   6.719   4.560   4.790  1.2373 -0.0831 -1.4460
 8826TIP3   OH247968   2.895   1.993   5.071 -0.0455  0.5875  0.3591
 8826TIP3    H147969   2.832   1.989   4.999  1.7610 -0.6581 -1.1973
 8826TIP3    H247970   2.971   2.039   5.035  2.0702 -2.6156  0.4361
 8827TIP3   OH247971   6.803   6.440  13.134 -0.0944  0.1435 -0.0173
 8827TIP3    H147972   6.723   6.478  13.099  0.3337  0.6733 -0.4374
 8827TIP3    H247973   6.860   6.429  13.057  0.4381  0.2944  0.3524
 8828TIP3   OH247974   1.641   6.262  16.547 -0.4101 -0.0123  0.2251
 8828TIP3    H147975   1.695   6.247  16.470 -0.6787 -3.0691  0.5746
 8828TIP3    H247976   1.551   6.251  16.517 -0.4142 -3.9775  1.4644
 8829TIP3   OH247977   6.497   4.318  15.483 -0.0292 -0.0893  0.3976
 8829TIP3    H147978   6.464   4.283  15.401 -0.5909 -0.0915  0.6235
 8829TIP3    H247979   6.426   4.372  15.517  0.0636 -0.3725  1.0530
 8830TIP3   OH247980   2.316   1.766  12.496  0.0724 -0.6495  0.4713
 8830TIP3    H147981   2.296   1.813  12.577  1.0165  0.2250  0.2156
 8830TIP3    H247982   2.282   1.678  12.510 -1.1887 -0.0656  1.1979
 8831TIP3   OH247983   4.293   5.225  11.320 -0.3722 -1.0513 -0.1505
 8831TIP3    H147984   4.365   5.271  11.363 -0.1528 -0.0299 -1.6078
 8831TIP3    H247985   4.245   5.183  11.392 -1.1124  2.1522  1.2978
 8832TIP3   OH247986   1.680   0.840   5.323  0.3099  0.2191  0.1911
 8832TIP3    H147987   1.648   0.873   5.239 -0.6582  0.3728  0.6149
 8832TIP3    H247988   1.692   0.918   5.377 -0.3860  0.0245  0.6399
 8833TIP3   OH247989   3.751   4.439  13.541 -0.1366 -0.6262  0.4321
 8833TIP3    H147990   3.817   4.444  13.611  1.9954 -1.4089 -1.4502
 8833TIP3    H247991   3.729   4.346  13.536 -0.7363 -0.4856  0.4773
 8834TIP3   OH247992   1.931   0.520  16.581 -0.2086 -0.0821 -0.5738
 8834TIP3    H147993   1.956   0.527  16.673 -1.4222  0.0598 -0.2423
 8834TIP3    H247994   1.841   0.487  16.582 -1.0033  1.9221 -1.6226
 8835TIP3   OH247995   5.740   4.183   3.723  0.5842  0.0284  0.1050
 8835TIP3    H147996   5.803   4.111   3.731  0.2939 -0.2123  0.2432
 8835TIP3    H247997   5.672   4.149   3.665 -0.2243 -0.2895  1.2190
 8836TIP3   OH247998   6.063   5.407  17.202 -0.1851 -0.0650 -0.2362
 8836TIP3    H147999   6.107   5.378  17.282  1.1521  1.0794 -0.5436
 8836TIP3    H248000   6.016   5.487  17.228 -0.8686 -0.4422 -0.2806
 8837TIP3   OH248001   1.141   2.092  14.253 -0.4570  0.5757 -0.4314
 8837TIP3    H148002   1.072   2.086  14.319 -0.6251 -1.4627 -0.7327
 8837TIP3    H248003   1.206   2.027  14.280 -1.0435 -1.0753 -2.7754
 8838TIP3   OH248004   2.878   5.785   0.591  0.2755 -0.3570 -0.1439
 8838TIP3    H148005   2.833   5.828   0.664  0.0810 -1.6497  0.5128
 8838TIP3    H248006   2.815   5.722   0.558  1.0568 -1.1357 -0.1766
 8839TIP3   OH248007   6.807   0.599  14.265 -0.6347  0.4915  0.3233
 8839TIP3    H148008   6.886   0.550  14.290 -1.5056 -0.4502  1.2750
 8839TIP3    H248009   6.806   0.674  14.325 -0.3728  0.5946  0.1989
 8840TIP3   OH248010   5.586   6.456  13.914 -0.2395  0.0083 -0.0744
 8840TIP3    H148011   5.587   6.548  13.888 -0.7243 -0.5510 -2.1395
 8840TIP3    H248012   5.494   6.429  13.904 -0.3730 -0.3317  1.8991
 8841TIP3   OH248013   5.422   6.748   4.205 -0.5405 -0.5425  0.2418
 8841TIP3    H148014   5.358   6.677   4.199 -2.0720  0.7838  0.7371
 8841TIP3    H248015   5.370   6.828   4.214  1.1924  0.4315  2.1170
 8842TIP3   OH248016   1.888   1.736   1.963 -0.4691  0.5643  0.3273
 8842TIP3    H148017   1.924   1.719   2.051  1.1138 -0.2098 -0.4389
 8842TIP3    H248018   1.814   1.794   1.978 -0.7945 -0.2964  2.2752
 8843TIP3   OH248019   2.735   1.201  14.324 -0.0278  0.5302  0.1068
 8843TIP3    H148020   2.707   1.110  14.322 -0.2422  0.6120 -1.7311
 8843TIP3    H248021   2.654   1.251  14.324  0.0872  0.7237 -0.3262
 8844TIP3   OH248022   0.019   5.747   1.192 -0.4914  0.0036 -0.2323
 8844TIP3    H148023   0.032   5.814   1.258  1.0296 -0.0107 -0.4925
 8844TIP3    H248024  -0.058   5.697   1.222  1.8226 -1.7805  3.0362
 8845TIP3   OH248025   6.547   6.042   1.828 -0.4986  0.4206 -0.1789
 8845TIP3    H148026   6.453   6.060   1.820 -0.5062  0.8144  0.8377
 8845TIP3    H248027   6.552   5.965   1.885 -0.2351 -0.1448 -0.9370
 8846TIP3   OH248028   1.911   0.568   1.729 -0.2888 -0.0679 -0.4731
 8846TIP3    H148029   1.985   0.538   1.782 -1.7241  0.0769  1.6839
 8846TIP3    H248030   1.950   0.601   1.649  2.0366  0.5718  0.8855
 8847TIP3   OH248031   1.820   0.647   2.661 -0.1065 -0.3871 -0.3921
 8847TIP3    H148032   1.888   0.715   2.663  0.6188 -1.1388  0.5698
 8847TIP3    H248033   1.840   0.590   2.734 -1.6656 -0.7455 -0.2201
 8848TIP3   OH248034   5.515   2.845   2.649 -0.2345  0.4227  0.7802
 8848TIP3    H148035   5.463   2.918   2.682 -1.4034 -1.5584  3.4302
 8848TIP3    H248036   5.572   2.821   2.722 -1.2610 -2.5678  0.6702
 8849TIP3   OH248037   6.282   0.459   2.033 -0.2793  0.1097 -0.3396
 8849TIP3    H148038   6.277   0.393   2.101 -2.0531  0.4226 -0.1239
 8849TIP3    H248039   6.375   0.478   2.023  0.1585 -1.6401  0.3357
 8850TIP3   OH248040   2.425   5.239   3.980 -0.3135  0.2422  0.3344
 8850TIP3    H148041   2.379   5.290   4.047  0.3733  1.6524 -0.2364
 8850TIP3    H248042   2.398   5.149   3.995 -1.1194  0.7055  1.7327
 8851TIP3   OH248043   0.518   6.056  14.628  0.4531 -0.1969 -0.6085
 8851TIP3    H148044   0.572   6.045  14.549  0.7811  0.3683 -0.4591
 8851TIP3    H248045   0.458   6.128  14.607  1.3246  0.7418  0.0883
 8852TIP3   OH248046   3.932   2.998  12.145 -0.2751  0.4323  0.2728
 8852TIP3    H148047   3.936   2.924  12.085  2.9461  0.9735 -0.2325
 8852TIP3    H248048   3.896   2.960  12.226 -0.6188 -1.2119 -0.6168
 8853TIP3   OH248049   0.521   0.392  13.753  0.3076 -0.4290  0.3292
 8853TIP3    H148050   0.595   0.375  13.811 -0.7376 -0.1286  1.7536
 8853TIP3    H248051   0.451   0.422  13.810  0.3937  3.5413 -1.4955
 8854TIP3   OH248052   5.648   5.541   4.220  0.2677 -0.1450  0.8236
 8854TIP3    H148053   5.683   5.454   4.235  2.3515  0.3904 -0.6820
 8854TIP3    H248054   5.709   5.581   4.158 -2.1133  1.4244 -0.6107
 8855TIP3   OH248055   5.664   2.382  14.493 -0.3163  0.1338 -0.1247
 8855TIP3    H148056   5.654   2.376  14.398 -0.7986  0.3396 -0.0881
 8855TIP3    H248057   5.603   2.316  14.527  1.5891 -1.6465 -0.0215
 8856TIP3   OH248058   5.508   3.176  13.319 -0.1403  0.3811  0.1777
 8856TIP3    H148059   5.570   3.136  13.380  0.3610  2.0388  0.7858
 8856TIP3    H248060   5.542   3.264  13.305  0.2622 -0.2464 -3.2260
 8857TIP3   OH248061   2.060   1.689   3.806  0.1259  0.4847  1.3160
 8857TIP3    H148062   2.024   1.777   3.797 -2.9160 -0.8816 -0.7668
 8857TIP3    H248063   2.091   1.667   3.718 -1.2021 -1.3077  1.2566
 8858TIP3   OH248064   1.489   6.164   4.130 -0.3579 -0.1469 -0.2712
 8858TIP3    H148065   1.504   6.231   4.197  1.4607 -0.1548 -0.6309
 8858TIP3    H248066   1.465   6.086   4.179  3.8465 -0.9721  0.6744
 8859TIP3   OH248067   4.931   3.953   2.045 -0.3806 -0.7434  0.7282
 8859TIP3    H148068   4.957   3.997   1.965  0.7981 -1.1099  0.9036
 8859TIP3    H248069   4.925   3.860   2.021 -0.0556 -0.8498  1.0479
 8860TIP3   OH248070   3.215   3.824   3.658 -0.1667 -0.4628 -0.1742
 8860TIP3    H148071   3.269   3.773   3.719 -0.7384 -3.5729 -2.1444
 8860TIP3    H248072   3.166   3.884   3.714  0.8853 -1.7456  2.2243
 8861TIP3   OH248073   3.704   0.225  12.491 -0.3463 -0.4206  0.4048
 8861TIP3    H148074   3.760   0.150  12.509  1.8220  1.7242  2.9576
 8861TIP3    H248075   3.667   0.249  12.576  0.8366  2.7934  0.0766
 8862TIP3   OH248076   2.186   4.105  14.621  0.0913  0.0565 -0.1362
 8862TIP3    H148077   2.191   4.200  14.617  1.5565  0.0951  1.9136
 8862TIP3    H248078   2.222   4.076  14.537 -1.3316  1.3186 -1.1976
 8863TIP3   OH248079   2.598   2.464   5.480 -0.2983 -0.1444 -0.1745
 8863TIP3    H148080   2.646   2.444   5.560  1.4918  2.0890 -0.6290
 8863TIP3    H248081   2.611   2.388   5.424  1.3709 -0.2579  0.3410
 8864TIP3   OH248082   2.796   5.911   2.698 -0.3298  0.0253 -0.6699
 8864TIP3    H148083   2.764   5.925   2.609 -2.2557  0.1932  0.0239
 8864TIP3    H248084   2.741   5.841   2.732  1.2394 -0.9094 -0.0282
 8865TIP3   OH248085   1.385   3.154   0.738  0.4717 -0.2066  0.0339
 8865TIP3    H148086   1.341   3.188   0.660  0.9765 -0.5116 -0.3942
 8865TIP3    H248087   1.316   3.144   0.803  0.4948  2.6159  0.5133
 8866TIP3   OH248088   5.309   4.803   4.921  0.4311  0.8369 -0.2840
 8866TIP3    H148089   5.377   4.748   4.882 -0.0480 -0.5466  0.7896
 8866TIP3    H248090   5.355   4.857   4.985  0.1706 -2.1751  2.5948
 8867TIP3   OH248091   0.646   5.065  13.674 -0.2895  0.6092  0.3597
 8867TIP3    H148092   0.561   5.076  13.630  0.0522  0.9017 -0.2329
 8867TIP3    H248093   0.660   5.149  13.718  0.1085  0.8771 -0.2760
 8868TIP3   OH248094   1.699   2.367   0.228 -0.1785 -0.9370 -0.1307
 8868TIP3    H148095   1.697   2.461   0.207 -1.0020 -0.8072  0.4851
 8868TIP3    H248096   1.753   2.328   0.160 -1.7008 -0.3475 -1.6821
 8869TIP3   OH248097   4.682   3.536   0.541  0.5103 -0.1139 -0.6545
 8869TIP3    H148098   4.684   3.614   0.596  0.9337 -0.3582 -0.3255
 8869TIP3    H248099   4.621   3.477   0.585  2.4264 -1.1396  0.6741
 8870TIP3   OH248100   0.778   3.157   1.627  0.4127  0.6086 -0.4248
 8870TIP3    H148101   0.723   3.150   1.706  3.2901 -1.7358  1.4850
 8870TIP3    H248102   0.810   3.247   1.628  0.0508  0.7388  0.8756
 8871TIP3   OH248103   6.648   4.803   2.585  0.3038  0.4531 -0.1260
 8871TIP3    H148104   6.741   4.826   2.589  0.6135 -0.8669  0.6784
 8871TIP3    H248105   6.644   4.729   2.525 -0.1364  0.1055  0.3244
 8872TIP3   OH248106   6.249   2.391  12.563 -0.3782  0.4997 -0.1372
 8872TIP3    H148107   6.233   2.430  12.477  0.5506  0.9681 -0.1093
 8872TIP3    H248108   6.181   2.428  12.619  0.6987  2.4193 -0.0205
 8873TIP3   OH248109   0.822   4.490  10.728  0.1830 -0.6618  0.3321
 8873TIP3    H148110   0.913   4.484  10.698 -0.1355  0.2083 -0.8552
 8873TIP3    H248111   0.826   4.466  10.820  1.1724 -3.5550 -0.4020
 8874TIP3   OH248112   2.114   2.779  15.120 -0.3915 -0.2738  0.0546
 8874TIP3    H148113   2.163   2.739  15.193 -1.0452 -2.2021 -0.5206
 8874TIP3    H248114   2.035   2.725  15.113 -0.1366 -0.3652 -2.3342
 8875TIP3   OH248115   6.305   0.709   3.401 -0.3776 -0.0942 -0.7850
 8875TIP3    H148116   6.243   0.764   3.448  0.3750  0.6172 -0.6131
 8875TIP3    H248117   6.251   0.655   3.344 -1.3040 -0.9249  0.8507
 8876TIP3   OH248118   2.433   4.173   1.157  0.8332  0.3248 -0.5518
 8876TIP3    H148119   2.368   4.127   1.105  1.7191 -0.8763 -0.6279
 8876TIP3    H248120   2.512   4.173   1.103  1.7215 -0.8186  0.6756
 8877TIP3   OH248121   1.767   2.921  16.168 -0.1157 -0.4401  0.0186
 8877TIP3    H148122   1.739   3.002  16.209  2.6488 -0.4857  2.1817
 8877TIP3    H248123   1.740   2.852  16.229 -1.3641 -1.0777 -1.2122
 8878TIP3   OH248124   0.154   6.127  16.340  0.0671 -0.7072 -0.1221
 8878TIP3    H148125   0.122   6.113  16.251  0.1792  0.8414 -0.4115
 8878TIP3    H248126   0.237   6.080  16.343  0.9281  0.6972 -1.3944
 8879TIP3   OH248127   6.079   6.685   4.072 -0.0283 -0.3337  0.0013
 8879TIP3    H148128   6.115   6.637   4.146 -1.4717 -0.0568  0.9077
 8879TIP3    H248129   6.126   6.651   3.996  1.7311 -0.3651  1.0711
 8880TIP3   OH248130   4.538   0.554  16.855 -0.7015 -0.1398 -0.2224
 8880TIP3    H148131   4.542   0.523  16.945 -2.6012  1.2838  0.3934
 8880TIP3    H248132   4.507   0.644  16.862 -0.0192  0.2920 -2.2560
 8881TIP3   OH248133   1.481   6.504  16.980  0.0088 -0.1481 -0.4689
 8881TIP3    H148134   1.480   6.419  16.935  0.0946  0.4357 -1.5986
 8881TIP3    H248135   1.392   6.538  16.968  0.7119  1.1403 -2.4461
 8882TIP3   OH248136   2.652   3.655  17.095  0.2159  0.0585 -0.5710
 8882TIP3    H148137   2.671   3.740  17.057 -1.0265  1.2826  1.4230
 8882TIP3    H248138   2.556   3.648  17.092  0.0669  0.2061  2.2202
 8883TIP3   OH248139   1.080   0.719   4.497  0.2514  0.1414  0.0405
 8883TIP3    H148140   1.004   0.733   4.441  0.1734  0.4083  0.2112
 8883TIP3    H248141   1.110   0.808   4.519 -0.7948  0.0517  1.8939
 8884TIP3   OH248142   6.514   6.287   3.161 -0.3663  0.2600 -0.6481
 8884TIP3    H148143   6.487   6.218   3.100  1.2698 -0.8363 -0.1852
 8884TIP3    H248144   6.582   6.335   3.113  0.7177 -0.4236  0.1500
 8885TIP3   OH248145   6.499   5.135  15.102 -0.2675  0.0957 -0.0958
 8885TIP3    H148146   6.568   5.139  15.168  1.0201 -1.9939 -1.2871
 8885TIP3    H248147   6.420   5.113  15.152  0.5969 -0.9940  0.8172
 8886TIP3   OH248148   5.957   5.173  13.510  0.0972 -0.2003  0.7013
 8886TIP3    H148149   5.996   5.151  13.426 -0.4869 -1.5283  0.7555
 8886TIP3    H248150   5.898   5.099  13.529 -0.5261  0.5596  1.7941
 8887TIP3   OH248151   5.408   6.694   0.884 -0.0478 -0.0304  0.1167
 8887TIP3    H148152   5.338   6.663   0.827 -0.3075  0.7483  0.0036
 8887TIP3    H248153   5.372   6.687   0.973  0.1263 -0.6563  0.1334
 8888TIP3   OH248154   2.223   6.536  11.492  0.2063 -0.2827  0.0599
 8888TIP3    H148155   2.285   6.488  11.437 -0.2798 -1.3171  0.3910
 8888TIP3    H248156   2.164   6.468  11.525  1.6902  0.0333  3.5180
 8889TIP3   OH248157   5.088   6.030   3.980 -0.2590 -0.7754 -0.3849
 8889TIP3    H148158   5.102   6.085   3.903 -2.3240  1.8756  1.0304
 8889TIP3    H248159   5.111   6.087   4.054 -2.9121 -1.6496  1.1527
 8890TIP3   OH248160   5.544   0.629   5.234 -0.1781  0.4567 -0.2161
 8890TIP3    H148161   5.583   0.715   5.219  0.3593 -0.1386 -2.4645
 8890TIP3    H248162   5.462   0.631   5.185 -1.5417  0.6252  1.9864
 8891TIP3   OH248163   3.515   2.045   3.283  0.1028  0.4293 -0.3697
 8891TIP3    H148164   3.539   2.009   3.197  0.2851  0.7031 -0.4345
 8891TIP3    H248165   3.439   1.994   3.310  0.4953 -0.1597 -0.3608
 8892TIP3   OH248166   6.293   1.226   5.305  0.3566  0.1445  0.3763
 8892TIP3    H148167   6.206   1.202   5.336  0.4678  1.2007  1.5181
 8892TIP3    H248168   6.322   1.294   5.365  1.4608  0.6798 -0.7516
 8893TIP3   OH248169   3.382   6.112  16.898  0.2664 -0.2477  0.5657
 8893TIP3    H148170   3.342   6.188  16.938 -0.6641  0.0504 -0.8741
 8893TIP3    H248171   3.333   6.037  16.933 -1.6255  0.1162 -1.2031
 8894TIP3   OH248172   6.805   6.378   4.450 -0.1068 -0.0568 -0.0845
 8894TIP3    H148173   6.835   6.292   4.421  1.7002  0.2869  0.7083
 8894TIP3    H248174   6.849   6.440   4.391  0.1773  0.4260  0.6370
 8895TIP3   OH248175   0.729   2.508   1.523 -0.1834  0.4784  0.6323
 8895TIP3    H148176   0.745   2.443   1.455  0.8057  0.9081  0.4502
 8895TIP3    H248177   0.687   2.581   1.477 -0.7682  0.2119  0.7352
 8896TIP3   OH248178   6.417   5.617   3.823  0.6069 -0.0086  0.7286
 8896TIP3    H148179   6.390   5.629   3.914 -1.1154 -0.6824  0.3395
 8896TIP3    H248180   6.354   5.670   3.773  1.5754  0.4049 -0.0593
 8897TIP3   OH248181   6.239   4.542  14.389 -0.6717 -0.0143 -0.0120
 8897TIP3    H148182   6.203   4.630  14.398 -2.3240 -0.6772  0.0614
 8897TIP3    H248183   6.243   4.527  14.295 -1.0983 -0.1243 -0.0163
 8898TIP3   OH248184   4.718   3.920  14.039 -0.0595  0.1540 -0.1254
 8898TIP3    H148185   4.691   3.887  13.953  0.5490  0.9826 -0.6353
 8898TIP3    H248186   4.719   4.015  14.029  1.1832  0.2098  0.4446
 8899TIP3   OH248187   1.119   3.281  11.840  0.0167  0.5268 -0.1791
 8899TIP3    H148188   1.028   3.296  11.816 -0.4625 -0.8284  0.6899
 8899TIP3    H248189   1.118   3.276  11.936  1.2027  1.6664 -0.0938
 8900TIP3   OH248190   4.927   2.219  12.377  1.1183  0.1466  0.2985
 8900TIP3    H148191   4.835   2.195  12.377  1.2166 -0.2453  1.6333
 8900TIP3    H248192   4.968   2.156  12.318  0.0700  2.2724 -2.8707
 8901TIP3   OH248193   5.377   1.879  14.781 -0.6497 -0.1212  0.2241
 8901TIP3    H148194   5.295   1.859  14.734 -0.4424  0.5680 -0.4415
 8901TIP3    H248195   5.364   1.842  14.868 -2.1231  0.9839  0.4928
 8902TIP3   OH248196   0.747   5.611  12.364 -0.6239  0.4683 -0.3119
 8902TIP3    H148197   0.696   5.668  12.421 -1.6347 -0.1235 -0.6186
 8902TIP3    H248198   0.798   5.556  12.423 -1.5603 -0.0443  0.0139
 8903TIP3   OH248199   3.993   6.162  12.257  0.2762  0.5768 -0.1238
 8903TIP3    H148200   4.026   6.218  12.327 -0.9148  3.4939 -1.7981
 8903TIP3    H248201   4.049   6.183  12.182 -0.4322 -0.1918 -0.8734
 8904TIP3   OH248202   3.376   6.231   3.845  0.0609  0.1033 -0.1640
 8904TIP3    H148203   3.364   6.148   3.799  1.1282  0.0837 -0.4428
 8904TIP3    H248204   3.404   6.292   3.776  2.4025 -0.1087  0.5521
 8905TIP3   OH248205   4.175   4.634   4.167  0.2497 -0.5684 -0.1044
 8905TIP3    H148206   4.196   4.558   4.112  4.3060 -0.3772  1.0282
 8905TIP3    H248207   4.185   4.709   4.110 -1.2305 -0.7017 -0.5579
 8906TIP3   OH248208   1.085   3.129  10.599  0.3018 -0.0624  0.2858
 8906TIP3    H148209   1.012   3.187  10.619 -0.4932 -0.8719 -0.2003
 8906TIP3    H248210   1.162   3.174  10.634 -0.4726  0.6322  1.1359
 8907TIP3   OH248211   2.653   6.492  13.697 -0.7818 -0.3231 -0.3994
 8907TIP3    H148212   2.658   6.573  13.647 -0.4501 -0.7930 -1.1484
 8907TIP3    H248213   2.643   6.519  13.788 -2.5078  0.5590 -0.8266
 8908TIP3   OH248214   1.248   3.334  16.987 -0.1801  0.1521  0.1594
 8908TIP3    H148215   1.154   3.343  17.003 -0.7806 -0.0517 -2.9021
 8908TIP3    H248216   1.275   3.265  17.048 -2.0260  0.1032  0.9880
 8909TIP3   OH248217   2.143   0.493   0.937  0.3266 -0.4012  0.6884
 8909TIP3    H148218   2.189   0.521   1.017  1.2733  0.7052 -0.2220
 8909TIP3    H248219   2.128   0.574   0.889 -0.2112 -1.0709 -0.2759
 8910TIP3   OH248220   6.167   4.305   6.803  0.0303  0.0887  0.1960
 8910TIP3    H148221   6.145   4.394   6.831 -0.2369  0.1985 -0.3828
 8910TIP3    H248222   6.191   4.314   6.711  0.0700 -0.4288  0.1571
 8911TIP3   OH248223   2.408   5.844   5.443 -0.5934 -0.1677  0.3322
 8911TIP3    H148224   2.396   5.749   5.445 -1.7104 -0.0346  0.5984
 8911TIP3    H248225   2.446   5.865   5.529 -1.4946 -0.2420  0.7573
 8912TIP3   OH248226   4.705   4.033   6.234  0.1707 -0.3872  0.0699
 8912TIP3    H148227   4.612   4.053   6.222  0.7983  2.1163 -1.0621
 8912TIP3    H248228   4.715   4.020   6.328 -1.4078 -1.1758  0.1433
 8913TIP3   OH248229   5.571   5.958  12.184 -0.4499  0.6697  0.5465
 8913TIP3    H148230   5.499   6.018  12.166 -2.1081 -1.2025  0.7315
 8913TIP3    H248231   5.629   5.967  12.109 -2.7487 -0.4534 -1.4558
 8914TIP3   OH248232   4.704   2.823  14.181  0.7129 -0.3140  0.3986
 8914TIP3    H148233   4.790   2.787  14.159  0.4946 -0.6501  0.1011
 8914TIP3    H248234   4.680   2.876  14.105 -0.1523 -1.6751 -0.2932
 8915TIP3   OH248235   4.356   5.358   4.742  0.5738 -0.4596 -0.1363
 8915TIP3    H148236   4.385   5.267   4.740  0.2656 -0.5394 -1.1923
 8915TIP3    H248237   4.330   5.377   4.652 -3.4081 -0.6189  0.9033
 8916TIP3   OH248238   6.061   3.062   4.472  0.0141 -0.1535 -0.6244
 8916TIP3    H148239   5.968   3.060   4.494 -0.0398  0.2812 -0.8166
 8916TIP3    H248240   6.106   3.041   4.554 -0.1735  1.5677 -0.0607
 8917TIP3   OH248241   3.166   4.233   1.699  0.3606  0.1289  0.3556
 8917TIP3    H148242   3.127   4.231   1.787  1.4834  0.3980  0.8696
 8917TIP3    H248243   3.207   4.148   1.688 -0.6243 -0.2751 -0.3176
 8918TIP3   OH248244   4.056   0.701  14.968 -0.2101 -0.4498  0.5160
 8918TIP3    H148245   3.971   0.717  15.010 -0.1614 -0.3064  0.5624
 8918TIP3    H248246   4.082   0.787  14.933 -0.8700 -0.8433 -0.9784
 8919TIP3   OH248247   3.334   3.407  13.574  0.1116  0.0123  0.0936
 8919TIP3    H148248   3.273   3.430  13.504 -0.4664  0.4659  0.7366
 8919TIP3    H248249   3.364   3.319  13.552 -0.3796 -0.0094 -0.5053
 8920TIP3   OH248250   2.644   1.845  17.196 -0.4285 -0.4057 -0.4832
 8920TIP3    H148251   2.582   1.917  17.191  1.5020  1.4922  1.9003
 8920TIP3    H248252   2.660   1.821  17.105 -4.1220 -0.5495 -1.1923
 8921TIP3   OH248253   3.836   4.867   2.806  0.4116  1.0194 -0.2431
 8921TIP3    H148254   3.915   4.849   2.755  0.1259  0.2165 -0.4101
 8921TIP3    H248255   3.842   4.808   2.882 -1.2819 -0.9413 -1.5811
 8922TIP3   OH248256   6.511   0.888   2.583  0.7560 -0.1960  0.4821
 8922TIP3    H148257   6.492   0.948   2.655 -1.3269 -0.2782  0.0371
 8922TIP3    H248258   6.577   0.933   2.530 -0.2169  1.3840  0.5747
 8923TIP3   OH248259   1.350   6.026   3.569  0.6919  0.3625  0.0111
 8923TIP3    H148260   1.285   6.013   3.638 -0.5346 -0.8284 -1.3354
 8923TIP3    H248261   1.347   6.120   3.550 -0.0906  0.4340  0.4805
 8924TIP3   OH248262   6.704   4.896  14.348  0.0494  0.0296 -0.1115
 8924TIP3    H148263   6.741   4.960  14.287  3.4328 -1.0947  0.6432
 8924TIP3    H248264   6.667   4.949  14.419  0.4744  1.2066 -0.7583
 8925TIP3   OH248265   0.457   2.382  13.182  0.1464  0.4831 -0.5290
 8925TIP3    H148266   0.481   2.419  13.096  1.0935  0.9160 -0.0820
 8925TIP3    H248267   0.363   2.366  13.175 -0.1801  2.4097 -0.9708
 8926TIP3   OH248268   6.377   2.862   2.016  0.1480  0.3790  0.2864
 8926TIP3    H148269   6.468   2.874   1.988 -0.1871  0.4995 -0.7610
 8926TIP3    H248270   6.325   2.887   1.940 -0.7360 -0.8015  0.4878
 8927TIP3   OH248271   3.941   3.908   3.557 -0.1578  0.1186 -0.1853
 8927TIP3    H148272   3.952   3.822   3.596 -1.6088 -0.3818 -0.8313
 8927TIP3    H248273   3.870   3.949   3.607  0.5372  0.9514  0.1353
 8928TIP3   OH248274   0.612   0.456   5.147 -0.3646  0.8421 -0.5520
 8928TIP3    H148275   0.532   0.505   5.166 -0.0196  0.6596  1.5948
 8928TIP3    H248276   0.663   0.462   5.228  1.2236 -0.1267 -1.4488
 8929TIP3   OH248277   3.510   4.628   4.886  0.0703 -0.1258 -0.4857
 8929TIP3    H148278   3.475   4.702   4.936  1.0268 -0.1741  0.2712
 8929TIP3    H248279   3.502   4.655   4.795  2.4715  1.8756 -0.1688
 8930TIP3   OH248280   3.753   0.088   4.093  0.1917 -0.1313 -0.1215
 8930TIP3    H148281   3.803   0.134   4.160  0.4779 -0.6644  0.0298
 8930TIP3    H248282   3.801   0.007   4.078 -0.5865 -0.6081 -0.0384
 8931TIP3   OH248283   4.742   6.199   6.463 -0.2483 -0.4114 -0.2554
 8931TIP3    H148284   4.698   6.257   6.526  1.3174  1.2374 -0.6713
 8931TIP3    H248285   4.786   6.258   6.402  1.5076 -2.0264 -0.5892
 8932TIP3   OH248286   2.512   4.777  16.761 -0.2687 -0.4032 -0.0058
 8932TIP3    H148287   2.600   4.764  16.724  0.3587  0.5131  1.1294
 8932TIP3    H248288   2.511   4.723  16.840  0.3675  1.8885  1.6298
 8933TIP3   OH248289   4.825   1.447  13.507  0.4294  0.5248  0.2982
 8933TIP3    H148290   4.732   1.433  13.489  0.2417  0.8999  0.9691
 8933TIP3    H248291   4.868   1.367  13.476 -0.1337  0.2750  0.1635
 8934TIP3   OH248292   0.760   6.042  13.179  0.5148  0.0792  0.4379
 8934TIP3    H148293   0.781   5.959  13.222 -1.2584  0.2356  1.6674
 8934TIP3    H248294   0.836   6.098  13.195  1.3768 -1.0407  0.2939
 8935TIP3   OH248295   2.118   1.607   2.508  0.6707 -0.0624  0.1928
 8935TIP3    H148296   2.168   1.620   2.588  0.8757  0.3340  0.0011
 8935TIP3    H248297   2.034   1.573   2.538  0.3344  1.1551  0.6736
 8936TIP3   OH248298   4.851   5.070   3.900  0.5049 -0.0920  0.0898
 8936TIP3    H148299   4.802   5.149   3.879 -0.4388 -1.3479 -2.7835
 8936TIP3    H248300   4.901   5.092   3.978 -0.8688  2.8334  0.2030
 8937TIP3   OH248301   4.788   2.814   6.233 -0.5863 -0.6708 -0.2290
 8937TIP3    H148302   4.824   2.849   6.314  2.3675 -0.9604 -1.3488
 8937TIP3    H248303   4.738   2.886   6.195 -0.5217  0.0296  0.9958
 8938TIP3   OH248304   3.369   3.777   2.001 -0.2156  0.2733  0.3200
 8938TIP3    H148305   3.423   3.812   1.931 -1.0619 -0.2718 -0.6165
 8938TIP3    H248306   3.281   3.770   1.963 -0.6680 -0.0620  1.4107
 8939TIP3   OH248307   3.475   0.208   4.720  0.4912  0.0633 -0.3937
 8939TIP3    H148308   3.537   0.273   4.688  1.6126 -1.4556 -1.3812
 8939TIP3    H248309   3.526   0.155   4.782  0.1162 -0.9770 -0.9482
 8940TIP3   OH248310   2.986   1.364  16.015  0.3432 -1.3342 -0.0786
 8940TIP3    H148311   3.055   1.332  15.957  0.1302 -0.6401 -0.7183
 8940TIP3    H248312   2.971   1.455  15.988 -1.2145 -1.6485 -0.3138
 8941TIP3   OH248313   6.797   1.927   2.212 -0.0716  0.1286  1.2398
 8941TIP3    H148314   6.720   1.975   2.243 -0.9982 -0.4644 -0.1256
 8941TIP3    H248315   6.764   1.841   2.188  0.7496  0.3508 -0.7627
 8942TIP3   OH248316   6.438   5.235  15.854 -0.4013  0.0424 -0.1596
 8942TIP3    H148317   6.362   5.201  15.901 -0.6954 -1.1931 -1.4771
 8942TIP3    H248318   6.400   5.278  15.777  0.1932 -0.1429 -0.5549
 8943TIP3   OH248319   0.735   6.494   1.895 -0.0121 -0.5137 -0.2924
 8943TIP3    H148320   0.727   6.417   1.837 -0.0890  0.3863 -1.4897
 8943TIP3    H248321   0.803   6.547   1.854  0.8195 -0.4589  1.1407
 8944TIP3   OH248322   1.829   2.455   2.672  1.1551  0.2129 -0.1411
 8944TIP3    H148323   1.844   2.451   2.767  3.9736 -0.7855 -0.5757
 8944TIP3    H248324   1.818   2.364   2.646 -2.6062  0.6666 -0.4053
 8945TIP3   OH248325   5.932   1.502   4.940 -0.1428 -0.4640 -0.4604
 8945TIP3    H148326   5.839   1.511   4.961 -0.0201  0.3697 -0.2318
 8945TIP3    H248327   5.957   1.418   4.978 -0.4642 -0.0185  0.7758
 8946TIP3   OH248328   0.562   3.010   5.014 -0.2215 -0.0674  0.3787
 8946TIP3    H148329   0.480   2.994   5.061  0.0641 -1.3292  0.4535
 8946TIP3    H248330   0.547   3.094   4.969 -0.6415  0.9523  2.3699
 8947TIP3   OH248331   6.060   5.152   3.945  0.4075  0.4303 -0.5396
 8947TIP3    H148332   6.122   5.131   4.015  0.0320 -1.5454 -0.7724
 8947TIP3    H248333   6.017   5.233   3.974  1.1817  0.3487  0.8773
 8948TIP3   OH248334   0.940   0.331  14.298  0.3311 -0.0244 -0.1475
 8948TIP3    H148335   0.898   0.417  14.289 -0.3707 -0.0731  2.2598
 8948TIP3    H248336   1.009   0.345  14.363  2.1785 -0.6273 -1.9415
 8949TIP3   OH248337   0.504   5.709   4.293  0.0413 -0.0113 -0.3265
 8949TIP3    H148338   0.483   5.720   4.200 -2.9449 -1.4461  0.1099
 8949TIP3    H248339   0.518   5.798   4.325  0.0423  0.5798 -1.9167
 8950TIP3   OH248340   3.093   6.063  10.521 -0.2681 -0.1309 -0.0116
 8950TIP3    H148341   3.059   6.019  10.599  1.2676 -1.3345 -0.0013
 8950TIP3    H248342   3.028   6.044  10.452 -0.5458 -0.8702  0.4468
 8951TIP3   OH248343   1.059   5.883  15.560  0.4075 -0.0905  0.5293
 8951TIP3    H148344   1.004   5.809  15.533  1.3674 -0.7566  0.3511
 8951TIP3    H248345   1.052   5.884  15.655 -1.2208  0.8746  0.4235
 8952TIP3   OH248346   3.813   3.702   4.063 -0.7113 -0.0325 -0.3367
 8952TIP3    H148347   3.825   3.774   4.125  0.3123 -1.0026  0.5932
 8952TIP3    H248348   3.733   3.658   4.092 -0.0322 -0.7045  0.5026
 8953TIP3   OH248349   4.184   2.946   3.259  0.1626 -0.4212 -0.2052
 8953TIP3    H148350   4.219   2.952   3.170 -1.9160 -2.1611 -1.1736
 8953TIP3    H248351   4.089   2.951   3.249 -0.2304 -3.0686  1.6404
 8954TIP3   OH248352   0.257   3.145  14.265  0.1301  0.5449  0.6536
 8954TIP3    H148353   0.277   3.092  14.343 -1.1302 -1.3318 -0.2585
 8954TIP3    H248354   0.343   3.169  14.229  0.7551 -1.9561  0.3938
 8955TIP3   OH248355   2.528   2.872   1.769 -0.5772  0.2755 -0.0574
 8955TIP3    H148356   2.483   2.790   1.786 -0.7484  0.1438 -1.0900
 8955TIP3    H248357   2.458   2.936   1.755 -0.4495  0.3260 -0.4801
 8956TIP3   OH248358   1.891   0.398   0.764  0.3961  0.0565  0.7151
 8956TIP3    H148359   1.938   0.381   0.846  0.1801  0.0701  0.8426
 8956TIP3    H248360   1.801   0.414   0.792  0.4498  0.6764  0.5257
 8957TIP3   OH248361   1.419   0.064  13.568 -0.3257 -0.9306  0.0703
 8957TIP3    H148362   1.370  -0.017  13.581 -1.4488 -0.0878  1.1934
 8957TIP3    H248363   1.482   0.066  13.640  0.7336 -1.5482 -0.8309
 8958TIP3   OH248364   5.899   1.245  11.840 -0.1213 -0.2230  0.4677
 8958TIP3    H148365   5.861   1.265  11.925 -1.0375  0.0685 -0.0033
 8958TIP3    H248366   5.993   1.249  11.854 -0.2280 -1.7018  1.8439
 8959TIP3   OH248367   3.010   1.693  12.451  0.2419  0.1920 -0.2472
 8959TIP3    H148368   2.964   1.617  12.415  2.2824 -0.8781 -0.6433
 8959TIP3    H248369   3.018   1.753  12.377  1.4582 -0.5800 -0.7504
 8960TIP3   OH248370   6.404   6.520  11.508  0.0253 -0.2578  0.1562
 8960TIP3    H148371   6.464   6.594  11.521 -1.3374  0.4245  3.0344
 8960TIP3    H248372   6.320   6.561  11.487 -0.3763 -1.0509  0.2154
 8961TIP3   OH248373   6.009   4.514  17.028 -0.3302  0.5932  0.7604
 8961TIP3    H148374   5.993   4.587  17.088 -0.0857  0.1499  1.3774
 8961TIP3    H248375   5.922   4.479  17.009 -0.3097 -0.2459  2.1242
 8962TIP3   OH248376   1.321   4.460  16.290 -0.0968 -0.2451  0.0930
 8962TIP3    H148377   1.294   4.368  16.302 -0.1165 -0.3480 -0.7110
 8962TIP3    H248378   1.402   4.455  16.240 -0.8787  0.2198 -1.2641
 8963TIP3   OH248379   6.374   5.317  14.117  0.1661  0.6246  0.4398
 8963TIP3    H148380   6.342   5.368  14.043 -0.2494 -0.0461  0.1549
 8963TIP3    H248381   6.326   5.351  14.192  0.8186  1.5227  0.4535
 8964TIP3   OH248382   1.495   2.341   3.739  0.0176 -0.3621 -0.3091
 8964TIP3    H148383   1.560   2.407   3.764  0.5348 -0.6356 -0.9022
 8964TIP3    H248384   1.540   2.258   3.751  0.1167 -0.5184 -1.6606
 8965TIP3   OH248385   3.169   6.316  15.905  0.2325  0.2273 -0.1650
 8965TIP3    H148386   3.178   6.238  15.960 -0.6763 -0.1357 -0.5120
 8965TIP3    H248387   3.258   6.332  15.872  0.0767 -1.9366 -1.7814
 8966TIP3   OH248388   6.195   5.971   4.901  0.1463 -0.5327  0.0107
 8966TIP3    H148389   6.107   5.963   4.938  1.4253  1.6149  3.8713
 8966TIP3    H248390   6.181   5.989   4.808 -3.4131 -2.2398  0.1494
 8967TIP3   OH248391   0.798   5.937  14.526  0.2351  0.4425  0.5259
 8967TIP3    H148392   0.833   5.850  14.547 -1.4242 -0.5055 -0.5557
 8967TIP3    H248393   0.824   5.952  14.436  0.1853  0.9110  0.5897
 8968TIP3   OH248394   4.337   2.334  12.095  0.4635 -0.1742 -0.3411
 8968TIP3    H148395   4.362   2.242  12.091 -0.1171 -0.3586  0.0646
 8968TIP3    H248396   4.299   2.344  12.183 -0.6434  0.1438 -0.8474
 8969TIP3   OH248397   1.588   2.205  14.946  0.0851 -0.0607  0.1686
 8969TIP3    H148398   1.505   2.167  14.917 -0.2597  0.0009  1.0709
 8969TIP3    H248399   1.653   2.138  14.924 -0.1236  0.1455 -1.0853
 8970TIP3   OH248400   4.835   0.842  17.131  0.6190  0.4119 -0.6279
 8970TIP3    H148401   4.868   0.758  17.161  1.5580  1.2651  0.7781
 8970TIP3    H248402   4.741   0.840  17.150  0.4264 -0.7523 -1.6584
 8971TIP3   OH248403   1.015   2.710   0.857 -0.3296  0.0883 -0.5060
 8971TIP3    H148404   1.049   2.732   0.770 -2.5477  0.1284 -1.3734
 8971TIP3    H248405   1.066   2.634   0.884  1.2038  0.8082 -1.3105
 8972TIP3   OH248406   2.568   1.721  12.719  0.1688 -0.0886 -0.1098
 8972TIP3    H148407   2.552   1.814  12.701 -0.1193 -0.0799  0.1858
 8972TIP3    H248408   2.582   1.682  12.633 -1.0565 -0.0251 -0.3451
 8973TIP3   OH248409   4.269   5.504  11.204  0.3123  0.0158 -0.0669
 8973TIP3    H148410   4.252   5.416  11.237 -1.3136 -0.3457 -1.7699
 8973TIP3    H248411   4.321   5.490  11.124  0.0644  0.6036 -0.3310
 8974TIP3   OH248412   2.128   1.683  10.724 -0.3754  0.2290  0.5779
 8974TIP3    H148413   2.122   1.606  10.667 -1.4541  1.2053 -0.6364
 8974TIP3    H248414   2.216   1.718  10.707  0.1273 -0.7213  1.1445
 8975TIP3   OH248415   4.333   0.375   6.157 -0.3157  0.1721  0.0076
 8975TIP3    H148416   4.354   0.439   6.226  1.9752  2.7428 -2.9330
 8975TIP3    H248417   4.310   0.428   6.081 -1.7133 -2.6033 -1.5721
 8976TIP3   OH248418   6.164   3.932  11.302 -0.2888 -0.3661 -0.2385
 8976TIP3    H148419   6.111   3.950  11.379 -1.0974  1.8456 -1.2715
 8976TIP3    H248420   6.254   3.946  11.332 -0.5137 -0.7661  0.6363
 8977TIP3   OH248421   5.854   5.775   3.699 -0.0132  0.1167  0.8937
 8977TIP3    H148422   5.805   5.793   3.779  0.8033  0.3164  1.3632
 8977TIP3    H248423   5.920   5.845   3.696 -1.2345  1.2409 -0.9693
 8978TIP3   OH248424   0.435   4.682   4.015  0.0025  0.0590  0.5122
 8978TIP3    H148425   0.461   4.676   4.107 -0.2220 -1.9008  0.4678
 8978TIP3    H248426   0.357   4.736   4.015 -0.3575 -0.4529  1.5554
 8979TIP3   OH248427   3.164   5.759  16.617  0.1450  0.7716 -0.1275
 8979TIP3    H148428   3.224   5.829  16.590  0.5137 -0.6733 -3.4087
 8979TIP3    H248429   3.080   5.784  16.580  0.0785 -0.0406 -0.5412
 8980TIP3   OH248430   5.001   0.087   5.200  0.4891  0.3506 -0.4776
 8980TIP3    H148431   4.943   0.026   5.153  0.3178  0.1000  0.0544
 8980TIP3    H248432   5.078   0.096   5.143  1.3658 -1.8610  0.2976
 8981TIP3   OH248433   6.076   4.232   3.065 -0.4670  0.2269  0.6038
 8981TIP3    H148434   6.025   4.244   3.145  0.8083  1.2022  1.2732
 8981TIP3    H248435   6.138   4.162   3.085 -1.0551 -0.4721  0.0171
 8982TIP3   OH248436   2.078   0.929  14.063  0.4554  0.2858  0.5626
 8982TIP3    H148437   2.056   0.961  14.151  0.0549  0.2395  0.4794
 8982TIP3    H248438   2.111   0.841  14.077  1.5725  0.7352  0.7963
 8983TIP3   OH248439   3.556   1.415  10.061  0.1823  0.7045 -0.7424
 8983TIP3    H148440   3.574   1.335  10.111  2.3483  0.9970 -1.0007
 8983TIP3    H248441   3.502   1.468  10.119  1.9550  0.6716  0.9892
 8984TIP3   OH248442   1.418   0.059   3.050  0.0502 -0.3540  0.2065
 8984TIP3    H148443   1.439   0.087   3.139 -0.6164 -0.8004  0.5091
 8984TIP3    H248444   1.450  -0.031   3.044  0.1565 -0.3020 -0.0293
 8985TIP3   OH248445   6.248   3.595   2.299  0.0809  0.2479  0.6791
 8985TIP3    H148446   6.321   3.537   2.321  0.9167  0.9424 -0.2241
 8985TIP3    H248447   6.286   3.683   2.302 -0.5593  0.5580 -0.4667
 8986TIP3   OH248448   5.060   0.657  16.156 -0.2639 -0.2649 -0.2878
 8986TIP3    H148449   5.018   0.601  16.221 -1.0384 -0.6683 -1.1401
 8986TIP3    H248450   4.988   0.694  16.105  0.3964 -0.8871 -1.6948
 8987TIP3   OH248451   4.113   5.298  10.685 -0.1639 -0.2396 -0.2656
 8987TIP3    H148452   4.118   5.380  10.734  2.5357 -0.3454 -0.2778
 8987TIP3    H248453   4.047   5.246  10.731  1.3602  0.1851  2.4959
 8988TIP3   OH248454   6.528   3.129  15.188  0.5976 -0.2150 -0.3126
 8988TIP3    H148455   6.564   3.145  15.275  0.7290 -1.9625 -0.0209
 8988TIP3    H248456   6.545   3.210  15.139 -1.6090  1.7160  1.9651
 8989TIP3   OH248457   5.055   3.287  13.241  0.1605 -0.0807 -0.0582
 8989TIP3    H148458   5.124   3.253  13.299 -0.1062 -3.5728 -1.6321
 8989TIP3    H248459   5.022   3.209  13.196 -2.7414  1.9453 -1.5781
 8990TIP3   OH248460   4.118   0.887  13.567  0.1439  0.0467  0.0284
 8990TIP3    H148461   4.128   0.821  13.635  0.6880 -0.3433 -0.4239
 8990TIP3    H248462   4.194   0.943  13.576  1.0802 -0.9741 -1.2992
 8991TIP3   OH248463   0.053   0.439  16.997 -0.4696 -0.6207  0.2349
 8991TIP3    H148464   0.137   0.394  16.989 -0.9474 -1.4227 -0.3461
 8991TIP3    H248465   0.071   0.529  16.969 -0.3182 -1.3582 -2.1382
 8992TIP3   OH248466   6.326   5.244   1.750  0.0707 -0.2607  0.2526
 8992TIP3    H148467   6.406   5.217   1.795  0.7101  2.3153  0.6924
 8992TIP3    H248468   6.255   5.202   1.799  1.0964 -2.1592  0.1503
 8993TIP3   OH248469   5.341   3.673   1.542  0.0542  0.2710  0.3614
 8993TIP3    H148470   5.262   3.706   1.585 -0.5604 -0.9502  0.1920
 8993TIP3    H248471   5.412   3.700   1.599 -0.4554  1.5693  0.4102
 8994TIP3   OH248472   6.767   0.388  15.399  0.2092  0.1218 -0.6398
 8994TIP3    H148473   6.711   0.321  15.436  0.2131  1.4954  1.9584
 8994TIP3    H248474   6.730   0.471  15.429  1.8754  1.1684 -1.3512
 8995TIP3   OH248475   0.454   4.963   6.677 -0.1750  0.4752  0.4489
 8995TIP3    H148476   0.405   4.921   6.607 -1.1106  2.2738  0.0000
 8995TIP3    H248477   0.541   4.978   6.640  0.5649 -2.1575  1.0386
 8996TIP3   OH248478   4.032   4.586  14.890  0.6790 -0.3391  0.6462
 8996TIP3    H148479   4.069   4.594  14.802  2.6572  0.2468  1.4852
 8996TIP3    H248480   3.942   4.557  14.876  0.9045 -0.0817 -1.5673
 8997TIP3   OH248481   5.320   4.514  14.720  0.4423 -0.6920 -0.2186
 8997TIP3    H148482   5.349   4.462  14.645 -1.2555  0.2044 -1.5587
 8997TIP3    H248483   5.247   4.464  14.757  1.3536 -1.1862  0.9143
 8998TIP3   OH248484   0.864   0.412  15.790  0.2390 -0.1873 -0.1955
 8998TIP3    H148485   0.820   0.365  15.861  1.5501 -0.6372  0.3183
 8998TIP3    H248486   0.845   0.359  15.712 -0.0099 -0.4659  0.0510
 8999TIP3   OH248487   0.675   6.009  16.257 -0.3589  0.0866 -0.1854
 8999TIP3    H148488   0.751   5.951  16.257  0.7645  1.5032 -2.2635
 8999TIP3    H248489   0.707   6.091  16.295 -0.7571  0.7782 -1.3213
 9000TIP3   OH248490   2.314   2.620   3.287 -0.2111 -0.1008  0.2653
 9000TIP3    H148491   2.395   2.589   3.327 -0.3303  1.4805  1.7969
 9000TIP3    H248492   2.342   2.659   3.204  0.8127  1.7941  1.4754
 9001TIP3   OH248493   5.796   6.458  11.870 -0.3066 -0.2771  0.2258
 9001TIP3    H148494   5.831   6.407  11.943  1.0010  0.3926  0.0779
 9001TIP3    H248495   5.736   6.398  11.826  1.1457 -1.6876  0.0930
 9002TIP3   OH248496   4.682   0.077  15.398 -0.2384  0.1633 -0.6083
 9002TIP3    H148497   4.659   0.076  15.491 -1.8655  0.3998 -0.9974
 9002TIP3    H248498   4.672   0.168  15.371  0.6524  0.1759 -0.9242
 9003TIP3   OH248499   3.622   5.150   5.681  0.5735  0.7340  0.3652
 9003TIP3    H148500   3.561   5.181   5.747  0.9497  0.2427  0.9467
 9003TIP3    H248501   3.639   5.059   5.705  1.4376  0.8322  0.1324
 9004TIP3   OH248502   5.510   6.300   5.860  0.0671  0.0380 -0.2039
 9004TIP3    H148503   5.544   6.259   5.780  1.1761 -0.2229  0.3894
 9004TIP3    H248504   5.579   6.287   5.925 -0.2229  1.4884  0.4210
 9005TIP3   OH248505   2.003   3.339   0.299 -0.2571 -0.0362 -0.1497
 9005TIP3    H148506   2.073   3.375   0.244  0.7315 -0.5219  0.7872
 9005TIP3    H248507   1.955   3.416   0.329  0.2098  0.3343 -0.3378
 9006TIP3   OH248508   3.606   5.826  14.461 -0.1733 -0.7073 -0.2540
 9006TIP3    H148509   3.589   5.913  14.424 -0.4669 -0.2828  0.8711
 9006TIP3    H248510   3.528   5.775  14.438 -0.8733 -0.1131  0.7891
 9007TIP3   OH248511   6.356   4.888   1.171  0.7411 -0.4571 -0.4995
 9007TIP3    H148512   6.331   4.930   1.254 -0.8023 -0.6036 -0.8620
 9007TIP3    H248513   6.363   4.795   1.193  4.2489 -0.0542  0.3228
 9008TIP3   OH248514   1.959   2.324  16.992 -0.1048 -0.5718 -0.3596
 9008TIP3    H148515   2.017   2.370  16.932  0.1889 -1.0999 -0.4809
 9008TIP3    H248516   1.988   2.233  16.989 -1.1006 -0.8868 -0.6204
 9009TIP3   OH248517   4.449   5.380  11.476  0.2616 -0.1899  0.6999
 9009TIP3    H148518   4.415   5.430  11.551 -1.4494  1.4028 -1.0724
 9009TIP3    H248519   4.505   5.443  11.430  0.8696 -0.9880  0.3528
 9010TIP3   OH248520   3.816   5.402   1.188  0.5044 -0.2159 -0.0982
 9010TIP3    H148521   3.735   5.391   1.238  0.6752 -2.4243 -0.2868
 9010TIP3    H248522   3.797   5.474   1.128 -1.9080 -1.8450 -1.3376
 9011TIP3   OH248523   1.820   2.706   4.603 -0.1908  0.5137  0.4263
 9011TIP3    H148524   1.758   2.778   4.610 -0.6580  0.3352 -1.5436
 9011TIP3    H248525   1.858   2.715   4.515  1.5823 -0.1659  1.0943
 9012TIP3   OH248526   0.367   3.071  14.518 -0.3864 -0.0155  0.1927
 9012TIP3    H148527   0.425   3.018  14.573 -0.1811  0.0062 -0.0043
 9012TIP3    H248528   0.348   3.148  14.571 -0.2336 -0.0205  0.2550
 9013TIP3   OH248529   0.842   1.908  14.359  0.4085  0.1312 -0.0468
 9013TIP3    H148530   0.796   1.981  14.319  1.9957  1.6144  0.7789
 9013TIP3    H248531   0.893   1.869  14.288  1.4070  1.3041  0.0235
 9014TIP3   OH248532   2.350   3.060  13.322  0.0316 -0.3719 -0.2237
 9014TIP3    H148533   2.361   2.965  13.327  0.3633 -0.4541 -2.1196
 9014TIP3    H248534   2.293   3.073  13.246 -0.8746  0.8999  0.6470
 9015TIP3   OH248535   6.058   6.227  15.340  0.1934  0.4560 -0.1381
 9015TIP3    H148536   6.104   6.302  15.303  0.8320  0.0753 -0.1204
 9015TIP3    H248537   6.120   6.155  15.335 -0.1225  0.1176  0.5908
 9016TIP3   OH248538   1.271   4.611  17.084  0.9241  0.6539  0.5704
 9016TIP3    H148539   1.219   4.552  17.030  1.0132  0.3948  0.7712
 9016TIP3    H248540   1.306   4.556  17.154 -0.1634  1.2311  1.5730
 9017TIP3   OH248541   0.295   0.301   0.684  0.1559  0.8092  0.3934
 9017TIP3    H148542   0.213   0.344   0.659 -0.8701 -0.3601  1.6876
 9017TIP3    H248543   0.323   0.345   0.764  0.5696  0.9145  0.1933
 9018TIP3   OH248544   1.790   0.999   2.011  0.2961 -0.5809 -0.2041
 9018TIP3    H148545   1.747   0.945   1.945  0.3307 -0.7592 -0.0826
 9018TIP3    H248546   1.869   1.033   1.968  1.1265 -1.9271  0.2092
 9019TIP3   OH248547   0.458   6.104   0.446  0.4907 -0.2780 -0.7149
 9019TIP3    H148548   0.412   6.158   0.382  0.2783 -0.6603 -0.8851
 9019TIP3    H248549   0.548   6.138   0.445  0.5597 -0.4660 -1.4291
 9020TIP3   OH248550   5.093   4.608  13.997  0.0961  0.2386 -0.4368
 9020TIP3    H148551   5.103   4.660  13.917 -4.0102  1.5721 -0.2209
 9020TIP3    H248552   5.139   4.527  13.979  3.5937  2.5032 -2.1823
 9021TIP3   OH248553   6.442   4.185   3.675  0.5457  0.0321  0.7687
 9021TIP3    H148554   6.508   4.155   3.737 -0.9004  0.5456  2.5962
 9021TIP3    H248555   6.491   4.209   3.597  2.5907  0.9274  2.2937
 9022TIP3   OH248556   2.126   4.611  15.914  0.2406  0.2312  0.3243
 9022TIP3    H148557   2.085   4.626  15.829  0.0288  1.3775  0.6249
 9022TIP3    H248558   2.210   4.655  15.908 -0.3000  1.4172  1.1355
 9023TIP3   OH248559   2.882   6.706  15.844  0.1065 -0.1424  0.8551
 9023TIP3    H148560   2.875   6.799  15.868 -0.5614  0.4114 -1.3792
 9023TIP3    H248561   2.792   6.674  15.847 -0.2144  0.3235 -2.2636
 9024TIP3   OH248562   2.416   1.512   2.255 -0.2541 -0.2972 -0.7930
 9024TIP3    H148563   2.419   1.433   2.310  1.8744  0.6536  0.5327
 9024TIP3    H248564   2.325   1.540   2.258 -0.2504 -0.4851  1.9675
 9025TIP3   OH248565   0.762   3.773   3.176  0.1709 -0.0396 -0.0860
 9025TIP3    H148566   0.671   3.745   3.166  0.2069 -0.0840 -0.2770
 9025TIP3    H248567   0.786   3.744   3.265  0.2093 -0.6193 -0.2831
 9026TIP3   OH248568   0.779   6.282   2.915  0.1492 -0.0786 -0.0867
 9026TIP3    H148569   0.799   6.344   2.985  0.5782  1.5958 -1.6536
 9026TIP3    H248570   0.864   6.241   2.895 -0.2822 -1.7647  1.4902
 9027TIP3   OH248571   0.515   3.168  13.789 -0.1310 -0.1333 -0.0999
 9027TIP3    H148572   0.475   3.241  13.742  0.1503  0.5489  0.7012
 9027TIP3    H248573   0.442   3.122  13.830 -0.3106 -0.3167 -0.6191
 9028TIP3   OH248574   0.807   4.248   5.800 -0.1676  0.3244 -0.0177
 9028TIP3    H148575   0.898   4.236   5.827 -0.8337 -1.4461  1.5387
 9028TIP3    H248576   0.759   4.266   5.881 -1.5602 -1.0547 -0.5066
 9029TIP3   OH248577   4.822   4.264  14.226 -0.6678 -0.0529  0.1578
 9029TIP3    H148578   4.829   4.359  14.229 -0.3624 -0.0171 -1.1106
 9029TIP3    H248579   4.729   4.247  14.218 -0.5485  0.2935 -2.6926
 9030TIP3   OH248580   2.773   5.516   1.109  0.0607 -0.3211  0.3368
 9030TIP3    H148581   2.707   5.563   1.060  0.1050 -0.6435 -0.0338
 9030TIP3    H248582   2.729   5.435   1.137  0.9039 -1.5074 -1.6639
 9031TIP3   OH248583   5.893   6.760  10.749 -0.2115 -0.4406 -0.1381
 9031TIP3    H148584   5.853   6.762  10.662  0.4185  0.7706 -0.4142
 9031TIP3    H248585   5.865   6.842  10.790  0.5350 -0.4055  0.3191
 9032TIP3   OH248586   6.535   6.670   3.991 -0.2694  0.5338 -0.4791
 9032TIP3    H148587   6.546   6.677   3.896 -1.0947 -1.2855 -0.7454
 9032TIP3    H248588   6.624   6.664   4.025  0.0047  0.3741 -1.2186
 9033TIP3   OH248589   2.500   0.019  13.921  0.4248  0.1125  0.2003
 9033TIP3    H148590   2.405   0.026  13.911 -0.0269 -1.1873  3.0789
 9033TIP3    H248591   2.534   0.104  13.893 -1.6814  1.0057  0.3006
 9034TIP3   OH248592   5.061   5.307   2.435  0.4442 -0.1327 -0.1552
 9034TIP3    H148593   5.111   5.226   2.445  0.3231 -0.2504 -0.5026
 9034TIP3    H248594   5.041   5.312   2.342  0.7396  0.4716 -0.1904
 9035TIP3   OH248595   0.219   1.848   0.309 -0.6757  0.5363  0.1198
 9035TIP3    H148596   0.180   1.774   0.263 -0.2598  0.7857 -0.6474
 9035TIP3    H248597   0.252   1.811   0.391 -0.2616 -0.1720 -0.3662
 9036TIP3   OH248598   4.073   3.715   4.376  0.2726 -0.3195  0.1732
 9036TIP3    H148599   4.141   3.655   4.407 -0.6522 -1.2240  0.4872
 9036TIP3    H248600   4.028   3.667   4.306  0.9535  0.8784 -1.0991
 9037TIP3   OH248601   2.770   2.143  14.537 -0.4800 -0.4344  0.1649
 9037TIP3    H148602   2.696   2.158  14.478  0.4865 -0.5104 -1.0804
 9037TIP3    H248603   2.749   2.193  14.616 -0.6572  1.6504 -1.1696
 9038TIP3   OH248604   0.956   3.329   0.380  0.3958  0.3402 -0.8147
 9038TIP3    H148605   1.015   3.348   0.307  0.0240  1.4029 -0.8435
 9038TIP3    H248606   0.973   3.398   0.443  0.7604 -0.6143  0.1409
 9039TIP3   OH248607   1.014   1.716  16.873  0.4416  1.1634  0.1480
 9039TIP3    H148608   0.978   1.803  16.854 -0.7666  0.6705  0.0823
 9039TIP3    H248609   0.978   1.694  16.958 -1.9141 -0.6058 -1.2476
 9040TIP3   OH248610   1.750   1.276  13.787  0.6078 -0.3435  0.1673
 9040TIP3    H148611   1.725   1.352  13.734 -1.2556 -0.9675  0.1056
 9040TIP3    H248612   1.688   1.277  13.860  0.6244 -1.7568  0.2098
 9041TIP3   OH248613   2.846   3.217  11.524 -0.3910 -0.1632  0.3389
 9041TIP3    H148614   2.820   3.310  11.523 -0.1386 -0.0800  1.5428
 9041TIP3    H248615   2.811   3.182  11.442  0.3638  1.2261 -0.5945
 9042TIP3   OH248616   4.758   3.919  15.458 -0.0892  0.1730 -0.3672
 9042TIP3    H148617   4.831   3.910  15.519 -0.8088  0.2875  0.5249
 9042TIP3    H248618   4.758   3.836  15.409  0.4098  0.0242 -0.1237
 9043TIP3   OH248619   0.495   6.630   4.132 -0.5673  0.0635 -0.2797
 9043TIP3    H148620   0.576   6.674   4.108 -1.0540  0.4996 -1.1550
 9043TIP3    H248621   0.426   6.690   4.105 -1.1740  0.0546  1.1919
 9044TIP3   OH248622   0.544   5.676   2.351 -0.2820  0.7660  0.2813
 9044TIP3    H148623   0.583   5.742   2.294  0.2848  0.9532  0.8695
 9044TIP3    H248624   0.461   5.715   2.380 -0.8102  0.4527 -0.8180
 9045TIP3   OH248625   0.669   3.472  14.408 -0.4800 -0.5245 -0.0199
 9045TIP3    H148626   0.591   3.527  14.400  0.0766  0.2751  0.0626
 9045TIP3    H248627   0.723   3.516  14.474  0.0914 -1.0221 -0.1511
 9046TIP3   OH248628   2.452   3.075  16.505  0.0439  0.2196  0.1094
 9046TIP3    H148629   2.490   3.000  16.460 -1.6746 -0.5771 -0.0766
 9046TIP3    H248630   2.390   3.111  16.443  0.6626  1.6415  0.3069
 9047TIP3   OH248631   4.205   5.911   3.964  0.3918  0.4831 -0.4209
 9047TIP3    H148632   4.212   5.839   3.900  2.1387  0.7732 -0.5893
 9047TIP3    H248633   4.291   5.952   3.963 -0.4336  2.2771  0.0640
 9048TIP3   OH248634   5.027   4.075  15.143 -0.0372 -0.1792  0.0078
 9048TIP3    H148635   5.078   4.018  15.201 -0.3934  0.8086  1.3202
 9048TIP3    H248636   5.080   4.154  15.135 -0.8349  0.4028  0.4539
 9049TIP3   OH248637   2.674   5.250   5.954  0.2883 -0.1019  0.3671
 9049TIP3    H148638   2.622   5.173   5.977  0.3328 -0.3895 -0.4725
 9049TIP3    H248639   2.759   5.214   5.926 -0.9816 -0.0485 -3.7945
 9050TIP3   OH248640   3.094   3.992   3.836 -0.2658  0.1537  0.1324
 9050TIP3    H148641   3.111   4.071   3.887  1.8370 -0.5699  0.5929
 9050TIP3    H248642   3.044   3.935   3.895 -0.9809  0.7653  0.1169
 9051TIP3   OH248643   1.851   5.587   3.857  0.2305 -0.3243  0.2835
 9051TIP3    H148644   1.819   5.582   3.767 -1.0251  0.1110  0.6961
 9051TIP3    H248645   1.839   5.679   3.882  0.7593 -0.3979  0.8291
 9052TIP3   OH248646   6.098   5.160   4.618  0.7665 -0.7025 -0.5829
 9052TIP3    H148647   6.161   5.201   4.676 -0.4203 -1.5212  1.3194
 9052TIP3    H248648   6.022   5.142   4.673  0.3951 -3.4012 -1.9006
 9053TIP3   OH248649   4.272   6.725   4.074  0.4260  0.5407  0.1670
 9053TIP3    H148650   4.321   6.713   4.156  0.5802  0.1705  0.0232
 9053TIP3    H248651   4.269   6.820   4.061 -1.0993  0.6850  1.5086
 9054TIP3   OH248652   2.264   1.253   1.823 -0.0621  0.2056 -0.2964
 9054TIP3    H148653   2.260   1.190   1.750  0.0931  0.9434 -0.9485
 9054TIP3    H248654   2.200   1.321   1.799 -3.0587 -1.5940  2.2334
 9055TIP3   OH248655   6.559   5.390   6.062 -0.3887 -0.0474  0.5514
 9055TIP3    H148656   6.582   5.347   5.980  0.5530  1.2302  0.1214
 9055TIP3    H248657   6.562   5.320   6.127  0.4156 -0.7799 -0.2494
 9056TIP3   OH248658   6.383   5.547  14.526 -0.6653 -0.0648 -0.0493
 9056TIP3    H148659   6.404   5.638  14.547 -0.3848 -0.1892  0.2198
 9056TIP3    H248660   6.398   5.500  14.608 -0.9217 -0.3342 -0.1577
 9057TIP3   OH248661   5.162   0.171   3.034  0.0701  0.1136  0.2744
 9057TIP3    H148662   5.111   0.233   3.086  1.6605  0.9968  0.7944
 9057TIP3    H248663   5.253   0.197   3.047  0.6042 -0.8177 -1.4631
 9058TIP3   OH248664   6.052   0.887  11.794 -0.5689  0.0661 -0.3580
 9058TIP3    H148665   6.110   0.939  11.740  1.2466 -0.8052  0.6920
 9058TIP3    H248666   6.068   0.796  11.767  0.1042 -0.3500  1.3740
 9059TIP3   OH248667   3.672   5.237  13.429  0.3431 -0.1526 -0.2163
 9059TIP3    H148668   3.720   5.210  13.351  0.2937 -0.0257 -0.2925
 9059TIP3    H248669   3.588   5.270  13.395  0.5452  0.4342 -0.1636
 9060TIP3   OH248670   5.390   3.443  11.114  0.2638  0.4933  0.3891
 9060TIP3    H148671   5.372   3.385  11.188 -0.8403 -0.6518 -0.7508
 9060TIP3    H248672   5.462   3.402  11.067 -0.6276 -0.0727 -0.5129
 9061TIP3   OH248673   3.921   4.500  14.223  0.1280 -1.0423 -0.1093
 9061TIP3    H148674   3.965   4.581  14.248 -1.6235 -0.6053  1.6739
 9061TIP3    H248675   3.989   4.432  14.233  1.4067  0.0841 -0.9484
 9062TIP3   OH248676   6.299   4.874   2.150 -0.4446 -0.4933 -0.5777
 9062TIP3    H148677   6.221   4.875   2.205 -1.0389 -1.5374 -1.3776
 9062TIP3    H248678   6.346   4.796   2.177  0.8086  0.6319  0.5433
 9063TIP3   OH248679   5.146   3.009   0.119 -0.0572  0.7632  0.3702
 9063TIP3    H148680   5.228   2.961   0.135  0.9777  2.1561 -0.5790
 9063TIP3    H248681   5.140   3.072   0.190 -0.5355  0.3858  0.6701
 9064TIP3   OH248682   2.034   5.029  14.817 -0.0640  0.2507  0.0336
 9064TIP3    H148683   2.067   5.110  14.855  0.2372  0.6288 -1.0096
 9064TIP3    H248684   1.955   5.054  14.771 -0.5515 -0.2460  0.5876
 9065TIP3   OH248685   6.642   0.121   0.132 -0.8637 -0.0111  0.0816
 9065TIP3    H148686   6.711   0.107   0.067 -2.6499  2.3238 -2.4838
 9065TIP3    H248687   6.604   0.034   0.147  0.4701 -0.7905 -0.9832
 9066TIP3   OH248688   0.512   0.334  14.974  0.3649  0.3003 -0.1933
 9066TIP3    H148689   0.558   0.326  14.891  1.5626 -0.4222  0.5309
 9066TIP3    H248690   0.471   0.248  14.987 -1.7170  1.1241 -1.1262
 9067TIP3   OH248691   2.289   3.233  11.529  0.2439 -0.0785  0.2926
 9067TIP3    H148692   2.228   3.174  11.486  1.7221  0.1307 -2.1888
 9067TIP3    H248693   2.338   3.177  11.589  0.2359 -1.0088 -0.5532
 9068TIP3   OH248694   1.758   1.314   2.833 -0.1746  0.2096 -0.0081
 9068TIP3    H148695   1.812   1.307   2.755  1.6275 -0.8048  1.3032
 9068TIP3    H248696   1.670   1.292   2.803  0.6996 -1.3418 -1.5356
 9069TIP3   OH248697   5.998   1.761  16.549 -0.1168  0.1796  0.6707
 9069TIP3    H148698   5.904   1.761  16.568 -0.2145  1.5627  0.2310
 9069TIP3    H248699   6.002   1.770  16.453  0.4596 -0.1270  0.6651
 9070TIP3   OH248700   1.920   1.321  13.475 -0.1687 -0.2852  0.4337
 9070TIP3    H148701   1.855   1.251  13.486  0.6726 -1.0820  0.3248
 9070TIP3    H248702   1.951   1.311  13.385 -2.1087  2.0225 -0.5828
 9071TIP3   OH248703   0.038   2.695   2.268 -0.0335 -0.4716 -0.3680
 9071TIP3    H148704   0.004   2.671   2.182 -0.9450 -0.3205 -0.0538
 9071TIP3    H248705   0.071   2.612   2.304  0.7340 -0.4579 -1.0248
 9072TIP3   OH248706   4.785   0.759  15.643 -0.5279 -0.4727 -0.3541
 9072TIP3    H148707   4.788   0.854  15.630  0.3038 -0.5578 -0.8529
 9072TIP3    H248708   4.868   0.728  15.606 -0.9418 -1.4249 -0.4853
 9073TIP3   OH248709   6.273   1.423  10.943  0.2527  0.0668 -0.2115
 9073TIP3    H148710   6.360   1.396  10.914 -0.7752 -1.0827 -2.3629
 9073TIP3    H248711   6.261   1.379  11.027  1.1932 -0.8859 -0.5569
 9074TIP3   OH248712   2.912   0.989  16.774 -0.1165  0.9075 -0.2777
 9074TIP3    H148713   2.845   0.951  16.716  2.0040  0.1329 -2.2730
 9074TIP3    H248714   2.948   0.915  16.822 -0.3328  1.2744  0.4719
 9075TIP3   OH248715   1.086   5.283  15.619 -0.2214  0.1428  0.0130
 9075TIP3    H148716   0.996   5.278  15.587  0.4252  0.7996 -2.0181
 9075TIP3    H248717   1.114   5.373  15.599  0.2220  0.5953  2.4997
 9076TIP3   OH248718   6.167   6.025   4.625  0.0835 -0.0404 -0.4015
 9076TIP3    H148719   6.134   5.954   4.570  1.8177 -0.3606 -1.0416
 9076TIP3    H248720   6.091   6.083   4.636 -1.1530 -1.6012 -0.4632
 9077TIP3   OH248721   3.298   2.870   1.014 -0.1051  0.0984 -0.6964
 9077TIP3    H148722   3.388   2.853   1.041 -0.2953  0.8706  0.4292
 9077TIP3    H248723   3.257   2.783   1.014  0.0957  0.0031  0.7684
 9078TIP3   OH248724   6.449   6.257  12.240 -0.5516  0.1063 -0.2315
 9078TIP3    H148725   6.405   6.281  12.158 -0.3517  0.4415 -0.2368
 9078TIP3    H248726   6.494   6.175  12.219 -1.0239 -0.1440 -0.2771
 9079TIP3   OH248727   5.202   2.129   1.092  0.6463 -0.1959 -0.7010
 9079TIP3    H148728   5.142   2.171   1.030  1.0685 -0.4091 -1.2539
 9079TIP3    H248729   5.151   2.121   1.173  0.1317  0.1829 -0.9848
 9080TIP3   OH248730   3.033   0.540  17.193 -0.3875 -0.2313  0.0006
 9080TIP3    H148731   3.120   0.501  17.183 -1.3665 -3.0330  1.7207
 9080TIP3    H248732   2.979   0.497  17.126 -0.2530  2.2866 -1.7933
 9081TIP3   OH248733   3.927   0.140  16.473  0.4858 -0.1345  0.7739
 9081TIP3    H148734   3.966   0.227  16.481  2.0727 -0.7055 -0.3700
 9081TIP3    H248735   3.835   0.156  16.450  1.0358  1.2479 -0.5300
 9082TIP3   OH248736   5.739   1.275  12.075 -0.6675  0.8041 -0.4746
 9082TIP3    H148737   5.776   1.305  12.158 -2.2846  0.3461  0.4377
 9082TIP3    H248738   5.647   1.302  12.079 -1.0190 -0.1691 -1.6509
 9083TIP3   OH248739   6.038   1.548   1.921 -0.0047 -0.4806  0.0068
 9083TIP3    H148740   6.049   1.464   1.966 -0.6217  0.3152  1.7158
 9083TIP3    H248741   5.968   1.591   1.970 -0.4945  0.5559 -1.5790
 9084TIP3   OH248742   0.980   2.356   4.948  0.5285 -0.7830  0.3053
 9084TIP3    H148743   0.944   2.301   4.877  1.2559 -1.6803  0.6265
 9084TIP3    H248744   1.069   2.375   4.921  0.2609  0.3173  0.1667
 9085TIP3   OH248745   4.901   1.254   1.396  0.2076  0.8483  0.0590
 9085TIP3    H148746   4.896   1.335   1.446  0.3816  0.8928  0.0055
 9085TIP3    H248747   4.929   1.188   1.460 -0.0701  0.8020  0.1334
 9086TIP3   OH248748   0.011   6.291  16.529  0.1160  0.3579 -0.2181
 9086TIP3    H148749   0.044   6.245  16.452  0.4581  0.8301 -0.3546
 9086TIP3    H248750  -0.064   6.340  16.497  0.7071  1.1437 -0.4181
 9087TIP3   OH248751   1.801   6.652  16.304  0.2027 -0.8818 -0.6748
 9087TIP3    H148752   1.832   6.649  16.213 -0.5926  1.3119 -1.0418
 9087TIP3    H248753   1.721   6.705  16.301  1.5903  1.4648  1.6784
 9088TIP3   OH248754   4.540   4.768   1.620 -0.2244 -0.1596  0.0254
 9088TIP3    H148755   4.615   4.806   1.573 -0.4519 -1.7348 -1.6608
 9088TIP3    H248756   4.465   4.785   1.563 -0.6625 -1.2430  0.2713
 9089TIP3   OH248757   5.351   1.198   5.171 -0.4386 -0.3548  0.5887
 9089TIP3    H148758   5.327   1.238   5.254  1.2367  1.6691  0.1399
 9089TIP3    H248759   5.368   1.272   5.113  2.8091 -1.6959 -0.2599
 9090TIP3   OH248760   5.559   0.182  13.786 -0.4795  0.4312 -0.0012
 9090TIP3    H148761   5.567   0.088  13.776 -0.5891  0.4850 -0.6474
 9090TIP3    H248762   5.620   0.205  13.856 -1.9821 -0.3816  1.6006
 9091TIP3   OH248763   6.052   1.834   1.012 -0.4975 -0.3855 -0.3273
 9091TIP3    H148764   6.065   1.815   1.105 -1.2435 -1.0647 -0.3555
 9091TIP3    H248765   6.105   1.912   0.996  1.2464 -1.4469  0.1929
 9092TIP3   OH248766   4.786   3.098   1.197 -0.1329 -0.1506  0.7270
 9092TIP3    H148767   4.872   3.098   1.156 -0.4613  0.0197  0.0307
 9092TIP3    H248768   4.776   3.186   1.233 -0.2588  0.0181  0.2843
 9093TIP3   OH248769   2.674   1.506   5.111 -0.2275 -0.3861 -0.0609
 9093TIP3    H148770   2.760   1.538   5.139 -0.2161  2.1096 -2.6573
 9093TIP3    H248771   2.612   1.549   5.170  0.1368  0.2848 -0.1600
 9094TIP3   OH248772   0.420   4.736   0.591 -0.0923 -0.2207 -0.0061
 9094TIP3    H148773   0.395   4.653   0.633 -0.7668  0.7612  1.5847
 9094TIP3    H248774   0.511   4.749   0.617  0.2045 -0.7664 -0.7659
 9095TIP3   OH248775   3.228   0.249   4.835 -0.0023 -0.2998 -0.8383
 9095TIP3    H148776   3.305   0.231   4.782  0.3365 -0.5107 -0.2723
 9095TIP3    H248777   3.241   0.338   4.868  0.1590 -0.4628 -0.4641
 9096TIP3   OH248778   5.845   5.220  16.765 -0.2038  0.2714  0.2697
 9096TIP3    H148779   5.835   5.303  16.810 -0.5837 -0.1202  0.9204
 9096TIP3    H248780   5.939   5.204  16.763 -0.2319 -0.0882  1.6200
 9097TIP3   OH248781   5.117   4.489   0.971 -0.3050  0.3302  0.0296
 9097TIP3    H148782   5.121   4.579   0.940  1.4892  0.2507 -0.0249
 9097TIP3    H248783   5.026   4.463   0.957 -0.7729  2.0322 -0.2051
 9098TIP3   OH248784   4.976   1.135   0.334 -0.1486 -0.2016 -0.4351
 9098TIP3    H148785   4.895   1.103   0.293 -0.9789 -0.7841  1.6136
 9098TIP3    H248786   5.044   1.076   0.302 -0.3329  0.8647 -2.9356
 9099TIP3   OH248787   1.474   4.001  16.753  0.8440  0.2187 -0.3937
 9099TIP3    H148788   1.565   3.980  16.736  0.6516 -0.4028 -0.6793
 9099TIP3    H248789   1.430   3.916  16.756  0.1659  0.5455 -0.9045
 9100TIP3   OH248790   0.050   5.895   3.737  0.0385  0.1939  0.9070
 9100TIP3    H148791  -0.035   5.856   3.714 -0.4978  1.2290  1.0870
 9100TIP3    H248792   0.094   5.827   3.789 -0.2903 -0.7056  0.0410
 9101TIP3   OH248793   1.899   2.941   1.665  0.1035 -0.2134  0.1549
 9101TIP3    H148794   1.926   3.032   1.674  1.1118 -0.4127 -0.8084
 9101TIP3    H248795   1.941   2.911   1.584  1.9692 -2.2993  1.8207
 9102TIP3   OH248796   0.472   4.875   2.332 -0.2146 -0.2123 -0.5495
 9102TIP3    H148797   0.417   4.882   2.254  1.2897 -1.1572 -1.7314
 9102TIP3    H248798   0.448   4.791   2.371  0.2627 -0.5413 -0.9646
 9103TIP3   OH248799   5.381   1.348   0.075 -0.4059  0.6312 -0.3665
 9103TIP3    H148800   5.348   1.363   0.164 -0.7615 -1.1886 -0.1742
 9103TIP3    H248801   5.424   1.263   0.080  0.6865  1.0992 -1.6451
 9104TIP3   OH248802   2.953   1.399  10.686 -0.2577  0.1518 -0.6013
 9104TIP3    H148803   2.886   1.364  10.628 -0.6487 -1.2210  0.6432
 9104TIP3    H248804   3.031   1.346  10.668  0.2701  1.2262 -1.4885
 9105TIP3   OH248805   6.215   6.435  12.480  0.4651  0.0184  0.2272
 9105TIP3    H148806   6.296   6.467  12.441  0.7782 -0.1398  0.7348
 9105TIP3    H248807   6.161   6.513  12.491  0.8890  0.2505  0.6805
 9106TIP3   OH248808   6.628   3.204   0.158  0.1103 -0.1153 -0.3836
 9106TIP3    H148809   6.687   3.279   0.155  0.3232 -0.1331  2.3463
 9106TIP3    H248810   6.543   3.240   0.135 -0.1144  1.3411  2.5298
 9107TIP3   OH248811   0.908   4.867  13.197 -0.3758 -0.5512  0.6280
 9107TIP3    H148812   0.914   4.928  13.123  0.0715 -0.2886  0.8817
 9107TIP3    H248813   0.833   4.811  13.175 -0.1255 -0.6036 -0.1194
 9108TIP3   OH248814   6.050   1.188   5.404  0.1563  0.5937 -0.1129
 9108TIP3    H148815   6.026   1.270   5.448 -0.5504 -0.6664  1.9261
 9108TIP3    H248816   5.973   1.133   5.413  0.4446 -0.1353 -1.9384
 9109TIP3   OH248817   0.918   5.257   0.898  0.3186 -0.1070  0.1402
 9109TIP3    H148818   0.848   5.194   0.884  0.1478  0.0853  0.1197
 9109TIP3    H248819   0.880   5.341   0.871  0.7259 -0.0808 -0.3546
 9110TIP3   OH248820   1.055   6.714  14.690  0.2980  0.2720  0.4336
 9110TIP3    H148821   1.075   6.788  14.634 -1.2206  0.1736 -0.2348
 9110TIP3    H248822   0.986   6.666  14.645 -0.9137  0.1661  2.3498
 9111TIP3   OH248823   0.075   2.976   2.267 -0.0984  0.2391 -0.3363
 9111TIP3    H148824   0.097   2.975   2.173 -2.7132 -0.6287 -0.9785
 9111TIP3    H248825   0.045   2.886   2.285  1.8815 -0.0358  1.7287
 9112TIP3   OH248826   4.710   0.394   1.396 -0.3367  0.5770 -0.7647
 9112TIP3    H148827   4.766   0.459   1.439 -1.0660  1.1654 -0.6960
 9112TIP3    H248828   4.623   0.433   1.396 -0.6978 -0.2101 -1.1340
 9113TIP3   OH248829   3.233   6.423   0.276  0.2798 -0.2063  0.4029
 9113TIP3    H148830   3.157   6.478   0.295 -0.2265 -0.9250  0.4616
 9113TIP3    H248831   3.306   6.484   0.274 -0.2374  0.4345  0.7546
 9114TIP3   OH248832   5.144   1.207  13.568 -0.4823  0.2014 -0.1140
 9114TIP3    H148833   5.076   1.220  13.502  0.2011 -1.5670 -1.2374
 9114TIP3    H248834   5.192   1.130  13.537  0.7616  0.2041  1.7124
 9115TIP3   OH248835   3.591   2.217  11.315  0.1568 -0.3228 -0.4906
 9115TIP3    H148836   3.621   2.126  11.320  0.5766 -0.1475  0.1290
 9115TIP3    H248837   3.549   2.223  11.229  0.1482 -1.0971 -0.5445
 9116TIP3   OH248838   4.138   6.044  13.802  0.6533 -0.1586 -0.0852
 9116TIP3    H148839   4.082   5.992  13.860  0.6665 -1.6817 -1.4126
 9116TIP3    H248840   4.204   6.082  13.860  0.8733 -1.9291  0.8592
 9117TIP3   OH248841   2.937   4.510   2.605  0.4608 -0.1828  0.4011
 9117TIP3    H148842   2.939   4.427   2.557  1.9850  0.1475 -0.1466
 9117TIP3    H248843   2.850   4.545   2.589 -0.0845 -1.5074  0.3499
 9118TIP3   OH248844   5.580   2.311  11.528  0.4701  0.2484 -0.6919
 9118TIP3    H148845   5.573   2.284  11.436 -1.5993  0.9376 -0.7616
 9118TIP3    H248846   5.503   2.274  11.570  0.6032  1.2139  0.4263
 9119TIP3   OH248847   1.721   2.924   3.014 -0.2340  0.6461  0.4336
 9119TIP3    H148848   1.693   2.995   2.956  1.1779  3.3615  2.9449
 9119TIP3    H248849   1.808   2.901   2.983 -0.3817  0.5212  0.1040
 9120TIP3   OH248850   4.526   5.554   3.896 -0.1428 -0.0525  0.4869
 9120TIP3    H148851   4.535   5.604   3.977 -0.2612  0.6152  0.0907
 9120TIP3    H248852   4.551   5.464   3.920  1.5911  0.5121  0.8242
 9121TIP3   OH248853   1.868   0.902  16.070 -0.6148  0.4670 -0.5588
 9121TIP3    H148854   1.845   0.993  16.089  0.7516  0.7935 -0.4003
 9121TIP3    H248855   1.964   0.900  16.075 -0.7772 -1.6804  2.5182
 9122TIP3   OH248856   1.584   0.224  16.628 -0.7064 -0.3441  0.1824
 9122TIP3    H148857   1.512   0.163  16.644 -0.2532 -1.0658 -0.4954
 9122TIP3    H248858   1.554   0.308  16.665 -2.7049 -0.1332 -1.8379
 9123TIP3   OH248859   0.307   0.019   0.268 -0.1165  0.0136  0.0541
 9123TIP3    H148860   0.319  -0.023   0.183  0.7199  0.0473  0.1539
 9123TIP3    H248861   0.317   0.112   0.251 -0.7592  0.0844  0.0505
 9124TIP3   OH248862   4.057   1.944   4.480  0.3284 -0.2330  0.2000
 9124TIP3    H148863   4.025   2.029   4.510 -0.4400 -0.2449 -0.5608
 9124TIP3    H248864   4.151   1.956   4.468  0.2864  0.3884  0.4890
 9125TIP3   OH248865   6.563   6.595  15.398 -0.0745 -0.1610 -0.0644
 9125TIP3    H148866   6.522   6.612  15.483 -0.3288 -1.1435  0.0133
 9125TIP3    H248867   6.613   6.515  15.411  1.4586  0.7421 -0.3113
 9126TIP3   OH248868   3.659   5.182   3.180 -0.1343  0.1926 -0.3317
 9126TIP3    H148869   3.664   5.277   3.169 -0.1847  0.0426 -1.7010
 9126TIP3    H248870   3.573   5.158   3.144 -1.2247 -0.0825  2.2904
 9127TIP3   OH248871   5.013   5.639   0.291  0.1897  0.0330  0.1520
 9127TIP3    H148872   4.926   5.614   0.320  0.3739 -1.5811 -0.6624
 9127TIP3    H248873   5.026   5.727   0.328 -1.8798  0.4161  0.0207
 9128TIP3   OH248874   3.193   0.094   3.015 -0.4417  0.5861  0.1815
 9128TIP3    H148875   3.264   0.120   2.957 -0.4994 -1.4627 -0.8426
 9128TIP3    H248876   3.238   0.055   3.091 -0.4344 -1.3156 -0.7589
 9129TIP3   OH248877   4.134   6.507  14.895  0.1319 -0.2823 -0.4596
 9129TIP3    H148878   4.067   6.503  14.827 -0.1887  2.3309 -0.3653
 9129TIP3    H248879   4.111   6.437  14.956 -1.2103 -0.8462 -1.5820
 9130TIP3   OH248880   6.287   4.174  15.877  0.7943  0.5179  0.3234
 9130TIP3    H148881   6.218   4.140  15.821 -0.2210  3.1842 -0.1393
 9130TIP3    H248882   6.291   4.114  15.951 -0.4759 -0.9031 -0.7467
 9131TIP3   OH248883   6.042   3.786  13.937 -0.2216 -0.0640 -0.4627
 9131TIP3    H148884   6.068   3.767  14.027 -0.9555 -2.5933 -0.7284
 9131TIP3    H248885   5.959   3.834  13.945 -0.5558 -0.7370  0.2101
 9132TIP3   OH248886   0.192   6.104  15.332 -0.1747 -0.0892 -0.0769
 9132TIP3    H148887   0.254   6.063  15.393  0.2331 -2.6672 -2.1033
 9132TIP3    H248888   0.238   6.180  15.298  1.0239 -0.7094  0.1181
 9133TIP3   OH248889   6.073   5.689  11.530 -0.1520 -0.3820 -0.3999
 9133TIP3    H148890   6.006   5.714  11.594  0.0775 -0.8502  0.0268
 9133TIP3    H248891   6.155   5.694  11.579  0.1404  0.3015 -0.9511
 9134TIP3   OH248892   3.077   6.782   5.423 -0.0850  0.1959  0.2835
 9134TIP3    H148893   3.101   6.723   5.352 -2.5335  0.0995 -0.5311
 9134TIP3    H248894   3.130   6.754   5.498  0.2147 -1.7457 -0.6330
 9135TIP3   OH248895   4.167   5.120   2.365  0.6910 -0.5698  0.3083
 9135TIP3    H148896   4.082   5.158   2.344  0.5243 -0.8588  0.4554
 9135TIP3    H248897   4.155   5.078   2.450  0.3404 -2.5547 -0.7015
 9136TIP3   OH248898   0.263   2.359  14.323 -0.1860 -0.5663 -0.0294
 9136TIP3    H148899   0.269   2.343  14.417 -0.6377  1.1395  0.3194
 9136TIP3    H248900   0.281   2.453  14.314 -1.9288 -0.3409 -1.4520
 9137TIP3   OH248901   1.806   3.393   1.829  0.3302 -0.7349 -0.4491
 9137TIP3    H148902   1.765   3.351   1.754 -0.5897  0.8100 -0.8225
 9137TIP3    H248903   1.900   3.393   1.808  0.9092 -6.2163  1.3726
 9138TIP3   OH248904   2.264   2.260   5.244 -0.0655  0.0330 -0.0684
 9138TIP3    H148905   2.247   2.319   5.170  1.2526 -1.0643 -1.2769
 9138TIP3    H248906   2.336   2.302   5.291  0.7260 -0.4755 -0.8049
 9139TIP3   OH248907   1.203   5.573   0.896 -0.4661 -0.1594  0.1582
 9139TIP3    H148908   1.178   5.505   0.959  1.8339  0.4480  1.7750
 9139TIP3    H248909   1.275   5.534   0.846  0.4006  0.8094  0.6302
 9140TIP3   OH248910   4.651   0.846  13.072 -0.0559  0.4291  0.9442
 9140TIP3    H148911   4.649   0.817  12.981  0.9437  1.2237  0.6515
 9140TIP3    H248912   4.575   0.902  13.081  1.0298  2.1076 -0.0319
 9141TIP3   OH248913   4.533   4.775  16.479 -0.1342 -0.3503  0.4075
 9141TIP3    H148914   4.512   4.828  16.403  0.2498  1.7210  1.6971
 9141TIP3    H248915   4.459   4.715  16.488 -1.4482  1.1633 -0.0579
 9142TIP3   OH248916   6.241   1.945  13.218  0.0432 -0.8005 -0.3167
 9142TIP3    H148917   6.170   1.891  13.184 -2.2693  2.1359 -0.3782
 9142TIP3    H248918   6.224   1.950  13.312 -2.2443  3.1228 -0.8370
 9143TIP3   OH248919   2.063   3.802  16.747 -0.3966 -0.3766  0.7013
 9143TIP3    H148920   2.072   3.713  16.711  0.1738 -0.1259  0.2116
 9143TIP3    H248921   2.118   3.801  16.825 -1.8752 -1.0129  1.7297
 9144TIP3   OH248922   0.875   3.731   5.472 -0.0697 -0.3677 -0.3788
 9144TIP3    H148923   0.895   3.638   5.461 -0.8858 -0.8274  1.8753
 9144TIP3    H248924   0.903   3.751   5.561  2.3447  2.1700 -1.6299
 9145TIP3   OH248925   0.740   2.831   2.921 -0.5586  0.3712  0.0789
 9145TIP3    H148926   0.707   2.741   2.916 -0.9325  0.4381  1.1748
 9145TIP3    H248927   0.680   2.874   2.981 -0.1348  1.2554 -0.1336
 9146TIP3   OH248928   3.613   6.671  16.531  0.1011  0.5936 -0.1627
 9146TIP3    H148929   3.621   6.743  16.468  0.6242  1.0249  0.3915
 9146TIP3    H248930   3.668   6.602  16.495  4.2958  2.5362  2.1989
 9147TIP3   OH248931   5.154   3.876  14.336  0.0377  0.1201  0.1748
 9147TIP3    H148932   5.182   3.831  14.416 -1.5706 -1.8055 -0.3087
 9147TIP3    H248933   5.071   3.917  14.360 -0.1751  0.0002 -0.3584
 9148TIP3   OH248934   2.925   3.470   0.129 -0.0340 -0.0168  0.4376
 9148TIP3    H148935   2.857   3.461   0.063  0.4548  0.9944 -0.2163
 9148TIP3    H248936   2.970   3.551   0.107  0.7877 -0.1876  1.4144
 9149TIP3   OH248937   2.960   6.564  14.257 -0.6104 -0.0798 -0.3042
 9149TIP3    H148938   3.015   6.642  14.265 -0.7097  0.2531 -2.6553
 9149TIP3    H248939   3.022   6.492  14.243 -0.6553 -0.0324 -0.7507
 9150TIP3   OH248940   4.281   5.077   2.851 -0.3046 -0.0469  0.0747
 9150TIP3    H148941   4.367   5.079   2.893 -1.0817 -1.6018  1.8051
 9150TIP3    H248942   4.235   5.153   2.887 -1.2092 -1.7533  2.6707
 9151TIP3   OH248943   2.552   2.643  12.058  0.2168 -0.5213 -0.3777
 9151TIP3    H148944   2.580   2.682  11.976 -2.5147  1.2522 -0.5329
 9151TIP3    H248945   2.460   2.671  12.068  0.1797 -1.5523  2.7315
 9152TIP3   OH248946   6.702   2.058   3.649  0.3156 -1.0734  0.5911
 9152TIP3    H148947   6.679   2.105   3.729 -1.6477 -1.8823  0.5290
 9152TIP3    H248948   6.713   1.967   3.677  4.6638 -0.5786  0.8246
 9153TIP3   OH248949   3.451   0.214  16.330 -0.0201  0.3352 -0.1105
 9153TIP3    H148950   3.471   0.307  16.316  0.0466  0.2983 -0.2603
 9153TIP3    H248951   3.381   0.214  16.395 -1.8007  0.6058 -1.9792
 9154TIP3   OH248952   1.266   3.884   2.908 -0.2761 -0.0927  0.0612
 9154TIP3    H148953   1.342   3.926   2.947 -0.7187  1.8933 -1.1113
 9154TIP3    H248954   1.199   3.885   2.976 -0.2921  1.2140  0.0470
 9155TIP3   OH248955   4.905   4.992  13.066  0.1258  0.2348  0.4496
 9155TIP3    H148956   4.829   4.939  13.044  0.4731  0.2673 -0.8463
 9155TIP3    H248957   4.871   5.080  13.079  0.2608  0.7899 -2.6357
 9156TIP3   OH248958   3.850   6.348   3.043  0.1226  0.1649 -0.6228
 9156TIP3    H148959   3.770   6.297   3.056 -0.9015  1.8721 -0.1987
 9156TIP3    H248960   3.909   6.318   3.113 -0.6006 -0.1823 -0.1588
 9157TIP3   OH248961   4.317   2.374  17.138  0.0983  0.0702 -0.6787
 9157TIP3    H148962   4.267   2.446  17.099  0.1990 -0.3751 -1.6446
 9157TIP3    H248963   4.385   2.417  17.189  0.5406  0.6777 -1.7475
 9158TIP3   OH248964   4.794   1.845  11.420 -0.5561 -0.2108  0.3640
 9158TIP3    H148965   4.882   1.858  11.386 -0.6868 -0.2948 -0.0065
 9158TIP3    H248966   4.807   1.806  11.507 -0.2443 -0.7737  0.0664
 9159TIP3   OH248967   5.060   4.951   6.063 -0.4753 -0.9219 -0.3114
 9159TIP3    H148968   5.047   4.878   6.002 -0.2244 -0.2789 -1.1436
 9159TIP3    H248969   5.150   4.980   6.046 -1.2702  0.9526 -1.4968
 9160TIP3   OH248970   3.621   3.187  15.900 -0.0925 -0.0530 -0.4051
 9160TIP3    H148971   3.560   3.254  15.932 -0.4145 -0.4323 -0.2124
 9160TIP3    H248972   3.645   3.138  15.979  2.3274  1.5610 -0.0757
 9161TIP3   OH248973   1.653   4.236  11.339 -0.4371 -0.0546 -0.0719
 9161TIP3    H148974   1.619   4.227  11.250 -0.4031 -1.2332  0.0190
 9161TIP3    H248975   1.748   4.237  11.328 -0.3842 -1.9541  0.0770
 9162TIP3   OH248976   3.514   6.240   4.906  0.0688 -0.1146 -0.0017
 9162TIP3    H148977   3.551   6.161   4.943  1.3279 -0.6757 -2.3829
 9162TIP3    H248978   3.502   6.220   4.813 -0.6939  2.0726 -0.4037
 9163TIP3   OH248979   5.342   6.029  16.227 -0.2878  0.6435 -0.2831
 9163TIP3    H148980   5.434   6.010  16.211 -0.4365  0.6191 -1.1460
 9163TIP3    H248981   5.322   5.982  16.308 -0.1298 -1.3163 -1.3289
 9164TIP3   OH248982   4.065   5.843  11.836 -0.9997 -0.3175 -0.1577
 9164TIP3    H148983   4.132   5.817  11.773  0.2668 -0.3799  1.2023
 9164TIP3    H248984   4.017   5.913  11.791 -0.0708 -0.3182 -1.1782
 9165TIP3   OH248985   2.538   6.759   4.004 -0.2235 -0.0715 -0.3813
 9165TIP3    H148986   2.472   6.815   3.961 -0.3525  0.2243  0.1986
 9165TIP3    H248987   2.619   6.777   3.957 -0.8276 -1.4667 -2.0106
 9166TIP3   OH248988   1.226   5.914  13.698 -0.3088  0.1595 -0.5709
 9166TIP3    H148989   1.288   5.859  13.746 -0.3937  0.7956  0.2771
 9166TIP3    H248990   1.278   5.986  13.664 -0.3467 -0.0088 -0.9953
 9167TIP3   OH248991   2.468   2.583   2.123  0.0103 -0.3269  0.4633
 9167TIP3    H148992   2.491   2.493   2.148  0.7379 -0.3617 -0.2985
 9167TIP3    H248993   2.544   2.635   2.148 -0.2364  0.0101  0.5103
 9168TIP3   OH248994   1.422   6.171  17.040  0.2324  0.0029  0.1623
 9168TIP3    H148995   1.508   6.140  17.009  0.2351  0.4274 -0.2718
 9168TIP3    H248996   1.389   6.224  16.967 -0.4532 -0.2593  0.2862
 9169TIP3   OH248997   3.593   0.516  15.587  0.2213 -0.2260  0.2900
 9169TIP3    H148998   3.591   0.485  15.678 -1.1745  0.8761  0.6467
 9169TIP3    H248999   3.686   0.514  15.563  0.3446 -3.1617  0.8200
 9170TIP3   OH249000   4.707   4.596   4.192 -0.1104  0.0720  0.3628
 9170TIP3    H149001   4.731   4.528   4.128  0.4162  2.2721 -1.8456
 9170TIP3    H249002   4.618   4.620   4.169  0.8769  2.5187 -1.1126
 9171TIP3   OH249003   6.590   0.538   4.508  0.5513  0.2675  0.0186
 9171TIP3    H149004   6.640   0.614   4.479 -0.5625  0.9832 -0.0462
 9171TIP3    H249005   6.591   0.478   4.434 -0.9580  1.4237 -0.9748
 9172TIP3   OH249006   5.124   3.490  14.235 -0.0359  0.9357  0.4095
 9172TIP3    H149007   5.061   3.427  14.202 -0.3429  2.5106 -2.1396
 9172TIP3    H249008   5.209   3.455  14.211 -0.0012 -0.1206  1.9630
 9173TIP3   OH249009   5.090   2.104  10.646 -0.3657 -0.0353  0.0348
 9173TIP3    H149010   5.030   2.173  10.673 -1.8403 -1.1081 -0.4379
 9173TIP3    H249011   5.035   2.026  10.638  1.0877 -1.0391 -0.4203
 9174TIP3   OH249012   6.161   4.857   5.133  0.0161  0.4239  0.5746
 9174TIP3    H149013   6.102   4.885   5.063  0.4891  1.0252  0.4091
 9174TIP3    H249014   6.154   4.926   5.199 -1.0031 -0.5107  1.4749
 9175TIP3   OH249015   6.081   0.465  14.789  0.2295  0.0441  0.2897
 9175TIP3    H149016   6.174   0.443  14.796  0.4812  1.0371  0.1420
 9175TIP3    H249017   6.071   0.543  14.843 -0.1698  0.9524 -1.0709
 9176TIP3   OH249018   2.920   1.530   1.986  0.1640  1.0245 -0.4302
 9176TIP3    H149019   2.887   1.513   2.074  1.2640 -0.2987 -0.2585
 9176TIP3    H249020   2.981   1.604   1.997 -1.0916  2.0777 -0.4079
 9177TIP3   OH249021   3.411   3.552   4.848  0.4398  0.5748 -0.9872
 9177TIP3    H149022   3.353   3.595   4.786  0.1069  0.1400 -0.9757
 9177TIP3    H249023   3.418   3.614   4.921 -1.0631  0.0579 -0.3959
 9178TIP3   OH249024   6.175   6.149  12.105 -0.3419 -0.2114  0.3558
 9178TIP3    H149025   6.204   6.210  12.174 -0.2532 -1.0428  1.0562
 9178TIP3    H249026   6.089   6.119  12.134 -0.3295 -0.5144  0.0735
 9179TIP3   OH249027   5.104   0.217   3.740 -0.6999 -0.4375 -0.4886
 9179TIP3    H149028   5.122   0.240   3.831  0.8636 -0.6811 -0.7101
 9179TIP3    H249029   5.169   0.267   3.690 -0.5286 -1.4865 -1.3388
 9180TIP3   OH249030   5.300   6.044   2.524 -0.0554  0.6598 -0.0699
 9180TIP3    H149031   5.387   6.075   2.501  0.4614 -0.2981  0.5576
 9180TIP3    H249032   5.304   5.949   2.512 -0.6552  0.4787  1.0732
 9181TIP3   OH249033   4.762   5.652   4.996 -0.1510  0.3783  0.2346
 9181TIP3    H149034   4.745   5.558   5.004  0.9245 -0.0663 -2.1685
 9181TIP3    H249035   4.677   5.690   4.975 -0.7102  0.0394  1.8138
 9182TIP3   OH249036   3.248   2.701   2.120 -0.3127  0.0852  0.2577
 9182TIP3    H149037   3.332   2.687   2.075 -0.5067  0.0781 -0.0994
 9182TIP3    H249038   3.208   2.774   2.073 -0.9697 -0.5803 -0.2103
 9183TIP3   OH249039   3.985   3.794  15.487  0.4152 -0.4650  0.1734
 9183TIP3    H149040   4.069   3.782  15.532  1.9810 -1.6554 -2.9527
 9183TIP3    H249041   3.942   3.709  15.495 -0.5199  0.1298  1.7262
 9184TIP3   OH249042   4.879   2.744  13.414  0.5760  0.3064 -0.5122
 9184TIP3    H149043   4.784   2.754  13.415  0.2789 -1.6954  3.4849
 9184TIP3    H249044   4.913   2.833  13.429 -0.7386  0.7859 -0.3572
 9185TIP3   OH249045   3.275   5.321   2.833  0.2738  0.3687 -0.2635
 9185TIP3    H149046   3.344   5.383   2.807  0.2661 -1.0399 -3.9147
 9185TIP3    H249047   3.311   5.235   2.812 -1.8816 -0.5098 -0.4048
 9186TIP3   OH249048   3.236   3.237  15.508 -0.3893 -0.3737 -0.0954
 9186TIP3    H149049   3.323   3.197  15.497  0.1905  0.2336  2.0163
 9186TIP3    H249050   3.228   3.298  15.435  1.5481  0.5359  0.4109
 9187TIP3   OH249051   3.048   1.880   2.540  0.2156  0.8863  0.2848
 9187TIP3    H149052   3.126   1.918   2.500 -0.9134  1.3524 -1.5260
 9187TIP3    H249053   3.043   1.791   2.504 -0.5557  1.1479 -0.2683
 9188TIP3   OH249054   4.782   2.822  13.078  0.3648  0.6250 -0.5794
 9188TIP3    H149055   4.804   2.729  13.079 -1.9918  0.0374 -0.1250
 9188TIP3    H249056   4.801   2.850  12.988 -0.1802 -0.6298 -1.1013
 9189TIP3   OH249057   1.496   2.722   1.699 -0.1182  0.0621  0.3037
 9189TIP3    H149058   1.408   2.687   1.713 -0.1265 -0.2192 -0.4560
 9189TIP3    H249059   1.505   2.729   1.604  0.3757  0.8725  0.4010
 9190TIP3   OH249060   6.046   6.596  13.826  0.3408  0.0718  0.6188
 9190TIP3    H149061   6.122   6.653  13.834  1.6574 -1.5765  0.0805
 9190TIP3    H249062   6.067   6.537  13.754 -2.2287  0.7383 -0.7464
 9191TIP3   OH249063   1.177   0.651  15.018 -0.0166 -0.1056  0.9511
 9191TIP3    H149064   1.217   0.684  15.098  1.6588  1.6665 -0.5727
 9191TIP3    H249065   1.103   0.710  15.002 -0.4034 -0.5110  1.1948
 9192TIP3   OH249066   2.858   3.445   0.639  0.0252 -0.1909  0.3976
 9192TIP3    H149067   2.900   3.478   0.559 -0.3448 -1.2998 -0.2711
 9192TIP3    H249068   2.918   3.469   0.709 -0.2053  1.8306 -0.0685
 9193TIP3   OH249069   3.648   4.780   3.511  0.0520 -0.1997 -0.0369
 9193TIP3    H149070   3.564   4.819   3.537  0.6632  1.4882 -0.5446
 9193TIP3    H249071   3.645   4.778   3.415  0.5467 -0.2525 -0.0517
 9194TIP3   OH249072   1.440   5.370  14.501  0.0575 -0.0998  0.6187
 9194TIP3    H149073   1.389   5.405  14.574 -2.6592 -0.5081 -1.0134
 9194TIP3    H249074   1.458   5.445  14.445  2.3212  0.2504  1.7877
 9195TIP3   OH249075   0.261   1.380  11.852  0.4013 -0.3770 -0.1117
 9195TIP3    H149076   0.354   1.400  11.861  0.1512  0.9733 -0.5557
 9195TIP3    H249077   0.216   1.454  11.892 -0.5002 -0.9130 -0.1127
 9196TIP3   OH249078   1.657   1.399  10.929  0.0833  0.1346 -0.4122
 9196TIP3    H149079   1.578   1.346  10.935  0.7196 -0.5850  2.3230
 9196TIP3    H249080   1.633   1.483  10.967  0.3454  0.2805 -0.5680
 9197TIP3   OH249081   0.861   4.497   0.584  0.5059  0.0735 -0.3554
 9197TIP3    H149082   0.839   4.505   0.491 -1.9228  0.2666  0.2079
 9197TIP3    H249083   0.832   4.409   0.608  0.3506  0.3288  0.4111
 9198TIP3   OH249084   1.086   5.932   2.073  0.3260 -0.2032 -0.3154
 9198TIP3    H149085   1.121   5.987   2.143  0.2521 -0.0246 -0.4198
 9198TIP3    H249086   1.021   5.986   2.029 -0.3595 -0.6684  0.1192
 9199TIP3   OH249087   1.863   1.107  13.011  0.1661  0.0159  0.5387
 9199TIP3    H149088   1.927   1.097  13.080  0.5794  0.0673  0.1674
 9199TIP3    H249089   1.816   1.024  13.009  0.0021  0.0959  1.0274
 9200TIP3   OH249090   3.157   0.190  17.264  1.0273  0.3967  0.0071
 9200TIP3    H149091   3.181   0.270  17.217  0.9713  1.0839  1.1229
 9200TIP3    H249092   3.091   0.149  17.209  0.9004  1.2254 -0.4707
 9201TIP3   OH249093   0.504   3.919  14.773 -0.5508 -0.4402 -0.0405
 9201TIP3    H149094   0.456   3.910  14.855 -0.0672 -0.9355  0.1960
 9201TIP3    H249095   0.596   3.919  14.800 -0.4034  2.8916 -0.2346
 9202TIP3   OH249096   3.686   4.088  11.902  0.2071 -0.4295 -0.2443
 9202TIP3    H149097   3.773   4.056  11.925  0.3773  1.5251  2.0350
 9202TIP3    H249098   3.700   4.146  11.827  1.0351  0.6914  0.7639
 9203TIP3   OH249099   0.138   1.079   4.430 -0.0680 -0.3765 -0.0339
 9203TIP3    H149100   0.227   1.087   4.396 -0.9597  0.7935 -2.1570
 9203TIP3    H249101   0.139   0.997   4.481  2.4806  0.1711  0.8774
 9204TIP3   OH249102   2.579   2.262   4.256 -0.0065 -0.6258 -0.2165
 9204TIP3    H149103   2.561   2.176   4.217  0.7028 -0.9155  0.0767
 9204TIP3    H249104   2.532   2.324   4.201  1.3679 -0.9903 -1.8195
 9205TIP3   OH249105   1.672   3.193  17.113  0.0086  0.0671  0.0462
 9205TIP3    H149106   1.753   3.241  17.127  0.7900 -1.5040  0.9801
 9205TIP3    H249107   1.691   3.135  17.039  0.0094 -0.8969  0.7962
 9206TIP3   OH249108   2.128   3.110   0.601 -0.1935  0.8895  0.6901
 9206TIP3    H149109   2.132   3.096   0.696 -0.3522  1.4905  0.7875
 9206TIP3    H249110   2.186   3.184   0.585  0.9669 -0.1284  0.1256
 9207TIP3   OH249111   0.496   0.073  15.644  0.3792 -0.4767 -0.4840
 9207TIP3    H149112   0.531  -0.014  15.663  0.4942 -0.5705 -1.0906
 9207TIP3    H249113   0.413   0.055  15.599  0.8886 -0.2960 -1.5269
 9208TIP3   OH249114   0.671   2.399   2.575 -0.2588 -0.1679 -0.0441
 9208TIP3    H149115   0.634   2.317   2.542 -2.8642 -0.2350  2.8209
 9208TIP3    H249116   0.621   2.468   2.530  2.7627  0.0016 -3.3959
 9209TIP3   OH249117   0.095   0.758  13.389  0.2914 -0.5298 -0.2386
 9209TIP3    H149118   0.093   0.836  13.444  0.8548 -0.6697 -0.0098
 9209TIP3    H249119   0.084   0.792  13.300 -1.1499 -0.3569  0.0022
 9210TIP3   OH249120   2.063   2.185   4.359  0.4210 -0.2384 -0.0136
 9210TIP3    H149121   2.014   2.162   4.438  0.3084 -1.1896 -0.3574
 9210TIP3    H249122   2.129   2.247   4.390  1.6431 -2.0672  1.1894
 9211TIP3   OH249123   5.316   2.974   3.794  0.4682 -0.4149  0.8967
 9211TIP3    H149124   5.231   3.016   3.789 -0.2108 -1.9600 -1.7484
 9211TIP3    H249125   5.356   3.009   3.874 -3.4129 -1.1582  3.3023
 9212TIP3   OH249126   3.693   1.559   3.131  0.1955 -0.0464  0.4983
 9212TIP3    H149127   3.713   1.474   3.170 -1.1506 -0.5940  0.0512
 9212TIP3    H249128   3.629   1.539   3.062  0.2340  1.2694  0.0595
 9213TIP3   OH249129   0.059   1.571   4.671 -0.0885  0.0106 -0.0670
 9213TIP3    H149130  -0.010   1.620   4.627  0.0324  0.8175  0.6333
 9213TIP3    H249131   0.016   1.492   4.703 -0.6417  0.4087  0.1828
 9214TIP3   OH249132   0.464   4.011   3.201  0.6996 -0.1115 -0.0586
 9214TIP3    H149133   0.512   4.038   3.279  1.8360 -0.6349 -0.5584
 9214TIP3    H249134   0.426   4.092   3.167  0.1688  0.1167  1.0440
 9215TIP3   OH249135   1.171   3.255  11.544  0.0462  0.1351 -0.0405
 9215TIP3    H149136   1.163   3.264  11.639  1.7048 -0.8222  0.2175
 9215TIP3    H249137   1.258   3.289  11.524  0.3649 -1.1947 -0.9889
 9216TIP3   OH249138   2.289   5.559   0.742 -0.1318 -0.4572 -0.1698
 9216TIP3    H149139   2.208   5.601   0.713  0.9097  0.4180 -1.9175
 9216TIP3    H249140   2.358   5.606   0.696  1.1629 -3.3870 -1.3655
 9217TIP3   OH249141   4.783   2.076   0.716 -0.7690 -0.7930  0.0685
 9217TIP3    H149142   4.733   2.004   0.676 -1.6641  0.6366 -1.4305
 9217TIP3    H249143   4.759   2.153   0.665  1.1525  0.3599  0.8668
 9218TIP3   OH249144   2.411   4.217   3.604  0.1753  0.6409 -0.3964
 9218TIP3    H149145   2.355   4.224   3.682  1.1104 -2.1708  0.6012
 9218TIP3    H249146   2.350   4.201   3.532 -0.4700 -0.0130  0.2844
 9219TIP3   OH249147   0.333   2.752  15.954  0.1765  0.3475 -0.2298
 9219TIP3    H149148   0.280   2.737  15.875  0.4449  0.6657 -0.4749
 9219TIP3    H249149   0.340   2.847  15.959  0.5394  0.3114 -0.0721
 9220TIP3   OH249150   4.389   1.815  12.732  0.2740 -0.4133 -0.3832
 9220TIP3    H149151   4.339   1.742  12.697  0.4778 -0.1670 -1.1907
 9220TIP3    H249152   4.344   1.893  12.701  0.1005 -0.1856  0.4138
 9221TIP3   OH249153   5.669   2.798   3.640  0.5756 -0.4314  0.6799
 9221TIP3    H149154   5.576   2.783   3.627  0.4642  1.4617 -0.8782
 9221TIP3    H249155   5.688   2.757   3.725 -2.0238  0.7027  1.8569
 9222TIP3   OH249156   2.664   6.320  15.206 -0.2437 -0.2235  0.1778
 9222TIP3    H149157   2.693   6.348  15.293 -0.8820  0.7984  0.0643
 9222TIP3    H249158   2.579   6.361  15.194  0.3876  0.6612 -1.4386
 9223TIP3   OH249159   3.243   0.261  12.083 -0.6388 -0.5729  0.0553
 9223TIP3    H149160   3.253   0.356  12.094 -1.0905 -0.7331  1.9122
 9223TIP3    H249161   3.161   0.252  12.033 -1.6077 -0.0439  1.5209
 9224TIP3   OH249162   1.321   1.409  14.842 -0.7285 -0.6644 -0.1680
 9224TIP3    H149163   1.411   1.392  14.871 -1.0953 -0.8976  0.8451
 9224TIP3    H249164   1.331   1.474  14.771  0.1429  0.3040  0.8219
 9225TIP3   OH249165   5.443   5.315  12.907  0.1897  0.1624 -0.0265
 9225TIP3    H149166   5.424   5.390  12.964  0.6183 -0.3148  0.7451
 9225TIP3    H249167   5.358   5.291  12.870 -0.0170  0.7683  0.0418
 9226TIP3   OH249168   5.431   4.466   3.519  0.2648 -0.3297  0.0370
 9226TIP3    H149169   5.520   4.456   3.552  0.4660 -1.5556 -0.8139
 9226TIP3    H249170   5.379   4.407   3.574  0.8923 -3.7768 -2.8473
 9227TIP3   OH249171   0.843   1.670   0.739 -0.0680 -0.0428  0.8260
 9227TIP3    H149172   0.819   1.718   0.818  0.9608 -0.4958  1.4329
 9227TIP3    H249173   0.919   1.717   0.704  0.3634 -0.6687  0.9071
 9228TIP3   OH249174   2.401   1.541   1.756 -0.3406  0.2879  0.0299
 9228TIP3    H149175   2.363   1.559   1.670 -1.6257  0.9895  0.7264
 9228TIP3    H249176   2.328   1.506   1.807  1.4840 -4.7757 -0.5481
 9229TIP3   OH249177   2.325   6.752  11.693  0.5032  0.1007  0.0902
 9229TIP3    H149178   2.374   6.827  11.660  3.4935 -0.9308  1.9438
 9229TIP3    H249179   2.357   6.678  11.643 -0.4416 -0.3636  0.1536
 9230TIP3   OH249180   1.000   6.203  12.196  0.0927  0.5339 -0.2072
 9230TIP3    H149181   1.039   6.264  12.258 -1.3531  3.0944 -1.7103
 9230TIP3    H249182   1.048   6.219  12.114 -1.3872  0.8370 -1.0294
 9231TIP3   OH249183   5.574   3.788   4.599  0.3391 -0.6032 -0.3453
 9231TIP3    H149184   5.601   3.810   4.510 -0.8492  0.4245 -0.4657
 9231TIP3    H249185   5.620   3.706   4.618  0.0270 -1.2462 -2.1904
 9232TIP3   OH249186   4.048   3.947   2.601 -0.1798  0.2305 -0.2828
 9232TIP3    H149187   4.047   3.899   2.684 -0.2169  1.1540  0.2538
 9232TIP3    H249188   3.976   3.910   2.551 -1.0091  0.6013  0.6321
 9233TIP3   OH249189   3.275   3.892   5.564  0.0825 -0.2910 -0.6275
 9233TIP3    H149190   3.299   3.974   5.521  0.2202 -0.9543 -1.8590
 9233TIP3    H249191   3.196   3.863   5.519 -0.5354 -0.3382  0.4668
 9234TIP3   OH249192   0.883   3.122  16.710  0.7373 -0.7046 -0.7636
 9234TIP3    H149193   0.865   3.053  16.646  1.0822 -1.2550 -0.2731
 9234TIP3    H249194   0.843   3.201  16.673 -1.0630 -1.5041 -0.5776
 9235TIP3   OH249195   2.386   6.426  12.093 -0.4457  0.8640  0.2175
 9235TIP3    H149196   2.335   6.501  12.062 -1.2662 -0.0875 -0.8031
 9235TIP3    H249197   2.397   6.441  12.187 -1.6833  1.6463  0.2492
 9236TIP3   OH249198   3.774   1.715   6.550  0.4118  0.1157  0.1859
 9236TIP3    H149199   3.708   1.684   6.488  1.9117 -0.0044 -1.3618
 9236TIP3    H249200   3.762   1.810   6.551  1.6153  0.3202 -1.7537
 9237TIP3   OH249201   2.232   2.612  16.380 -0.7013  0.1536  0.0948
 9237TIP3    H149202   2.196   2.531  16.416 -1.2952 -0.5117 -1.8886
 9237TIP3    H249203   2.210   2.679  16.444 -0.8055 -1.1448  1.4366
 9238TIP3   OH249204   3.337   0.450   4.398  0.3020 -0.4155 -0.1126
 9238TIP3    H149205   3.343   0.368   4.349  0.7206  1.1181 -2.6892
 9238TIP3    H249206   3.246   0.476   4.391  0.4536  0.0270 -0.3971
 9239TIP3   OH249207   4.045   1.883   5.080  0.5432 -0.0110 -0.5735
 9239TIP3    H149208   4.110   1.934   5.032  0.8180  0.3485  0.1786
 9239TIP3    H249209   3.998   1.948   5.133 -0.4689 -0.2541 -1.1524
 9240TIP3   OH249210   5.057   3.912   2.431  0.2377  0.2692  0.0286
 9240TIP3    H149211   4.975   3.881   2.469  0.5306  0.2233  0.6303
 9240TIP3    H249212   5.030   3.977   2.366 -0.2854  0.1012  0.0744
 9241TIP3   OH249213   4.560   0.497  17.123  0.0434 -0.3422 -0.2268
 9241TIP3    H149214   4.580   0.543  17.205 -2.3109  0.9917 -0.3601
 9241TIP3    H249215   4.581   0.406  17.142  2.7158  0.4329  0.7600
 9242TIP3   OH249216   0.980   4.209  15.101  0.5311  0.0938  0.0603
 9242TIP3    H149217   1.016   4.163  15.026  0.4450  0.2502 -0.0780
 9242TIP3    H249218   1.044   4.195  15.171  1.1934  0.9384 -0.3714
 9243TIP3   OH249219   5.843   3.269  13.410  0.1627  0.2330  0.1924
 9243TIP3    H149220   5.823   3.351  13.455  2.7307 -0.5960  2.9563
 9243TIP3    H249221   5.778   3.207  13.444 -1.9828  1.1246 -2.1366
 9244TIP3   OH249222   1.900   1.206   3.500  0.0771 -0.7724 -0.3895
 9244TIP3    H149223   1.841   1.258   3.446  1.4982  0.1507 -1.0790
 9244TIP3    H249224   1.951   1.271   3.549  0.9073 -1.5419 -0.2188
 9245TIP3   OH249225   5.829   2.913  16.145 -0.2071  0.4748  0.2958
 9245TIP3    H149226   5.843   2.842  16.082 -1.4199 -0.3357  0.9239
 9245TIP3    H249227   5.911   2.962  16.144  0.1998 -0.2078 -1.0634
 9246TIP3   OH249228   3.933   4.871  12.671  0.2601  0.0681 -0.2119
 9246TIP3    H149229   3.843   4.887  12.701  0.3082 -1.3918  0.7428
 9246TIP3    H249230   3.923   4.834  12.584 -0.0225  0.6698 -0.4421
 9247TIP3   OH249231   6.112   3.999   5.761  0.3798  0.0008 -0.0904
 9247TIP3    H149232   6.080   3.938   5.828 -0.4070 -0.5507 -0.9537
 9247TIP3    H249233   6.106   3.950   5.679 -2.2539  1.9160 -1.1254
 9248TIP3   OH249234   5.894   3.942   2.571 -0.7079 -0.0614 -0.6890
 9248TIP3    H149235   5.910   4.014   2.510  1.1796  1.2681  1.2922
 9248TIP3    H249236   5.805   3.957   2.603 -0.2128  1.6323 -0.0276
 9249TIP3   OH249237   2.153   0.967   3.984 -0.1082 -0.2692  0.2811
 9249TIP3    H149238   2.147   0.878   3.949 -0.3754 -0.0403 -0.2661
 9249TIP3    H249239   2.166   1.022   3.906  4.0655 -0.2158  0.8622
 9250TIP3   OH249240   3.581   5.570   3.905  0.1888 -0.5879  0.2253
 9250TIP3    H149241   3.560   5.543   3.816 -1.5523 -2.9921  1.2959
 9250TIP3    H249242   3.669   5.536   3.921  0.2585 -0.6889 -0.3780
 9251TIP3   OH249243   6.065   6.620  14.670 -0.0955  0.1764 -0.0691
 9251TIP3    H149244   6.009   6.561  14.720 -0.1153  0.1518 -0.1198
 9251TIP3    H249245   6.018   6.634  14.587 -0.5872  1.0735  0.3457
 9252TIP3   OH249246   3.886   0.196  14.152  0.9943 -0.0215 -0.0812
 9252TIP3    H149247   3.846   0.268  14.104 -1.2621 -0.5694  0.8629
 9252TIP3    H249248   3.832   0.189  14.232  0.6880 -3.2056 -0.5144
 9253TIP3   OH249249   5.890   5.122  12.209  0.1001 -0.4833 -0.4039
 9253TIP3    H149250   5.805   5.136  12.169 -0.2428 -1.3276  0.0092
 9253TIP3    H249251   5.949   5.105  12.136  0.3103  1.9288 -0.8299
 9254TIP3   OH249252   5.394   0.414   1.502 -0.2508 -0.3208  0.6281
 9254TIP3    H149253   5.485   0.440   1.494 -0.7600  1.3280 -0.1082
 9254TIP3    H249254   5.380   0.351   1.431 -0.4571  1.7547 -1.2248
 9255TIP3   OH249255   4.883   6.572  17.048 -0.5051  0.0397 -0.2091
 9255TIP3    H149256   4.870   6.667  17.044 -2.1907 -0.2171 -1.0080
 9255TIP3    H249257   4.807   6.535  17.004  0.2713 -1.6888 -0.1386
 9256TIP3   OH249258   1.181   2.393   3.024 -0.4240 -0.1492 -0.0247
 9256TIP3    H149259   1.095   2.355   3.008 -0.7316  0.4826  0.1103
 9256TIP3    H249260   1.215   2.414   2.937  0.1964 -1.7077 -0.1632
 9257TIP3   OH249261   4.799   5.677   2.629 -0.0978  0.4693 -0.0328
 9257TIP3    H149262   4.710   5.644   2.621 -0.2952  0.7597  0.9683
 9257TIP3    H249263   4.852   5.599   2.648 -0.1344  0.3034 -0.5902
 9258TIP3   OH249264   1.587   1.085  10.614 -0.1062 -0.7979  0.0611
 9258TIP3    H149265   1.540   1.090  10.531  0.7690  0.3575 -0.3731
 9258TIP3    H249266   1.578   0.993  10.641 -1.2735 -0.9420 -0.7822
 9259TIP3   OH249267   2.681   3.956  12.651 -0.1287 -0.2455  0.1873
 9259TIP3    H149268   2.708   3.878  12.603 -0.0612  0.6299 -1.2041
 9259TIP3    H249269   2.593   3.975  12.619  0.0890  0.5944  0.0852
 9260TIP3   OH249270   3.313   6.440  14.217  0.1538 -0.2059 -0.6491
 9260TIP3    H149271   3.363   6.457  14.297 -1.4674 -0.6841  0.4813
 9260TIP3    H249272   3.334   6.514  14.160  1.5411 -0.0049  0.0914
 9261TIP3   OH249273   0.068   2.915  16.055 -0.2586  1.0162 -0.4496
 9261TIP3    H149274   0.133   2.978  16.024  1.0698 -0.2801 -0.3744
 9261TIP3    H249275   0.108   2.876  16.133 -0.6320 -0.6100 -1.0524
 9262TIP3   OH249276   3.806   0.688  15.621  0.1885 -0.4680  0.1363
 9262TIP3    H149277   3.810   0.763  15.560  0.6224  0.3652  1.1666
 9262TIP3    H249278   3.775   0.726  15.703  0.3074 -1.4498  0.6387
 9263TIP3   OH249279   6.294   0.203   0.672 -0.3296  0.5118 -0.3053
 9263TIP3    H149280   6.251   0.184   0.756 -1.9734 -0.8881 -1.4191
 9263TIP3    H249281   6.228   0.252   0.622  1.3252  2.9954 -0.1044
 9264TIP3   OH249282   6.354   0.943   3.110 -0.0710 -0.0480 -0.1987
 9264TIP3    H149283   6.365   0.977   3.021 -1.2006 -2.5948 -1.3529
 9264TIP3    H249284   6.350   1.021   3.165 -0.2619  1.5980 -2.4778
 9265TIP3   OH249285   6.211   3.404  13.288 -0.3085  0.1933  0.1547
 9265TIP3    H149286   6.138   3.348  13.260 -0.5176  0.8867 -0.6968
 9265TIP3    H249287   6.169   3.483  13.322  0.0904  1.3308 -1.9554
 9266TIP3   OH249288   1.911   6.642   3.832 -0.1868 -0.4618 -0.2991
 9266TIP3    H149289   1.853   6.676   3.899  0.3764 -2.2035  1.1072
 9266TIP3    H249290   1.916   6.548   3.850 -0.1586 -1.0018 -2.8760
 9267TIP3   OH249291   5.749   6.236  12.744 -0.1790  0.1986 -0.0820
 9267TIP3    H149292   5.781   6.296  12.676  1.1270 -1.6367 -1.1321
 9267TIP3    H249293   5.817   6.169  12.751 -2.1679 -1.8503  0.1796
 9268TIP3   OH249294   1.108   2.376  14.398  0.5612 -0.0262  0.1719
 9268TIP3    H149295   1.093   2.342  14.310 -0.4014  2.1138 -0.5364
 9268TIP3    H249296   1.043   2.331  14.453 -0.4914  0.4145 -0.6921
 9269TIP3   OH249297   6.567   3.986   6.094  0.0309 -0.2378  0.4485
 9269TIP3    H149298   6.644   4.009   6.145  0.3401  1.4175 -0.7063
 9269TIP3    H249299   6.599   3.979   6.004 -1.0528 -0.0075  0.0292
 9270TIP3   OH249300   5.345   3.817   3.561 -0.6033  0.7501 -0.2910
 9270TIP3    H149301   5.371   3.787   3.648 -0.2662  1.5298 -0.1208
 9270TIP3    H249302   5.399   3.765   3.501  1.1750  2.1295  0.0479
 9271TIP3   OH249303   1.879   5.997   1.526  0.1110  0.0352 -0.6042
 9271TIP3    H149304   1.832   5.994   1.609 -1.3727  2.2234 -1.3028
 9271TIP3    H249305   1.971   6.002   1.551 -0.1781 -1.6695  0.8490
 9272TIP3   OH249306   6.790   6.768   1.486 -0.3000  0.3945  0.6079
 9272TIP3    H149307   6.771   6.677   1.462  0.1197  0.4689 -0.0022
 9272TIP3    H249308   6.717   6.818   1.450  1.4801  0.8081 -2.5961
 9273TIP3   OH249309   6.328   2.103  17.145  0.1119  0.2141  0.0637
 9273TIP3    H149310   6.400   2.122  17.085  0.9442 -0.6969  0.7572
 9273TIP3    H249311   6.276   2.183  17.148  2.0865  1.4886  0.9429
 9274TIP3   OH249312   6.384   1.837   5.126 -0.0361 -0.0021 -0.0737
 9274TIP3    H149313   6.333   1.759   5.102  1.2214 -1.0333  0.5530
 9274TIP3    H249314   6.426   1.813   5.208  0.1398  1.4535  0.2566
 9275TIP3   OH249315   3.582   5.003   0.597 -0.0027  0.0213  0.0443
 9275TIP3    H149316   3.643   4.934   0.570 -0.2873  0.4936 -1.9329
 9275TIP3    H249317   3.627   5.049   0.668  1.3548 -0.5061 -0.4563
 9276TIP3   OH249318   3.159   1.176  13.481  0.0783 -0.2946 -0.0755
 9276TIP3    H149319   3.124   1.107  13.424  1.8504 -1.5832  0.3605
 9276TIP3    H249320   3.206   1.129  13.550  2.7171  1.3427 -0.6856
 9277TIP3   OH249321   5.736   5.855  13.887  0.2509 -0.0696 -0.0741
 9277TIP3    H149322   5.778   5.938  13.909  0.0729 -0.2536  0.9791
 9277TIP3    H249323   5.661   5.880  13.833  0.3374  0.4418  0.0402
 9278TIP3   OH249324   6.240   2.729   2.577  0.2156 -0.0834  0.2694
 9278TIP3    H149325   6.149   2.736   2.607  0.4543 -0.2776  1.0599
 9278TIP3    H249326   6.281   2.668   2.640  1.4434  1.6802  1.2195
 9279TIP3   OH249327   0.133   0.044   4.622 -0.3260 -0.1418  1.1302
 9279TIP3    H149328   0.069  -0.023   4.601 -0.2352 -0.0823  0.6429
 9279TIP3    H249329   0.211  -0.004   4.650 -0.1911 -0.2541  0.5824
 9280TIP3   OH249330   0.277   4.718   0.847 -0.0036 -0.0687  0.1282
 9280TIP3    H149331   0.278   4.637   0.794  0.3810 -0.1934  0.3239
 9280TIP3    H249332   0.351   4.768   0.814  0.0091  0.0212  0.2977
 9281TIP3   OH249333   5.018   2.992  14.997 -0.0611  0.0914  0.2706
 9281TIP3    H149334   5.084   3.034  15.052 -1.2966  0.5718  1.4015
 9281TIP3    H249335   5.031   2.898  15.011  1.1745  0.1496 -0.4578
 9282TIP3   OH249336   6.024   2.641   5.673 -0.3655  0.0530 -0.4446
 9282TIP3    H149337   6.102   2.618   5.622 -0.1023 -0.1313  0.0402
 9282TIP3    H249338   6.020   2.574   5.742 -1.5010 -0.5142 -1.0492
 9283TIP3   OH249339   5.637   2.278  15.231  0.1194  0.6536 -0.3740
 9283TIP3    H149340   5.665   2.271  15.140  2.6352  2.4275  0.2222
 9283TIP3    H249341   5.664   2.195  15.270 -2.0113 -0.6016 -1.4623
 9284TIP3   OH249342   4.798   5.516   4.505  0.1140 -0.1871 -0.6274
 9284TIP3    H149343   4.740   5.590   4.523 -1.3504 -1.5372  0.2643
 9284TIP3    H249344   4.786   5.457   4.580  2.2096 -0.7516 -0.7008
 9285TIP3   OH249345   6.030   1.464  12.825 -0.3083  0.0994  0.5380
 9285TIP3    H149346   6.114   1.503  12.848  0.2083 -1.1997  0.8331
 9285TIP3    H249347   6.017   1.488  12.733  0.1374  0.7174  0.6312
 9286TIP3   OH249348   0.549   6.629  13.161  0.0711 -0.0712  0.3779
 9286TIP3    H149349   0.621   6.679  13.198  0.7761 -0.6702 -0.1855
 9286TIP3    H249350   0.560   6.541  13.197 -0.3151 -0.1958  0.1967
 9287TIP3   OH249351   1.551   3.849  13.476  0.1897  0.5522 -0.3829
 9287TIP3    H149352   1.492   3.773  13.472  0.3447  0.4606 -0.9499
 9287TIP3    H249353   1.524   3.904  13.403 -1.4615  2.1812  1.4060
 9288TIP3   OH249354   0.105   0.979  12.443  0.4707 -0.4960  0.1170
 9288TIP3    H149355   0.096   0.932  12.526  1.1606  0.2070  0.6003
 9288TIP3    H249356   0.186   0.946  12.405  0.7983  0.0789  0.3139
 9289TIP3   OH249357   2.524   2.199  12.387 -0.9770 -0.6727  0.0912
 9289TIP3    H149358   2.546   2.273  12.331  0.5119 -1.5300 -0.4865
 9289TIP3    H249359   2.441   2.223  12.429  0.1274  1.8446  0.8790
 9290TIP3   OH249360   4.635   6.562  14.471  0.0146  0.1385 -0.2619
 9290TIP3    H149361   4.567   6.497  14.487  0.2438  0.4591  2.2196
 9290TIP3    H249362   4.605   6.640  14.517  1.5186  0.6270 -0.0608
 9291TIP3   OH249363   0.896   4.626   4.373 -0.0751  0.3439  0.4810
 9291TIP3    H149364   0.918   4.556   4.435  1.5279  0.7788  0.4141
 9291TIP3    H249365   0.851   4.692   4.426  0.0963  0.1098  0.9216
 9292TIP3   OH249366   1.267   6.635  16.819 -0.1631  0.0233 -0.1473
 9292TIP3    H149367   1.258   6.724  16.785 -0.5036 -0.5857 -1.6673
 9292TIP3    H249368   1.298   6.583  16.745  0.9360 -0.9445  0.9771
 9293TIP3   OH249369   0.632   5.339   4.540  0.2953 -0.4154 -0.4276
 9293TIP3    H149370   0.589   5.254   4.552  1.6200 -1.2633 -1.4777
 9293TIP3    H249371   0.722   5.323   4.570  0.3534  0.8363  0.0765
 9294TIP3   OH249372   4.434   5.336   3.326  0.1135 -0.1626 -0.6695
 9294TIP3    H149373   4.490   5.413   3.339  1.2203 -1.1655  0.6672
 9294TIP3    H249374   4.488   5.275   3.275  0.2660 -1.1403  0.6383
 9295TIP3   OH249375   5.781   5.638  14.229  0.9446  0.1839 -0.3569
 9295TIP3    H149376   5.795   5.732  14.242  1.9440  0.0536 -0.4384
 9295TIP3    H249377   5.849   5.612  14.167  1.7604 -0.9285  0.9716
 9296TIP3   OH249378   1.419   0.438   2.542  0.1482 -0.1540  0.0451
 9296TIP3    H149379   1.473   0.504   2.499 -1.6088  1.7105  0.6200
 9296TIP3    H249380   1.334   0.480   2.554 -1.2049 -2.7178 -0.0594
 9297TIP3   OH249381   2.658   6.348  16.698 -0.0497  0.3843 -0.0486
 9297TIP3    H149382   2.603   6.427  16.704  1.1404  1.2114  0.1122
 9297TIP3    H249383   2.744   6.381  16.674  0.8374 -0.7263  1.5440
 9298TIP3   OH249384   0.574   5.147   3.281 -0.2452  0.4731 -0.1318
 9298TIP3    H149385   0.620   5.066   3.257 -0.2700  0.5755 -0.5387
 9298TIP3    H249386   0.620   5.179   3.358 -0.2396  0.0644  0.0349
 9299TIP3   OH249387   6.542   4.234  13.238 -0.3357 -0.4588  0.1392
 9299TIP3    H149388   6.534   4.323  13.272  1.5461 -0.1803 -0.1229
 9299TIP3    H249389   6.472   4.227  13.173 -2.1610 -0.0598  1.9848
 9300TIP3   OH249390   1.687   0.594   1.937 -0.4997 -0.0826 -0.1916
 9300TIP3    H149391   1.775   0.583   1.974 -0.2351  2.3019 -0.0389
 9300TIP3    H249392   1.698   0.576   1.844  0.5929  2.0965 -0.5205
 9301TIP3   OH249393   6.385   2.120   3.927  0.1150 -0.0710  0.3738
 9301TIP3    H149394   6.295   2.149   3.911  0.1420  0.1141  0.5584
 9301TIP3    H249395   6.384   2.086   4.016  0.3825  0.5398  0.6124
 9302TIP3   OH249396   5.378   2.210  14.097 -0.3304 -0.2188  0.2946
 9302TIP3    H149397   5.340   2.297  14.107 -0.2478 -0.1062 -0.3309
 9302TIP3    H249398   5.307   2.150  14.119 -0.3397  0.0052  0.8873
 9303TIP3   OH249399   5.445   1.304   2.770  0.6321  0.5448  0.2470
 9303TIP3    H149400   5.369   1.275   2.821  0.1687  0.2633 -0.5935
 9303TIP3    H249401   5.520   1.259   2.810  0.4659  1.3850  1.5412
 9304TIP3   OH249402   1.245   6.515  14.104 -0.0041 -0.4239  0.3992
 9304TIP3    H149403   1.254   6.480  14.015  1.1489  0.3101  0.2293
 9304TIP3    H249404   1.334   6.538  14.131 -0.2826 -1.0121  1.9063
 9305TIP3   OH249405   2.999   4.308   4.144 -0.2870  0.3457 -0.4872
 9305TIP3    H149406   2.923   4.335   4.196 -0.1042 -1.4136  0.7602
 9305TIP3    H249407   2.990   4.213   4.138  2.4104 -0.0086  0.6201
 9306TIP3   OH249408   5.298   5.170   6.804 -0.3696  0.1479  0.2116
 9306TIP3    H149409   5.375   5.128   6.765  0.2010 -0.6874  2.1396
 9306TIP3    H249410   5.245   5.198   6.730  1.4672  0.1108 -1.1535
 9307TIP3   OH249411   4.510   6.279   4.709 -0.1618 -0.5507  0.3375
 9307TIP3    H149412   4.452   6.203   4.720 -2.1386  0.7022 -0.9572
 9307TIP3    H249413   4.507   6.323   4.793  0.2998 -1.4460  0.8272
 9308TIP3   OH249414   4.842   4.168  15.664 -0.0560 -0.3400 -0.1459
 9308TIP3    H149415   4.866   4.106  15.733  1.2791  1.0280  0.6475
 9308TIP3    H249416   4.919   4.171  15.607 -0.1767  0.4599 -0.2714
 9309TIP3   OH249417   2.770   0.854   0.079 -0.2824  0.3875  0.8944
 9309TIP3    H149418   2.703   0.804   0.126  0.1861  0.2862  1.4519
 9309TIP3    H249419   2.852   0.808   0.097 -0.0792  0.4259  0.0860
 9310TIP3   OH249420   0.793   0.946  14.510  0.6028  0.1484  0.2643
 9310TIP3    H149421   0.802   1.035  14.476  0.0141 -0.1483 -0.6957
 9310TIP3    H249422   0.766   0.895  14.434  0.1245 -0.6947  1.0065
 9311TIP3   OH249423   3.729   1.927   4.982 -0.1418 -0.2636 -0.5526
 9311TIP3    H149424   3.644   1.915   5.025  0.3773  0.8878  0.8377
 9311TIP3    H249425   3.785   1.859   5.020  0.3205  0.7621  0.6308
 9312TIP3   OH249426   3.371   3.817  11.532  0.2936  0.5217  0.0043
 9312TIP3    H149427   3.294   3.845  11.482  0.2550  1.5320  0.6169
 9312TIP3    H249428   3.345   3.828  11.624  0.8426 -0.0343  0.2293
 9313TIP3   OH249429   2.116   3.407  16.380 -0.2364  0.5024  0.1783
 9313TIP3    H149430   2.034   3.372  16.343  0.0251  1.3346 -1.2053
 9313TIP3    H249431   2.185   3.355  16.339 -0.0748 -0.6085  1.7984
 9314TIP3   OH249432   0.312   4.063   0.036 -0.4218  0.0973  0.5993
 9314TIP3    H149433   0.388   4.073  -0.021  0.5698  0.0751  1.8819
 9314TIP3    H249434   0.347   4.076   0.125 -2.2291  1.7928  1.0923
 9315TIP3   OH249435   4.117   4.360  15.036  0.6327  0.3482 -0.0785
 9315TIP3    H149436   4.081   4.444  15.007 -2.0970 -0.7838 -0.0796
 9315TIP3    H249437   4.060   4.294  14.998  1.1290 -1.4343  2.1231
 9316TIP3   OH249438   6.089   6.172   2.516  0.1304  0.1911  0.2313
 9316TIP3    H149439   6.166   6.228   2.509 -0.1659  0.3763 -2.1174
 9316TIP3    H249440   6.069   6.149   2.425 -1.7685 -0.9552  0.9245
 9317TIP3   OH249441   6.054   4.956  14.919  0.2367  0.2436  0.4157
 9317TIP3    H149442   6.118   4.905  14.869  1.2421  1.8210  0.0621
 9317TIP3    H249443   6.017   4.894  14.982  2.2914 -0.6243  0.7805
 9318TIP3   OH249444   4.752   5.867   0.094  0.2949 -0.5566 -0.6120
 9318TIP3    H149445   4.702   5.802   0.144  1.0560 -1.9952 -1.6827
 9318TIP3    H249446   4.686   5.927   0.061 -0.5966 -1.6156 -0.7940
 9319TIP3   OH249447   3.731   3.083  15.406  0.3045  0.2589  0.4218
 9319TIP3    H149448   3.787   3.027  15.352 -1.5050  0.1794 -1.4408
 9319TIP3    H249449   3.750   3.056  15.496  3.0798  0.0936 -0.1399
 9320TIP3   OH249450   1.630   1.980  11.442  0.3804 -0.7553  0.3118
 9320TIP3    H149451   1.640   1.907  11.381 -0.3710  1.0034 -1.9888
 9320TIP3    H249452   1.719   2.002  11.469  0.8727 -0.5386 -1.4231
 9321TIP3   OH249453   3.568   4.393  11.093 -0.3253 -0.1119  0.1630
 9321TIP3    H149454   3.580   4.484  11.117 -0.1761  0.0376 -0.4573
 9321TIP3    H249455   3.570   4.393  10.997 -1.9361 -0.5316  0.1011
 9322TIP3   OH249456   5.977   0.921  12.054 -0.0680 -0.2077 -0.8638
 9322TIP3    H149457   5.949   0.843  12.102  0.3521  0.1898  0.0550
 9322TIP3    H249458   5.985   0.893  11.963 -1.5230 -0.8186 -0.8209
 9323TIP3   OH249459   5.962   0.847   1.259  0.0768 -0.3454  0.7293
 9323TIP3    H149460   6.017   0.776   1.228  0.1978  0.3824 -0.7510
 9323TIP3    H249461   5.903   0.866   1.186 -0.8277  0.1998  1.5827
 9324TIP3   OH249462   5.003   0.439  16.538  0.3003 -0.0376 -0.5232
 9324TIP3    H149463   5.059   0.510  16.507  2.1548 -0.8719  0.7955
 9324TIP3    H249464   4.970   0.469  16.622  2.2638 -1.2938  0.7250
 9325TIP3   OH249465   0.201   2.930   4.622 -0.3433  0.0458 -0.3414
 9325TIP3    H149466   0.116   2.920   4.665 -0.1379 -0.1572  0.0176
 9325TIP3    H249467   0.265   2.920   4.692 -0.0483  1.3728 -0.4117
 9326TIP3   OH249468   3.821   5.222  16.460  0.1215 -0.5531  0.4460
 9326TIP3    H149469   3.829   5.133  16.425  0.5731 -0.0204 -0.8249
 9326TIP3    H249470   3.780   5.272  16.389  1.1250  0.5658  0.6495
 9327TIP3   OH249471   4.257   3.858  16.592 -0.0589 -0.0725  0.0826
 9327TIP3    H149472   4.233   3.881  16.502 -2.3081 -2.0204  0.1293
 9327TIP3    H249473   4.287   3.767  16.586 -0.8993 -0.4546  1.3818
 9328TIP3   OH249474   6.729   4.524   0.930  0.1070  0.1429 -0.4056
 9328TIP3    H149475   6.713   4.618   0.939  0.2025 -0.0686  2.1033
 9328TIP3    H249476   6.657   4.493   0.875 -0.8278  1.4167  0.0830
 9329TIP3   OH249477   6.142   6.686   1.428  0.1212  0.4014 -0.1923
 9329TIP3    H149478   6.142   6.673   1.334 -0.4095  2.0438 -0.4338
 9329TIP3    H249479   6.070   6.631   1.460  0.2611 -0.1046 -0.7370
 9330TIP3   OH249480   5.185   0.752   0.397 -0.3501 -0.1940  0.5512
 9330TIP3    H149481   5.100   0.771   0.437 -1.7723 -1.3401 -1.8551
 9330TIP3    H249482   5.248   0.761   0.469 -2.6556 -0.6931  2.6739
 9331TIP3   OH249483   4.296   0.241  13.919 -0.1587 -0.3159  0.3748
 9331TIP3    H149484   4.373   0.255  13.974  0.5769 -2.5800 -0.0535
 9331TIP3    H249485   4.247   0.173  13.964 -1.7866  0.8958  0.4833
 9332TIP3   OH249486   5.526   2.751   0.859 -0.2565 -0.6247  0.0234
 9332TIP3    H149487   5.555   2.683   0.919  1.6055 -0.6206 -0.8087
 9332TIP3    H249488   5.461   2.801   0.908  0.1542 -1.5102  1.5055
 9333TIP3   OH249489   5.062   2.969  13.823  0.1433 -0.0906  0.1651
 9333TIP3    H149490   5.056   3.041  13.760  0.7646 -1.8539 -1.9665
 9333TIP3    H249491   4.998   2.905  13.793 -1.0247 -0.1193  2.5407
 9334TIP3   OH249492   6.052   2.424   0.084 -0.4025  0.3627  0.5155
 9334TIP3    H149493   6.089   2.344   0.121 -0.8584 -0.4598 -0.7678
 9334TIP3    H249494   6.128   2.481   0.072  0.0163 -0.1068  0.8641
 9335TIP3   OH249495   3.094   0.245  15.484 -0.7028 -0.2797 -0.1331
 9335TIP3    H149496   3.133   0.193  15.555 -0.6980 -0.1815 -0.0627
 9335TIP3    H249497   3.141   0.217  15.406 -0.7793 -0.4637 -0.1124
 9336TIP3   OH249498   4.288   3.895   2.804 -0.0738 -0.2541  0.3617
 9336TIP3    H149499   4.294   3.873   2.711  0.1183  0.9072  0.0902
 9336TIP3    H249500   4.376   3.881   2.838 -0.0290 -0.2139  0.2622
 9337TIP3   OH249501   5.619   4.581   0.793 -0.0302  0.2285 -1.3100
 9337TIP3    H149502   5.630   4.519   0.865  0.2381  2.3578  0.5561
 9337TIP3    H249503   5.708   4.598   0.762  0.2518  2.2990  0.5215
 9338TIP3   OH249504   5.062   5.531  13.520  0.4404 -0.1874  0.1974
 9338TIP3    H149505   4.998   5.522  13.449  0.9641 -2.1848 -0.0739
 9338TIP3    H249506   5.014   5.575  13.590 -0.0923  1.7963 -1.3684
 9339TIP3   OH249507   0.329   3.160   4.552  0.3178  0.0531  0.2532
 9339TIP3    H149508   0.422   3.152   4.531  0.8172  0.9405  2.0645
 9339TIP3    H249509   0.299   3.070   4.562  1.3516 -0.2056  1.1779
 9340TIP3   OH249510   0.369   6.736   3.701  0.2417 -0.3304  0.0416
 9340TIP3    H149511   0.410   6.805   3.754  0.4111 -0.8275  0.5712
 9340TIP3    H249512   0.302   6.782   3.650  0.5991  0.2861  0.1163
 9341TIP3   OH249513   6.716   1.847   4.289  0.1159 -0.4525 -0.1711
 9341TIP3    H149514   6.734   1.754   4.298 -0.3593 -0.6168 -0.8695
 9341TIP3    H249515   6.773   1.889   4.353 -1.2116 -1.3657  1.6442
 9342TIP3   OH249516   5.385   1.755   1.303  0.4214 -0.0709 -0.1435
 9342TIP3    H149517   5.466   1.806   1.293 -1.3897  2.7771 -0.9698
 9342TIP3    H249518   5.329   1.786   1.232 -1.5841 -1.6269  0.7318
 9343TIP3   OH249519   6.008   6.364  13.677  0.0244  0.3121 -0.2235
 9343TIP3    H149520   5.950   6.319  13.738  1.2424  0.6184  1.2118
 9343TIP3    H249521   5.952   6.392  13.605 -1.0682 -1.9478 -0.2865
 9344TIP3   OH249522   1.064   0.333  16.363  0.4442  0.6740  0.0700
 9344TIP3    H149523   0.977   0.370  16.381  0.0426 -0.0906 -0.2814
 9344TIP3    H249524   1.089   0.370  16.279  0.0451  0.1674 -0.2780
 9345TIP3   OH249525   2.066   3.040   2.723 -0.0237  0.3456  0.7983
 9345TIP3    H149526   1.994   3.044   2.785  0.7439  0.7605  1.6659
 9345TIP3    H249527   2.023   3.036   2.637 -1.0800 -0.1643  1.3422
 9346TIP3   OH249528   3.691   2.727  16.795 -0.1033 -0.2219 -0.1484
 9346TIP3    H149529   3.754   2.658  16.776  0.2418  0.0635 -0.0434
 9346TIP3    H249530   3.610   2.698  16.754  0.2504 -0.3086 -0.7861
 9347TIP3   OH249531   6.176   3.475   1.641  0.2036  0.2992 -0.1593
 9347TIP3    H149532   6.234   3.449   1.712 -0.4226 -0.4430  0.0931
 9347TIP3    H249533   6.202   3.564   1.619  0.6801  0.3755  0.7177
 9348TIP3   OH249534   5.156   2.922   4.144 -0.4407  0.5598 -0.5630
 9348TIP3    H149535   5.157   3.017   4.140 -1.5690  0.5990 -0.0769
 9348TIP3    H249536   5.108   2.901   4.224  0.7716 -0.4106 -0.0696
 9349TIP3   OH249537   5.831   2.649  14.392  0.0150  0.1941  0.1554
 9349TIP3    H149538   5.749   2.632  14.345 -0.5258 -2.2261  1.8758
 9349TIP3    H249539   5.805   2.706  14.465  0.4793  2.1903 -1.2149
 9350TIP3   OH249540   3.145   3.298  11.394  0.5022 -0.2406  0.1033
 9350TIP3    H149541   3.056   3.278  11.423  0.6944  0.3024  1.0953
 9350TIP3    H249542   3.191   3.323  11.474  2.0176 -2.2167 -0.1283
 9351TIP3   OH249543   5.338   1.158  15.482  0.1290  0.2172 -0.0902
 9351TIP3    H149544   5.319   1.089  15.547 -0.1806 -0.4969 -0.9310
 9351TIP3    H249545   5.361   1.110  15.403 -1.0518  1.0772 -0.9703
 9352TIP3   OH249546   1.380   1.994  16.129 -0.1647 -0.2553 -0.0107
 9352TIP3    H149547   1.291   1.995  16.093  0.0364 -1.0337 -0.5177
 9352TIP3    H249548   1.399   1.902  16.146  0.6688 -0.1208 -0.1841
 9353TIP3   OH249549   2.770   3.097  14.378 -0.1368  0.3324  0.2022
 9353TIP3    H149550   2.716   3.024  14.349 -0.3034  1.6549 -3.0466
 9353TIP3    H249551   2.845   3.056  14.421 -1.2337 -1.6645  0.2865
 9354TIP3   OH249552   6.806   4.472   3.558  0.1441  0.0591 -0.8012
 9354TIP3    H149553   6.889   4.518   3.568  0.1321 -0.4938  1.9630
 9354TIP3    H249554   6.751   4.504   3.629 -1.3701 -1.0248 -1.4428
 9355TIP3   OH249555   0.609   6.138   2.695 -0.0458 -0.2979 -0.3380
 9355TIP3    H149556   0.677   6.083   2.655  0.2826  1.0106 -1.6034
 9355TIP3    H249557   0.654   6.185   2.766  0.3899  0.6090 -1.2111
 9356TIP3   OH249558   6.003   6.340  12.648  0.2678  0.4570 -0.1624
 9356TIP3    H149559   6.087   6.318  12.610  0.3072 -0.7686  0.6149
 9356TIP3    H249560   6.023   6.404  12.716  0.5547  0.2113 -0.0196
 9357TIP3   OH249561   4.507   5.885   2.329 -0.2971  0.2858 -0.1004
 9357TIP3    H149562   4.584   5.874   2.274  0.1137 -0.6731  0.6385
 9357TIP3    H249563   4.476   5.974   2.312  0.2336  0.2273 -1.3361
 9358TIP3   OH249564   2.805   4.139   3.612  0.0889  0.1932 -0.2218
 9358TIP3    H149565   2.860   4.126   3.535  2.3833  0.7084  1.3012
 9358TIP3    H249566   2.822   4.062   3.667  0.3759  1.0500  0.9026
 9359TIP3   OH249567   4.201   4.138  16.385 -0.2260 -0.1443 -0.2321
 9359TIP3    H149568   4.213   4.167  16.295  0.3060  0.8907  0.1680
 9359TIP3    H249569   4.232   4.211  16.439 -2.7358  0.1969  0.8073
 9360TIP3   OH249570   4.733   3.788   1.508 -0.6244 -0.0185 -0.0120
 9360TIP3    H149571   4.645   3.813   1.535 -0.9246 -0.5348 -0.5095
 9360TIP3    H249572   4.783   3.785   1.590 -1.2999 -0.6563  0.3831
 9361TIP3   OH249573   5.270   2.974  12.159  0.3012 -0.4800 -0.1633
 9361TIP3    H149574   5.237   3.018  12.237  2.5606 -0.5823  0.8923
 9361TIP3    H249575   5.220   2.893  12.154 -0.3083 -0.1713  0.7901
 9362TIP3   OH249576   2.354   5.255   5.738 -0.3406  0.1880 -0.5628
 9362TIP3    H149577   2.426   5.316   5.724 -0.8373  0.3183 -2.6258
 9362TIP3    H249578   2.281   5.310   5.767 -0.6876  0.5610 -2.0926
 9363TIP3   OH249579   6.767   6.798   2.000 -0.0122  0.4012 -0.2878
 9363TIP3    H149580   6.780   6.781   1.907  1.0961  0.6827 -0.1913
 9363TIP3    H249581   6.797   6.718   2.043 -0.1656  0.4138 -0.1600
 9364TIP3   OH249582   3.547   3.729   2.190 -0.0031  0.0944 -0.7398
 9364TIP3    H149583   3.560   3.812   2.236  1.1241 -0.4243 -0.1003
 9364TIP3    H249584   3.486   3.750   2.119 -1.6651  0.9542  0.8875
 9365TIP3   OH249585   1.071   6.721  13.866 -0.3853  0.3105  0.2497
 9365TIP3    H149586   1.018   6.647  13.896 -0.7185 -0.5930 -2.3833
 9365TIP3    H249587   1.161   6.695  13.884 -0.4446 -1.1457 -1.3470
 9366TIP3   OH249588   0.817   2.503   2.784  0.2044 -0.1478  0.0770
 9366TIP3    H149589   0.831   2.429   2.843 -0.8678  0.2186  0.8026
 9366TIP3    H249590   0.765   2.467   2.712  1.9357 -0.7141 -0.9258
 9367TIP3   OH249591   3.677   5.183  11.722  0.5778 -0.4510 -0.1857
 9367TIP3    H149592   3.623   5.113  11.685  0.5947 -2.3314  3.1664
 9367TIP3    H249593   3.635   5.205  11.805  2.8986  0.6770  0.7335
 9368TIP3   OH249594   6.750   1.147  15.181  0.0653 -0.2972 -0.0719
 9368TIP3    H149595   6.720   1.230  15.143  1.2060  0.4853  0.6911
 9368TIP3    H249596   6.798   1.173  15.260  2.6001 -1.5106 -1.1748
 9369TIP3   OH249597   3.404   0.766  13.033 -0.1511  0.2105 -0.0639
 9369TIP3    H149598   3.365   0.765  13.121  0.8275  0.7455  0.3981
 9369TIP3    H249599   3.372   0.848  12.994 -0.0556  0.3030  0.0495
 9370TIP3   OH249600   0.309   0.331  11.903 -0.3878 -1.0896  0.1941
 9370TIP3    H149601   0.226   0.379  11.909 -0.2124 -0.6755 -0.6180
 9370TIP3    H249602   0.330   0.307  11.993 -0.5316  0.2566  0.5825
 9371TIP3   OH249603   2.990   0.700  16.629 -0.6025 -0.0892 -0.1356
 9371TIP3    H149604   2.984   0.795  16.614  1.5066  0.3046  1.2901
 9371TIP3    H249605   2.966   0.689  16.721 -2.0153 -1.0994 -0.6178
 9372TIP3   OH249606   0.573   5.113  10.970 -0.5933 -0.1109 -0.0296
 9372TIP3    H149607   0.500   5.154  10.924  2.5737  2.0011 -3.4698
 9372TIP3    H249608   0.622   5.186  11.007  0.3821 -1.3964  1.2452
 9373TIP3   OH249609   3.920   4.083  12.927 -0.1816 -0.1959 -0.3551
 9373TIP3    H149610   3.968   4.149  12.877 -0.5733  1.0285  0.8723
 9373TIP3    H249611   3.832   4.118  12.936 -0.5159 -1.0975 -0.0841
 9374TIP3   OH249612   5.644   4.932  12.360  0.5242  0.7667  0.6143
 9374TIP3    H149613   5.612   5.023  12.355  1.1960  0.9568 -0.1783
 9374TIP3    H249614   5.737   4.938  12.338  0.1822 -0.3472 -1.2272
 9375TIP3   OH249615   1.606   1.259   6.302 -0.1475 -0.0291 -0.3649
 9375TIP3    H149616   1.618   1.169   6.332  1.4590  0.7019  1.2754
 9375TIP3    H249617   1.686   1.279   6.254 -0.2978  0.6856 -0.3164
 9376TIP3   OH249618   5.006   4.813   2.152 -0.1951  0.0770 -0.3792
 9376TIP3    H149619   5.084   4.805   2.206  0.0414  1.4221 -0.5004
 9376TIP3    H249620   4.953   4.880   2.196 -0.2787  0.7443 -1.4775
 9377TIP3   OH249621   1.039   3.856  11.298 -0.0169 -0.2683 -0.6088
 9377TIP3    H149622   1.016   3.947  11.314 -3.1708 -1.4241  2.0169
 9377TIP3    H249623   0.982   3.830  11.225  0.3940 -0.3196 -0.9117
 9378TIP3   OH249624   5.426   2.291   5.670 -0.5589  0.2104  0.5955
 9378TIP3    H149625   5.515   2.303   5.635 -0.0379 -1.4860  1.2928
 9378TIP3    H249626   5.373   2.353   5.621  1.0075  1.2280  0.1316
 9379TIP3   OH249627   0.837   6.675  14.973  0.2004  0.1050 -0.0448
 9379TIP3    H149628   0.749   6.651  14.945 -0.4922  0.6922  1.5704
 9379TIP3    H249629   0.845   6.768  14.951  0.0134  0.3209  0.7791
 9380TIP3   OH249630   4.121   2.679   2.427 -0.1565  0.0305  0.0443
 9380TIP3    H149631   4.058   2.654   2.494 -1.7331 -1.4937 -1.9265
 9380TIP3    H249632   4.164   2.597   2.403 -1.9329 -0.0711 -3.0608
 9381TIP3   OH249633   0.958   1.670   5.645 -0.0440 -0.1569  0.2519
 9381TIP3    H149634   1.047   1.707   5.641  0.3648 -0.9572  1.9090
 9381TIP3    H249635   0.950   1.636   5.733 -1.5228 -1.3427 -0.3302
 9382TIP3   OH249636   2.253   2.167  13.922 -0.2906 -0.4301 -0.0483
 9382TIP3    H149637   2.339   2.189  13.958 -0.4900 -0.9862  0.7823
 9382TIP3    H249638   2.253   2.206  13.834  1.5398 -2.0687 -0.8132
 9383TIP3   OH249639   3.647   1.581   4.605  0.0925  0.1109 -0.0118
 9383TIP3    H149640   3.674   1.524   4.676  0.7024  0.5761  0.1356
 9383TIP3    H249641   3.621   1.663   4.648 -0.6290  0.0049 -0.2292
 9384TIP3   OH249642   5.481   4.493   6.242 -0.4068 -0.3126 -0.2965
 9384TIP3    H149643   5.405   4.458   6.288 -1.8914  1.2303 -1.5144
 9384TIP3    H249644   5.522   4.416   6.202 -1.7371 -1.0889 -0.2073
 9385TIP3   OH249645   3.550   0.246  11.159 -0.4445  0.0601  0.1783
 9385TIP3    H149646   3.572   0.313  11.224 -0.0642 -0.0243  0.1403
 9385TIP3    H249647   3.561   0.290  11.075  1.0482 -0.4106  0.1150
 9386TIP3   OH249648   2.992   6.296  15.700 -0.1871 -0.1434 -0.1020
 9386TIP3    H149649   2.989   6.202  15.686  0.7379 -0.1347 -0.3613
 9386TIP3    H249650   3.045   6.307  15.780 -0.0868  0.1637 -0.2068
 9387TIP3   OH249651   2.777   2.296   2.370 -0.1266  0.4409 -0.2605
 9387TIP3    H149652   2.704   2.249   2.412 -0.8370  0.4027 -1.4905
 9387TIP3    H249653   2.851   2.236   2.376 -1.3946 -1.5347 -3.1219
 9388TIP3   OH249654   2.703   2.241   5.349 -0.1426 -0.4772  0.6932
 9388TIP3    H149655   2.764   2.218   5.419  0.6591 -0.0252  0.1494
 9388TIP3    H249656   2.633   2.176   5.355 -1.2875  0.9106  3.4171
 9389TIP3   OH249657   3.851   0.010  16.131  0.0284 -0.1149  1.0896
 9389TIP3    H149658   3.778   0.037  16.186 -0.0623  1.8058  0.0645
 9389TIP3    H249659   3.921   0.073  16.151  0.7257 -0.7266  0.6103
 9390TIP3   OH249660   6.342   2.426   2.917 -0.4334  0.1264  0.1216
 9390TIP3    H149661   6.393   2.500   2.882 -1.4153  0.7991  0.0901
 9390TIP3    H249662   6.335   2.444   3.011  1.5328 -1.2759  0.5569
 9391TIP3   OH249663   3.423   1.019  17.184  0.3343  0.4068 -0.3141
 9391TIP3    H149664   3.454   0.979  17.265 -0.9542 -1.6065 -0.7929
 9391TIP3    H249665   3.351   1.076  17.211  1.2410  1.3472  0.1827
 9392TIP3   OH249666   2.417   0.719  13.270 -0.2350 -0.0638  0.6210
 9392TIP3    H149667   2.351   0.650  13.280 -0.2726 -0.6761 -3.1506
 9392TIP3    H249668   2.486   0.679  13.218  0.9163  1.9872  0.5421
 9393TIP3   OH249669   0.179   3.615   1.031  0.3147  0.4604  0.3628
 9393TIP3    H149670   0.258   3.562   1.043 -0.4218 -0.9399 -0.7949
 9393TIP3    H249671   0.203   3.681   0.967  0.7154  0.3887  0.4411
 9394TIP3   OH249672   1.817   4.577   4.891 -0.1619  0.3147  0.4634
 9394TIP3    H149673   1.722   4.568   4.894 -0.2462  0.9422 -0.2379
 9394TIP3    H249674   1.850   4.499   4.935 -0.9804 -0.7277 -0.7409
 9395TIP3   OH249675   2.320   5.126   1.386  0.4815 -0.2592  0.8894
 9395TIP3    H149676   2.274   5.197   1.342 -0.2473  0.5490  2.9072
 9395TIP3    H249677   2.365   5.168   1.460  0.4209 -1.8012  1.8260
 9396TIP3   OH249678   6.676   4.887   0.311 -0.1785  0.1921  0.1616
 9396TIP3    H149679   6.692   4.886   0.217  0.0744  0.4227  0.2006
 9396TIP3    H249680   6.757   4.924   0.348 -0.8371  1.4534  0.3530
 9397TIP3   OH249681   3.626   0.252   5.578  0.1333 -0.0057  0.2177
 9397TIP3    H149682   3.599   0.319   5.516  1.2018  0.4840  0.2670
 9397TIP3    H249683   3.549   0.197   5.589 -0.2724  0.2976 -1.0224
 9398TIP3   OH249684   6.386   2.983   4.903  0.1143  0.4747 -0.4451
 9398TIP3    H149685   6.445   3.053   4.935 -0.5202  0.8119 -0.0031
 9398TIP3    H249686   6.324   3.028   4.846 -0.5698  0.3517  0.1909
 9399TIP3   OH249687   4.814   0.219   3.753 -0.1214  0.5058  0.0309
 9399TIP3    H149688   4.792   0.279   3.682  0.8185  1.1785  0.3012
 9399TIP3    H249689   4.907   0.201   3.742 -0.4510 -1.1259 -0.2021
 9400TIP3   OH249690   1.154   5.955   2.981 -0.1305  0.1336  0.0886
 9400TIP3    H149691   1.123   6.041   2.952  0.0819  0.6848  1.4317
 9400TIP3    H249692   1.248   5.956   2.964 -0.1544  0.1126 -0.0410
 9401TIP3   OH249693   5.806   4.293   0.434  0.0160 -0.0012  0.2654
 9401TIP3    H149694   5.747   4.316   0.506  1.5259 -1.0897  1.9073
 9401TIP3    H249695   5.830   4.202   0.451  0.0172 -0.4302 -1.9155
 9402TIP3   OH249696   1.464   4.266   0.512  0.5084  0.1954  0.3809
 9402TIP3    H149697   1.378   4.296   0.483 -0.2661 -1.9991  0.2941
 9402TIP3    H249698   1.514   4.254   0.431  0.2663 -0.3234  0.3045
 9403TIP3   OH249699   1.742   5.039  15.885  0.5326 -0.0129  0.0721
 9403TIP3    H149700   1.726   5.028  15.791  0.8908  1.3598 -0.1605
 9403TIP3    H249701   1.832   5.009  15.898 -0.0754 -1.8022  0.2840
 9404TIP3   OH249702   5.047   5.106  11.300 -0.2130 -0.4878  0.0347
 9404TIP3    H149703   4.963   5.094  11.257 -0.5312  1.1417  0.1907
 9404TIP3    H249704   5.112   5.077  11.235 -0.8036 -0.1922 -0.6869
 9405TIP3   OH249705   4.242   0.433  13.715 -0.2349 -0.0841  0.0019
 9405TIP3    H149706   4.250   0.377  13.792 -0.8032  1.5158  1.2503
 9405TIP3    H249707   4.325   0.420  13.668  1.2901  1.0116  2.3172
 9406TIP3   OH249708   3.465   3.000  13.629  0.3720  0.4139 -0.0983
 9406TIP3    H149709   3.560   2.989  13.620  0.6498  1.5626  1.3308
 9406TIP3    H249710   3.444   3.076  13.576  0.2734  0.2995 -0.2236
 9407TIP3   OH249711   0.852   2.030   1.773  0.3144  0.1310  0.7102
 9407TIP3    H149712   0.802   2.001   1.850  0.0693 -1.3973 -0.0183
 9407TIP3    H249713   0.798   2.005   1.698  1.3669  0.0326 -0.0244
 9408TIP3   OH249714   0.111   4.741  10.878  0.3887 -0.0595  0.4431
 9408TIP3    H149715   0.118   4.728  10.972  4.3122 -0.5137  0.1750
 9408TIP3    H249716   0.114   4.836  10.866  3.2296 -0.0886  0.6404
 9409TIP3   OH249717   6.002   5.925  14.381  0.0298  0.2840 -0.6765
 9409TIP3    H149718   5.999   6.001  14.440  0.0905  0.6706 -1.1657
 9409TIP3    H249719   5.955   5.954  14.303  0.0218 -0.2000 -0.8504
 9410TIP3   OH249720   1.673   2.857  14.959 -0.2805  0.6433  0.1657
 9410TIP3    H149721   1.765   2.873  14.938 -0.8510  0.9662 -2.1766
 9410TIP3    H249722   1.665   2.879  15.052  2.2027 -0.2940  0.6396
 9411TIP3   OH249723   2.060   5.471  14.014 -0.3916 -0.2417  0.4035
 9411TIP3    H149724   2.143   5.511  13.986 -0.3480 -0.4414  0.2431
 9411TIP3    H249725   1.999   5.544  14.021 -0.8954 -0.4014 -1.9720
 9412TIP3   OH249726   3.206   6.268   5.608 -0.0459  0.3235  0.1099
 9412TIP3    H149727   3.110   6.264   5.608 -0.0212 -1.3381  2.5434
 9412TIP3    H249728   3.229   6.277   5.701  2.2005 -0.8963 -0.3064
 9413TIP3   OH249729   4.026   0.009  15.909 -0.2075 -0.0238  0.1219
 9413TIP3    H149730   3.999   0.003  16.001  0.0281  0.5595  0.2309
 9413TIP3    H249731   3.943   0.015  15.860 -0.3879 -1.9174  0.1658
 9414TIP3   OH249732   0.504   0.086  16.875  0.3441 -0.5180 -0.2183
 9414TIP3    H149733   0.575   0.039  16.832  2.7607  1.5456  1.3293
 9414TIP3    H249734   0.455   0.127  16.804  1.5208 -0.8825 -1.2546
 9415TIP3   OH249735   3.161   6.179  14.499  0.0442  0.3023  0.4284
 9415TIP3    H149736   3.148   6.232  14.421  3.3062  0.1992 -0.2887
 9415TIP3    H249737   3.074   6.165  14.535 -1.3484  1.6724 -2.3238
 9416TIP3   OH249738   6.206   1.059  11.286  0.0262 -0.7056 -0.1269
 9416TIP3    H149739   6.294   1.048  11.250 -0.4323 -2.5082 -0.7409
 9416TIP3    H249740   6.170   0.971  11.290 -1.4187 -0.0933  1.0139
 9417TIP3   OH249741   6.760   0.753   6.240 -0.2264 -0.0203 -0.2093
 9417TIP3    H149742   6.778   0.732   6.332  2.6226 -1.0267 -0.9387
 9417TIP3    H249743   6.763   0.848   6.236 -0.5932  0.0388  0.7828
 9418TIP3   OH249744   5.223   6.080  13.737 -0.0486  0.2941 -0.2072
 9418TIP3    H149745   5.197   6.100  13.827 -2.9980  0.5431 -1.0629
 9418TIP3    H249746   5.199   5.988  13.725  2.4139 -0.4051 -0.0726
 9419TIP3   OH249747   3.326   0.812  15.629  0.2080 -0.1838  0.2025
 9419TIP3    H149748   3.349   0.876  15.562  0.6546  1.2998  1.7246
 9419TIP3    H249749   3.394   0.745  15.623  2.2376  1.6977  1.4371
 9420TIP3   OH249750   0.309   6.193   1.935 -0.1491  0.0836  0.2205
 9420TIP3    H149751   0.245   6.157   1.997  0.2390 -2.9231 -1.0340
 9420TIP3    H249752   0.361   6.253   1.987 -1.1567 -0.8101  2.3380
 9421TIP3   OH249753   5.044   1.376  11.808  0.0120  0.1488 -0.2142
 9421TIP3    H149754   5.121   1.405  11.760 -0.2065  2.3485  0.6849
 9421TIP3    H249755   4.994   1.324  11.746  1.0841  0.6495 -1.5094
 9422TIP3   OH249756   0.534   4.675  14.390  0.0100 -0.1224  0.0268
 9422TIP3    H149757   0.548   4.757  14.438  0.5239  0.5366 -1.2190
 9422TIP3    H249758   0.570   4.692  14.303  0.2363 -1.7256 -0.2029
 9423TIP3   OH249759   3.370   6.162  14.703  0.1205  0.0474  0.0038
 9423TIP3    H149760   3.411   6.247  14.712 -0.1038 -0.0016  1.5187
 9423TIP3    H249761   3.319   6.168  14.622 -0.6418  1.6687  0.5932
 9424TIP3   OH249762   3.042   0.247   5.355 -0.4973  0.1465  0.3024
 9424TIP3    H149763   2.976   0.283   5.415  1.1572  1.5218  1.3410
 9424TIP3    H249764   3.023   0.154   5.351 -1.8842  0.3668  1.3738
 9425TIP3   OH249765   4.018   6.462   0.849 -0.0974 -0.2752 -0.2829
 9425TIP3    H149766   3.984   6.449   0.761  0.7987 -0.2675 -0.6395
 9425TIP3    H249767   3.987   6.549   0.874 -0.2701 -0.2330 -0.6375
 9426TIP3   OH249768   0.726   1.955   2.673  0.0136 -0.5817 -0.1457
 9426TIP3    H149769   0.768   1.872   2.695  0.2614 -0.4787 -0.2329
 9426TIP3    H249770   0.641   1.930   2.638  0.7659 -0.8890 -1.7956
 9427TIP3   OH249771   3.949   2.685  11.749  0.4325 -0.1437  0.1101
 9427TIP3    H149772   3.854   2.696  11.747  0.3046 -1.2357 -0.2097
 9427TIP3    H249773   3.979   2.727  11.668  0.4545  2.0920  1.2282
 9428TIP3   OH249774   1.560   6.743   2.777  0.2177  0.0570 -0.0395
 9428TIP3    H149775   1.572   6.838   2.776 -0.5722  0.1633  0.0889
 9428TIP3    H249776   1.614   6.711   2.705  0.6094  0.5869  0.0141
 9429TIP3   OH249777   4.291   6.395   2.758 -0.0158 -0.0375  0.1003
 9429TIP3    H149778   4.246   6.377   2.841 -0.7720 -2.4564 -0.7901
 9429TIP3    H249779   4.284   6.313   2.709  2.6971  0.5296 -1.3297
 9430TIP3   OH249780   3.984   4.118   1.116 -0.2853 -0.1470  0.6142
 9430TIP3    H149781   3.962   4.161   1.198  2.6682  0.6519  1.0312
 9430TIP3    H249782   3.967   4.026   1.131  0.7759 -0.0692  2.3126
 9431TIP3   OH249783   0.855   1.788   2.155 -0.1997 -0.4225  0.0639
 9431TIP3    H149784   0.833   1.709   2.204  1.6052 -0.0106  1.5900
 9431TIP3    H249785   0.936   1.820   2.196 -0.5096  1.8090 -0.9972
 9432TIP3   OH249786   1.030   3.555   5.223  0.3285 -0.4456 -0.1311
 9432TIP3    H149787   0.970   3.509   5.282  0.3998  1.2077  1.2530
 9432TIP3    H249788   1.036   3.644   5.258  1.3818  0.2128 -1.8942
 9433TIP3   OH249789   1.185   3.186   5.269 -0.3377  0.4755 -0.1472
 9433TIP3    H149790   1.239   3.109   5.286 -0.2911  0.6492  0.5092
 9433TIP3    H249791   1.159   3.217   5.356  0.5003  1.8009 -0.3586
 9434TIP3   OH249792   3.120   5.034   3.855 -0.4975  0.0066  0.3820
 9434TIP3    H149793   3.199   5.068   3.897  0.6125 -0.7313 -1.0625
 9434TIP3    H249794   3.141   4.944   3.832 -2.1178 -0.5132  0.8594
 9435TIP3   OH249795   4.673   0.131   2.341  0.1283  0.4516 -0.0150
 9435TIP3    H149796   4.760   0.131   2.381  0.8187 -0.0126 -1.4749
 9435TIP3    H249797   4.689   0.109   2.249 -1.4193  1.4079 -0.5363
 9436TIP3   OH249798   5.209   5.090  16.497  0.0604 -0.0976  0.0839
 9436TIP3    H149799   5.284   5.148  16.507 -0.5161  0.8485 -0.9358
 9436TIP3    H249800   5.156   5.104  16.575  1.2023 -1.1850  1.0809
 9437TIP3   OH249801   5.860   6.354  13.922 -0.0374 -0.0798 -0.0473
 9437TIP3    H149802   5.766   6.374  13.925 -0.1726 -0.7280  0.3392
 9437TIP3    H249803   5.903   6.439  13.927 -0.6042  0.2032  0.1301
 9438TIP3   OH249804   0.126   3.411   1.370  0.1975  0.2501 -0.0841
 9438TIP3    H149805   0.055   3.350   1.356 -1.0055  1.9736 -1.7036
 9438TIP3    H249806   0.149   3.443   1.283  2.5529  0.2006  0.4640
 9439TIP3   OH249807   0.532   4.047  13.969  0.3017 -0.5016 -0.2082
 9439TIP3    H149808   0.511   4.073  14.059 -0.0648 -0.5817 -0.2706
 9439TIP3    H249809   0.457   4.075  13.917  0.3519 -0.7767 -0.4340
 9440TIP3   OH249810   4.059   5.593  16.864 -0.3599 -0.3305  0.0044
 9440TIP3    H149811   4.041   5.633  16.949  0.1574  0.1314 -0.1041
 9440TIP3    H249812   4.149   5.561  16.871  0.1141  0.8077 -0.7928
 9441TIP3   OH249813   0.200   1.615  10.877  0.0250  0.4168  0.2638
 9441TIP3    H149814   0.197   1.639  10.785  0.5580 -0.0720  0.1185
 9441TIP3    H249815   0.207   1.520  10.877  0.7107  0.4637  0.7971
 9442TIP3   OH249816   4.247   5.186  16.232  0.0317  0.5430 -0.0335
 9442TIP3    H149817   4.172   5.148  16.185  0.7577  1.4035 -1.9495
 9442TIP3    H249818   4.228   5.279  16.236  0.2788  0.5597  0.8658
 9443TIP3   OH249819   0.719   3.414  12.157  0.0357 -0.4399 -0.0107
 9443TIP3    H149820   0.799   3.466  12.163 -0.8068  1.1292 -1.8710
 9443TIP3    H249821   0.738   3.347  12.092 -0.5698  0.7650 -1.4639
 9444TIP3   OH249822   6.483   0.902   0.015  0.1150 -0.3253 -0.3735
 9444TIP3    H149823   6.453   0.967   0.079 -0.2721 -0.3547 -0.5209
 9444TIP3    H249824   6.546   0.950  -0.039  0.4252 -0.2952  0.0138
 9445TIP3   OH249825   3.029   5.016   1.332 -0.0059  0.0059  0.1177
 9445TIP3    H149826   3.064   5.068   1.405  2.4569 -0.8461 -0.3911
 9445TIP3    H249827   3.081   5.044   1.256 -2.9096  1.2905 -1.4898
 9446TIP3   OH249828   6.581   0.198   2.752 -0.0973 -0.2146  0.3349
 9446TIP3    H149829   6.537   0.120   2.784  0.7374 -0.1877  1.5577
 9446TIP3    H249830   6.671   0.170   2.736 -0.0228  0.2675 -0.1149
 9447TIP3   OH249831   4.009   5.420   4.589 -0.0083 -0.4368 -0.3033
 9447TIP3    H149832   3.915   5.436   4.593 -0.1966 -1.6498  0.2592
 9447TIP3    H249833   4.018   5.336   4.544  0.7858 -0.4980 -0.0503
 9448TIP3   OH249834   5.694   0.908  12.310  0.0230  0.2842  0.6384
 9448TIP3    H149835   5.609   0.866  12.298  0.6158 -1.0698  1.0631
 9448TIP3    H249836   5.756   0.835  12.314  1.0676  1.2071  1.4232
 9449TIP3   OH249837   6.562   4.441   5.771  0.5024 -0.8021  0.2010
 9449TIP3    H149838   6.509   4.377   5.723 -1.0251  1.4737 -1.2892
 9449TIP3    H249839   6.595   4.500   5.703  4.0834 -1.5041  1.2401
 9450TIP3   OH249840   3.965   1.041   2.565 -0.6315  0.0675  0.3531
 9450TIP3    H149841   3.915   1.118   2.538 -1.5895 -0.6599 -0.0036
 9450TIP3    H249842   3.898   0.973   2.579  0.2603 -0.9252 -0.1338
 9451TIP3   OH249843   4.087   3.641   3.113  0.3580  0.4795  0.0196
 9451TIP3    H149844   4.101   3.694   3.192  0.1320  2.4364 -1.2157
 9451TIP3    H249845   4.059   3.704   3.047  1.7124 -0.9414 -1.9671
 9452TIP3   OH249846   6.130   0.286   4.487 -0.0714 -0.1093 -0.2404
 9452TIP3    H149847   6.091   0.208   4.449  0.1385  0.4108 -1.5558
 9452TIP3    H249848   6.210   0.300   4.436  0.0130  0.8269  0.1396
 9453TIP3   OH249849   4.537   1.280   5.121  0.1955 -0.4364 -0.4453
 9453TIP3    H149850   4.509   1.214   5.183 -2.1079  0.0974 -0.8499
 9453TIP3    H249851   4.589   1.233   5.056 -0.7772 -1.7140 -0.3052
 9454TIP3   OH249852   5.253   4.348   3.711 -0.6499 -0.0551  0.5882
 9454TIP3    H149853   5.300   4.301   3.780 -0.6240  0.2661  0.7881
 9454TIP3    H249854   5.185   4.398   3.757  0.3536  1.3787  0.5517
 9455TIP3   OH249855   2.837   4.763   3.353 -0.4229 -0.0408  0.0417
 9455TIP3    H149856   2.827   4.837   3.294 -1.7952  0.5228  0.9404
 9455TIP3    H249857   2.833   4.686   3.297 -1.1786  0.5042 -0.6652
 9456TIP3   OH249858   2.836   4.525  11.877 -0.0086 -0.0972 -0.3310
 9456TIP3    H149859   2.899   4.454  11.884 -0.1730 -0.2299 -0.1877
 9456TIP3    H249860   2.791   4.526  11.961 -3.3719 -2.9890 -1.9278
 9457TIP3   OH249861   1.968   3.171  14.108 -0.0555  0.5907 -0.2176
 9457TIP3    H149862   1.898   3.201  14.167 -0.2149 -1.4428  0.6598
 9457TIP3    H249863   2.043   3.156  14.165  0.4049  0.5191 -0.8395
 9458TIP3   OH249864   3.232   0.821   1.283  0.3199 -0.2297 -0.2188
 9458TIP3    H149865   3.146   0.781   1.293  1.1011 -2.1762 -1.1149
 9458TIP3    H249866   3.265   0.787   1.200  1.1113  2.1290 -0.9324
 9459TIP3   OH249867   0.922   1.196   4.224 -0.1576 -0.1281 -0.2304
 9459TIP3    H149868   0.916   1.284   4.189  1.4975 -0.1344 -0.5660
 9459TIP3    H249869   0.948   1.142   4.150 -0.9870 -0.8590  0.0135
 9460TIP3   OH249870   4.265   3.249  11.258  0.2021  0.0674  0.2893
 9460TIP3    H149871   4.234   3.163  11.228  0.9184 -0.2057  0.3199
 9460TIP3    H249872   4.230   3.258  11.346  2.2616 -1.3413  1.2973
 9461TIP3   OH249873   6.261   6.000   4.066 -0.3474  0.8753 -0.3181
 9461TIP3    H149874   6.254   5.909   4.095  4.0229  0.4081 -0.4039
 9461TIP3    H249875   6.266   5.994   3.970 -0.4167  1.2301 -0.3452
 9462TIP3   OH249876   5.484   1.884   3.749  0.0807  0.3438  0.0199
 9462TIP3    H149877   5.577   1.906   3.745  0.3229 -0.9701 -2.4516
 9462TIP3    H249878   5.481   1.795   3.784 -0.1734  0.0160 -0.8160
 9463TIP3   OH249879   0.760   5.089  13.371  0.2005  0.6064  0.3424
 9463TIP3    H149880   0.801   5.005  13.349  0.7246  0.8829  0.2650
 9463TIP3    H249881   0.672   5.065  13.400 -0.5885  0.2359 -2.2219
 9464TIP3   OH249882   6.282   5.178   6.594 -0.2833  0.1590  0.1285
 9464TIP3    H149883   6.266   5.093   6.634  0.5013 -1.0024 -1.9233
 9464TIP3    H249884   6.232   5.240   6.647 -1.1284 -1.6186  1.4477
 9465TIP3   OH249885   5.012   2.385   3.380  0.1508 -0.3752  0.2654
 9465TIP3    H149886   5.070   2.452   3.416 -0.2443 -0.3652  0.8811
 9465TIP3    H249887   5.041   2.303   3.420  1.3997 -0.7724 -1.3749
 9466TIP3   OH249888   6.428   1.884   3.758 -0.0764 -0.2543  0.3263
 9466TIP3    H149889   6.345   1.885   3.710  0.1781  0.4162 -0.0981
 9466TIP3    H249890   6.415   1.947   3.830 -0.4284 -1.1938  1.0976
 9467TIP3   OH249891   6.486   1.512   0.772  0.7328  0.4447 -0.5306
 9467TIP3    H149892   6.577   1.541   0.778  1.6383 -2.3978  0.2919
 9467TIP3    H249893   6.486   1.449   0.701 -0.5441  0.1730 -0.3003
 9468TIP3   OH249894   4.469   4.409   3.314  0.2168 -0.6218 -0.0131
 9468TIP3    H149895   4.394   4.361   3.349  2.4253 -4.0141  0.3344
 9468TIP3    H249896   4.471   4.385   3.221  1.7789 -1.8520  0.3246
 9469TIP3   OH249897   1.747   5.951   2.535 -0.0997  0.1987 -0.3628
 9469TIP3    H149898   1.830   5.902   2.535 -0.2524 -0.0617 -0.0978
 9469TIP3    H249899   1.680   5.884   2.548 -0.4731  0.2227 -1.9956
 9470TIP3   OH249900   1.304   2.883   6.457 -0.2006  0.1320 -0.2707
 9470TIP3    H149901   1.265   2.796   6.471  0.9348 -0.0763  1.8773
 9470TIP3    H249902   1.367   2.870   6.386  1.8196 -1.4672  1.7185
 9471TIP3   OH249903   5.059   3.044  14.457  0.3138 -0.1397 -0.5464
 9471TIP3    H149904   5.045   3.046  14.552 -0.8611 -0.0356 -0.7148
 9471TIP3    H249905   4.972   3.030  14.420  1.0381 -2.3052 -1.5307
 9472TIP3   OH249906   4.328   4.359   1.624 -0.2855 -0.0989  0.3040
 9472TIP3    H149907   4.291   4.351   1.712 -0.8865  0.2027  0.0790
 9472TIP3    H249908   4.308   4.275   1.582 -0.4912 -0.0277  0.2635
 9473TIP3   OH249909   0.663   1.311   4.029  0.4267 -0.1266 -0.5840
 9473TIP3    H149910   0.655   1.373   3.957  0.8944  0.3753 -0.2040
 9473TIP3    H249911   0.757   1.296   4.038  0.3751 -0.0974 -0.0021
 9474TIP3   OH249912   2.972   4.079   0.622  0.7430 -0.4379  0.4202
 9474TIP3    H149913   2.890   4.032   0.605 -0.2696  1.0324  1.2141
 9474TIP3    H249914   2.996   4.055   0.711  1.1228 -0.7511  0.2400
 9475TIP3   OH249915   0.899   1.996   5.583  0.2268 -0.5105 -0.0253
 9475TIP3    H149916   0.827   1.973   5.642 -0.3164  0.6959 -0.2140
 9475TIP3    H249917   0.938   2.074   5.622  0.5169 -0.3098 -0.7178
 9476TIP3   OH249918   2.215   5.096   5.981 -0.0008  0.5078 -0.6088
 9476TIP3    H149919   2.272   5.024   5.955  0.2938  0.5679 -0.1287
 9476TIP3    H249920   2.145   5.055   6.030  1.0843  0.7306  1.1569
 9477TIP3   OH249921   1.848   2.088  13.785 -0.3586  0.5167  0.6067
 9477TIP3    H149922   1.888   2.161  13.739  1.9256  0.0720  1.8054
 9477TIP3    H249923   1.838   2.020  13.718 -1.9709  1.6881 -0.3783
 9478TIP3   OH249924   2.488   6.551   2.466  0.1526  0.7427  0.1493
 9478TIP3    H149925   2.448   6.465   2.457  2.5787 -0.5068  0.8259
 9478TIP3    H249926   2.499   6.581   2.375 -0.2330  0.1230 -0.1074
 9479TIP3   OH249927   0.801   5.223  12.634  0.3641  0.3316  0.0903
 9479TIP3    H149928   0.893   5.244  12.614  0.4532 -0.4002 -0.2706
 9479TIP3    H249929   0.800   5.129  12.649  0.0634  0.6527  2.3071
 9480TIP3   OH249930   4.437   1.403   3.387  0.1470  0.2316  0.4074
 9480TIP3    H149931   4.409   1.456   3.461 -1.4614  1.2772 -0.9000
 9480TIP3    H249932   4.507   1.454   3.346 -0.8615  0.9852 -0.3926
 9481TIP3   OH249933   4.754   4.373   2.084 -0.7198  0.1266  1.1453
 9481TIP3    H149934   4.783   4.464   2.081 -1.0689  0.3050  2.5895
 9481TIP3    H249935   4.779   4.337   1.999 -0.3672  1.4991  0.6440
 9482TIP3   OH249936   1.492   6.350   5.750 -0.1224  0.3802  0.3622
 9482TIP3    H149937   1.455   6.289   5.813  0.5886 -0.8658 -0.4035
 9482TIP3    H249938   1.585   6.327   5.745  0.3118  1.9969  0.6029
 9483TIP3   OH249939   2.863   6.335   2.767 -0.2491 -0.2501 -0.0409
 9483TIP3    H149940   2.884   6.416   2.813 -1.3239  1.1171 -1.8782
 9483TIP3    H249941   2.769   6.322   2.784 -0.1842 -0.8628 -0.1400
 9484TIP3   OH249942   4.608   0.807   4.548  0.0534  0.2775 -0.7844
 9484TIP3    H149943   4.643   0.737   4.602 -0.9958  0.4487  0.1212
 9484TIP3    H249944   4.600   0.769   4.460  3.0910  0.4095 -1.2021
 9485TIP3   OH249945   5.388   0.238  16.070 -0.3799 -0.6104 -0.6354
 9485TIP3    H149946   5.332   0.160  16.064 -1.4909 -0.0270  1.6017
 9485TIP3    H249947   5.328   0.311  16.058  0.0253 -0.0143  0.8174
 9486TIP3   OH249948   5.089   5.906   4.953 -0.7006 -0.0453 -0.0109
 9486TIP3    H149949   5.014   5.869   4.907  0.0859 -1.6136 -0.0519
 9486TIP3    H249950   5.162   5.850   4.928  0.0522  0.0950  1.8236
 9487TIP3   OH249951   5.816   1.465  16.876  0.1705 -0.0710  0.0076
 9487TIP3    H149952   5.723   1.442  16.876  0.1235  0.1176  0.0133
 9487TIP3    H249953   5.818   1.557  16.903  0.3826 -0.1631  0.3108
 9488TIP3   OH249954   2.530   4.424   5.414  0.4978  0.5867  0.3895
 9488TIP3    H149955   2.506   4.412   5.322  0.9674  1.0547  0.2065
 9488TIP3    H249956   2.482   4.502   5.441 -0.3948 -0.0979  0.8161
 9489TIP3   OH249957   0.051   0.619  11.615 -0.2433  0.1019 -0.3836
 9489TIP3    H149958   0.039   0.709  11.588 -0.5143 -0.1614 -1.1564
 9489TIP3    H249959  -0.018   0.571  11.569  0.8312 -0.7218 -1.1679
 9490TIP3   OH249960   5.984   4.196  14.553 -0.1882 -0.1038 -0.3215
 9490TIP3    H149961   5.917   4.257  14.582  1.0128  1.5526 -0.9447
 9490TIP3    H249962   5.936   4.118  14.524 -1.7720  0.8022 -0.1404
 9491TIP3   OH249963   4.313   3.259   4.563  0.3553  0.5470  0.8311
 9491TIP3    H149964   4.226   3.267   4.602  0.5992  1.3968  1.2092
 9491TIP3    H249965   4.297   3.225   4.474 -0.1645 -1.8313  1.7957
 9492TIP3   OH249966   2.951   2.795  15.534 -1.1247 -0.2933 -0.7341
 9492TIP3    H149967   2.938   2.719  15.590  0.0406 -0.3216 -0.5041
 9492TIP3    H249968   2.877   2.853  15.554  1.0460  1.2569  3.3864
 9493TIP3   OH249969   0.193   2.568   0.990 -0.0440  0.6516 -0.1251
 9493TIP3    H149970   0.165   2.488   1.035  1.8419  0.6448  1.1019
 9493TIP3    H249971   0.123   2.631   1.006 -1.3160 -0.6082 -0.6852
 9494TIP3   OH249972   1.655   5.551   0.503  0.4289  0.0849 -0.5529
 9494TIP3    H149973   1.648   5.517   0.414 -1.0117  1.3291 -0.9327
 9494TIP3    H249974   1.630   5.478   0.560 -2.2019  0.3429 -1.3344
 9495TIP3   OH249975   6.536   3.869   4.717  0.3173 -0.3330  0.3010
 9495TIP3    H149976   6.449   3.908   4.706  0.4658 -0.5339 -1.9447
 9495TIP3    H249977   6.596   3.944   4.717  0.2201 -0.2572  0.7744
 9496TIP3   OH249978   4.246   6.168   3.625  0.4622 -0.1518 -0.4073
 9496TIP3    H149979   4.254   6.235   3.557 -0.7491  1.0499  0.6287
 9496TIP3    H249980   4.326   6.116   3.617  0.8458  0.6757 -2.0052
 9497TIP3   OH249981   6.391   6.031   0.127  0.3267  0.1890 -0.0151
 9497TIP3    H149982   6.376   6.090   0.201 -2.4298 -0.4680  0.0331
 9497TIP3    H249983   6.339   6.069   0.056  0.8070 -0.6380 -0.8141
 9498TIP3   OH249984   1.814   4.189  15.453 -0.4138 -0.1964  0.0937
 9498TIP3    H149985   1.889   4.189  15.393 -1.0174 -0.8567 -0.6708
 9498TIP3    H249986   1.813   4.100  15.489 -1.9410 -0.7651 -1.3107
 9499TIP3   OH249987   5.045   5.824  13.224  0.5303  0.1321  0.0999
 9499TIP3    H149988   4.984   5.863  13.286  0.5777 -0.1338  0.3178
 9499TIP3    H249989   5.025   5.866  13.140  0.7474  0.7943  0.3818
 9500TIP3   OH249990   0.144   3.939   2.643  0.4834 -0.2996  0.7683
 9500TIP3    H149991   0.226   3.945   2.595 -0.2999 -1.5802 -0.7660
 9500TIP3    H249992   0.129   4.028   2.676  0.8363  0.7209 -1.7230
 9501TIP3   OH249993   3.741   5.543  17.019  0.4747  0.2123 -0.2158
 9501TIP3    H149994   3.688   5.480  16.970  0.6505 -0.4297  0.4072
 9501TIP3    H249995   3.704   5.541  17.107  3.0418 -2.0711  0.8947
 9502TIP3   OH249996   5.042   5.940   0.022  0.3028 -0.4443  0.1219
 9502TIP3    H149997   5.128   5.911   0.052 -0.4409 -1.6080  1.1742
 9502TIP3    H249998   4.984   5.866   0.040 -1.2321  0.9146  0.8710
 9503TIP3   OH249999   4.472   3.412   2.931 -0.0464 -0.3046 -0.0851
 9503TIP3    H150000   4.490   3.349   2.861  1.5201 -1.9684  1.7389
 9503TIP3    H250001   4.406   3.369   2.986 -0.2959  0.4137  0.1759
 9504TIP3   OH250002   1.046   6.803  12.403 -0.2708  0.1365  0.2513
 9504TIP3    H150003   1.083   6.822  12.317 -2.7936  0.6565 -0.7703
 9504TIP3    H250004   1.050   6.707  12.410 -2.1957 -0.1169 -1.5081
 9505TIP3   OH250005   0.085   2.458   0.019 -0.5652  0.1277  0.2580
 9505TIP3    H150006  -0.010   2.469   0.023 -0.4847  0.5976  0.9840
 9505TIP3    H250007   0.100   2.408  -0.061 -1.2810  1.7574 -0.9367
 9506TIP3   OH250008   6.328   0.814   5.393  0.6147  0.3627  0.2559
 9506TIP3    H150009   6.384   0.790   5.467 -0.3782 -2.0135  0.2873
 9506TIP3    H250010   6.372   0.777   5.316 -0.3425 -0.6292  0.1638
 9507TIP3   OH250011   4.256   3.597   6.301 -0.4732 -0.2494  0.0181
 9507TIP3    H150012   4.264   3.659   6.374 -1.4316  0.3727 -0.4017
 9507TIP3    H250013   4.297   3.517   6.334 -1.6079 -0.2374  1.5508
 9508TIP3   OH250014   1.396   3.837   4.644  0.6901  0.3240 -0.3004
 9508TIP3    H150015   1.318   3.884   4.673  0.6024 -0.0847  0.1299
 9508TIP3    H250016   1.404   3.764   4.706  0.3611 -0.7082 -1.4643
 9509TIP3   OH250017   2.139   3.307   1.292 -0.0242 -0.2824 -0.4488
 9509TIP3    H150018   2.101   3.221   1.273 -1.5321 -0.0426  1.3670
 9509TIP3    H250019   2.228   3.289   1.319  0.2305 -1.1197 -1.8205
 9510TIP3   OH250020   0.301   4.385   0.976 -0.0557  0.3522  0.0717
 9510TIP3    H150021   0.242   4.310   0.974  2.4999 -1.7183 -1.8684
 9510TIP3    H250022   0.285   4.430   0.893  0.2770  0.4598  0.0658
 9511TIP3   OH250023   0.637   0.626  12.138 -0.3765  0.5271 -0.2554
 9511TIP3    H150024   0.542   0.616  12.131 -0.3473  0.7250 -1.0016
 9511TIP3    H250025   0.671   0.537  12.130 -0.4861  0.4838 -0.2378
 9512TIP3   OH250026   2.050   2.245   5.773  0.8336  0.2768  0.0843
 9512TIP3    H150027   2.019   2.160   5.804 -0.6651  1.3041  1.5143
 9512TIP3    H250028   2.008   2.309   5.831  0.1282  2.1467 -2.3922
 9513TIP3   OH250029   2.675   2.874   0.610  0.2112 -0.4247 -0.1519
 9513TIP3    H150030   2.764   2.852   0.580  0.5967  0.1963  0.5091
 9513TIP3    H250031   2.619   2.811   0.565  0.8000  0.2565 -1.8769
 9514TIP3   OH250032   0.842   1.700  16.130  0.2845 -0.0656 -0.5103
 9514TIP3    H150033   0.822   1.608  16.113 -0.4062  0.3832 -2.2083
 9514TIP3    H250034   0.808   1.747  16.054 -0.2345  1.7190  0.7795
 9515TIP3   OH250035   1.691   2.942  11.712 -0.0373  0.1360 -0.4022
 9515TIP3    H150036   1.781   2.924  11.740  0.7122  0.1922 -2.6982
 9515TIP3    H250037   1.657   2.856  11.684 -0.4600  0.2344 -0.1914
 9516TIP3   OH250038   2.603   4.916  16.091 -0.9075  0.5807 -0.0563
 9516TIP3    H150039   2.666   4.967  16.041 -0.8997 -0.1204 -0.7860
 9516TIP3    H250040   2.556   4.865  16.025 -0.9620 -0.3001  0.6460
 9517TIP3   OH250041   6.711   2.498   1.796 -0.5594  0.3807 -0.1070
 9517TIP3    H150042   6.650   2.454   1.737  0.5545  0.4330 -1.3079
 9517TIP3    H250043   6.782   2.435   1.809 -0.0978  0.9254  0.0361
 9518TIP3   OH250044   2.529   0.607  17.014  0.1552 -0.4609  0.3037
 9518TIP3    H150045   2.521   0.697  16.980  2.0523 -0.0072  1.0035
 9518TIP3    H250046   2.501   0.552  16.941  0.6857  0.6432 -0.7622
 9519TIP3   OH250047   3.653   4.924   1.721 -0.2142  0.0579  0.3168
 9519TIP3    H150048   3.709   4.846   1.711 -0.4134 -0.2014  1.1452
 9519TIP3    H250049   3.573   4.890   1.761 -0.3909  0.6564  0.4668
 9520TIP3   OH250050   6.787   5.165  13.821 -0.1978  0.3562 -0.2129
 9520TIP3    H150051   6.760   5.108  13.749  1.2305 -0.7851  0.1240
 9520TIP3    H250052   6.733   5.136  13.895 -0.2462  0.1781 -0.3167
 9521TIP3   OH250053   5.728   3.928   0.719  0.1664  0.6760  1.1236
 9521TIP3    H150054   5.671   3.957   0.648  0.2317  0.5648  1.0268
 9521TIP3    H250055   5.683   3.853   0.757  0.1912  0.6599  1.1216
 9522TIP3   OH250056   0.068   6.564  12.210  0.3366 -0.8420  0.1935
 9522TIP3    H150057   0.107   6.478  12.197 -1.4168 -1.5972 -0.2812
 9522TIP3    H250058  -0.002   6.549  12.274  0.6070  0.4146  0.7977
 9523TIP3   OH250059   1.436   4.964  16.645  0.5088 -0.1992 -0.4047
 9523TIP3    H150060   1.418   4.873  16.669 -0.7069  0.2386  0.3893
 9523TIP3    H250061   1.458   4.960  16.552  0.5984 -1.3222 -0.3442
 9524TIP3   OH250062   4.095   3.779  15.878  0.2591 -0.3103  0.3071
 9524TIP3    H150063   4.045   3.700  15.899 -0.0255 -0.2683 -0.2036
 9524TIP3    H250064   4.174   3.772  15.931 -0.4179 -0.2297  1.3331
 9525TIP3   OH250065   6.304   0.621   4.357 -0.0201 -0.0685 -0.6891
 9525TIP3    H150066   6.252   0.559   4.306  1.0255 -1.8430  0.3629
 9525TIP3    H250067   6.374   0.648   4.297 -1.3529  1.3520 -1.6756
 9526TIP3   OH250068   4.863   5.499   3.578  0.1589 -0.0873  0.1404
 9526TIP3    H150069   4.889   5.536   3.494 -1.3805 -0.1643 -0.3858
 9526TIP3    H250070   4.771   5.521   3.587  0.1466 -0.6312  1.5181
 9527TIP3   OH250071   2.293   4.866  15.009 -0.4143 -0.0872  0.2891
 9527TIP3    H150072   2.236   4.897  15.079  0.8321 -1.9884  2.1595
 9527TIP3    H250073   2.377   4.849  15.051  0.5655 -0.5650 -1.7972
 9528TIP3   OH250074   6.110   2.049  11.971  0.6911 -0.5379 -0.1317
 9528TIP3    H150075   6.175   1.979  11.979  0.7156 -0.6600 -1.3354
 9528TIP3    H250076   6.043   2.027  12.036  0.2735 -2.1442 -1.0743
 9529TIP3   OH250077   1.117   4.982  14.940  0.0094  0.6858  0.1242
 9529TIP3    H150078   1.152   4.913  14.884  1.5137  0.3019  1.5006
 9529TIP3    H250079   1.159   5.062  14.909  1.2608  0.3915  1.0498
 9530TIP3   OH250080   2.833   5.443   3.681 -0.1092 -0.0739  0.3213
 9530TIP3    H150081   2.895   5.397   3.738 -2.0209 -2.9419  0.1895
 9530TIP3    H250082   2.747   5.409   3.708 -1.6358  3.4983  0.2376
 9531TIP3   OH250083   2.167   5.165   4.659  0.2223  0.1687  0.2001
 9531TIP3    H150084   2.152   5.131   4.747 -1.1143  0.3813  0.0647
 9531TIP3    H250085   2.084   5.205   4.634  0.4417 -0.2841 -1.3283
 9532TIP3   OH250086   2.162   2.634  17.161 -0.3772 -0.0653 -0.3144
 9532TIP3    H150087   2.196   2.546  17.147 -1.3738 -0.4536 -0.3317
 9532TIP3    H250088   2.147   2.669  17.073 -0.5540 -0.1076 -0.3026
 9533TIP3   OH250089   2.623   3.841   1.011 -0.2376 -0.6646  0.6590
 9533TIP3    H150090   2.687   3.787   0.965  0.3817  1.8858 -1.5854
 9533TIP3    H250091   2.538   3.807   0.982  0.1454 -0.4767 -0.6980
 9534TIP3   OH250092   2.343   3.447  15.505  0.0765 -0.6353  0.2095
 9534TIP3    H150093   2.360   3.417  15.595 -1.9365 -1.2869  0.4167
 9534TIP3    H250094   2.396   3.525  15.495  0.6657 -0.7998  1.8275
 9535TIP3   OH250095   0.043   3.041   4.392  0.3258  0.1890  0.1223
 9535TIP3    H150096  -0.013   3.108   4.433 -1.3120 -1.4549  0.6495
 9535TIP3    H250097   0.082   2.994   4.466  0.8972  0.0871 -0.2418
 9536TIP3   OH250098   5.904   1.083  12.330  0.1817 -0.1615 -0.1507
 9536TIP3    H150099   5.878   1.156  12.385 -2.0579  0.9784 -2.5694
 9536TIP3    H250100   5.822   1.034  12.317  0.9026 -1.0290 -1.5032
 9537TIP3   OH250101   5.573   1.525  11.094 -0.8312 -0.8967  0.5681
 9537TIP3    H150102   5.481   1.500  11.082 -1.2957  0.8788  0.1968
 9537TIP3    H250103   5.571   1.587  11.168 -0.0042 -0.4851  0.2563
 9538TIP3   OH250104   3.052   1.535   3.375  0.2777 -0.0654 -0.6209
 9538TIP3    H150105   2.965   1.573   3.384 -1.1022 -2.6750 -2.3045
 9538TIP3    H250106   3.067   1.489   3.457 -0.1233  0.0554 -0.4805
 9539TIP3   OH250107   3.588   0.909  14.360 -0.2167 -0.2325  0.4339
 9539TIP3    H150108   3.588   0.833  14.418 -1.0100  0.6014  1.5271
 9539TIP3    H250109   3.536   0.881  14.285  0.4846 -1.1729  0.2740
 9540TIP3   OH250110   5.880   1.403   2.718  0.0673  0.5887  0.1485
 9540TIP3    H150111   5.971   1.383   2.738  0.2546  1.5302  0.2600
 9540TIP3    H250112   5.866   1.365   2.631  0.0207 -1.1707  0.8914
 9541TIP3   OH250113   3.974   3.936  10.682 -0.0299 -0.4797  0.2695
 9541TIP3    H150114   3.985   3.948  10.777  0.0364  1.9261 -0.0003
 9541TIP3    H250115   3.883   3.910  10.671 -0.4782  0.7699  0.8981
 9542TIP3   OH250116   2.593   4.922   5.281  0.1965  0.3171  0.0763
 9542TIP3    H150117   2.685   4.940   5.262  0.6210 -1.0648  0.7523
 9542TIP3    H250118   2.576   4.969   5.363  0.4590  0.0794  0.2652
 9543TIP3   OH250119   4.727   3.054  15.353 -0.3112 -0.3968 -0.0977
 9543TIP3    H150120   4.704   3.055  15.260 -1.3353  1.1309  0.1650
 9543TIP3    H250121   4.812   3.097  15.357 -0.3317 -0.3379 -0.3051
 9544TIP3   OH250122   3.125   4.154  16.117 -0.1668 -0.2900  0.5313
 9544TIP3    H150123   3.125   4.249  16.104  3.4082 -0.6461 -3.1218
 9544TIP3    H250124   3.057   4.121  16.058 -0.3028 -0.1455  0.6073
 9545TIP3   OH250125   6.106   3.011  16.142 -0.0743 -0.4455 -0.1041
 9545TIP3    H150126   6.190   3.053  16.122 -0.9269  0.6519 -1.4494
 9545TIP3    H250127   6.089   3.033  16.233  0.2365  0.8274 -0.3513
 9546TIP3   OH250128   0.993   1.462   2.924 -0.6371 -0.1199  0.6922
 9546TIP3    H150129   1.024   1.550   2.902  2.8034 -0.9525  1.7978
 9546TIP3    H250130   0.996   1.415   2.841  1.1337 -0.1585  0.7549
 9547TIP3   OH250131   4.279   3.521  15.780 -0.4940 -0.4106  0.0517
 9547TIP3    H150132   4.330   3.445  15.750 -1.4494 -0.9893 -0.1455
 9547TIP3    H250133   4.225   3.486  15.851 -1.1620  0.0166 -0.2477
 9548TIP3   OH250134   0.549   4.439  14.054  0.2369  0.9574  1.0588
 9548TIP3    H150135   0.517   4.459  14.142 -0.0919  0.8180  0.9700
 9548TIP3    H250136   0.510   4.506  13.998 -0.2070  0.5652  0.8931
 9549TIP3   OH250137   0.205   4.670  14.945 -0.5193  0.3385  0.2023
 9549TIP3    H150138   0.187   4.731  15.016 -1.0998  0.2370  0.1437
 9549TIP3    H250139   0.174   4.714  14.867 -0.0102  0.3884  0.0273
 9550TIP3   OH250140   4.447   6.299   0.926 -0.2288  0.4477  0.2068
 9550TIP3    H150141   4.372   6.239   0.913  0.0874 -0.2263  1.4205
 9550TIP3    H250142   4.460   6.339   0.840 -0.6698 -0.9816 -0.5567
 9551TIP3   OH250143   2.472   4.761  14.605  0.4580 -0.1081  0.0259
 9551TIP3    H150144   2.399   4.817  14.628  0.5516 -0.4144  1.0809
 9551TIP3    H250145   2.437   4.672  14.609  1.6325 -0.4863  3.5762
 9552TIP3   OH250146   0.305   4.840   4.659  0.7489 -0.2883  0.1395
 9552TIP3    H150147   0.313   4.831   4.754 -0.7309 -0.1795  0.2877
 9552TIP3    H250148   0.217   4.808   4.639  0.7592  0.4259 -1.1002
 9553TIP3   OH250149   1.754   6.478   0.662 -0.2744 -0.6172  0.2342
 9553TIP3    H150150   1.757   6.556   0.607  0.4063  0.3572  1.5940
 9553TIP3    H250151   1.794   6.410   0.609 -1.0339 -0.0873 -1.0395
 9554TIP3   OH250152   0.261   4.745   1.897  0.2959 -0.0832 -0.1358
 9554TIP3    H150153   0.214   4.686   1.956 -1.8034  0.4889 -1.1795
 9554TIP3    H250154   0.328   4.691   1.856  0.4960 -0.9516  1.2977
 9555TIP3   OH250155   0.375   3.581  11.976  0.1379  0.4593  0.4149
 9555TIP3    H150156   0.287   3.550  11.956 -0.9231  2.6897  1.5413
 9555TIP3    H250157   0.378   3.671  11.944  2.2175  0.2331 -0.1343
 9556TIP3   OH250158   4.727   6.339  13.903  0.4712 -0.4784  0.0786
 9556TIP3    H150159   4.671   6.300  13.835  1.0535  1.0599 -1.3025
 9556TIP3    H250160   4.677   6.328  13.984 -0.9856 -0.8403 -0.8509
 9557TIP3   OH250161   2.852   6.650   5.108  0.0363 -0.1354  0.2592
 9557TIP3    H150162   2.939   6.611   5.103 -0.8020 -2.1780  0.8897
 9557TIP3    H250163   2.810   6.605   5.182 -2.2474 -0.6324 -1.2793
 9558TIP3   OH250164   5.038   1.264  15.514  0.0185 -0.1367  0.4406
 9558TIP3    H150165   5.081   1.286  15.597 -0.6927 -0.3832  0.8865
 9558TIP3    H250166   5.080   1.320  15.449 -0.7832  1.5337  1.3264
 9559TIP3   OH250167   5.934   6.170   0.481  0.2138  0.1731 -0.2617
 9559TIP3    H150168   5.842   6.162   0.455  0.5659 -1.8293 -1.0171
 9559TIP3    H250169   5.941   6.114   0.559  0.7216  0.5793 -0.0106
 9560TIP3   OH250170   4.404   5.957  10.421 -0.4701  0.0974  0.0959
 9560TIP3    H150171   4.329   5.958  10.481 -1.4499  1.1841 -1.1163
 9560TIP3    H250172   4.471   5.905  10.467 -1.4657  0.2735  1.7879
 9561TIP3   OH250173   0.607   5.492   0.066 -0.0319 -0.2266 -0.8734
 9561TIP3    H150174   0.525   5.502   0.114  0.0255 -2.5896 -0.2145
 9561TIP3    H250175   0.584   5.442  -0.011  1.0531 -2.4044  0.1705
 9562TIP3   OH250176   3.085   1.040  13.784  0.3358 -0.7558  0.0245
 9562TIP3    H150177   3.035   1.117  13.758  1.9010 -0.0222 -0.8770
 9562TIP3    H250178   3.019   0.976  13.810 -1.0218  0.4943 -0.2907
 9563TIP3   OH250179   1.021   0.955   4.114  0.6766 -0.1822  0.3737
 9563TIP3    H150180   0.970   0.978   4.191 -0.3514 -0.3057 -0.2574
 9563TIP3    H250181   0.967   0.892   4.067  0.2833  1.5057 -1.5494
 9564TIP3   OH250182   4.292   6.280   5.630  0.3114  0.0890  0.4573
 9564TIP3    H150183   4.211   6.288   5.580  0.3849  1.0536  0.4863
 9564TIP3    H250184   4.263   6.270   5.721  0.2308  1.1839  0.5599
 9565TIP3   OH250185   0.550   0.229  14.439 -1.0764  0.1965 -0.1899
 9565TIP3    H150186   0.547   0.271  14.353  2.1348  2.9734  0.9409
 9565TIP3    H250187   0.597   0.146  14.424  0.3367  1.1239 -0.9986
 9566TIP3   OH250188   6.640   5.008   4.355  0.1486  0.1810  0.0289
 9566TIP3    H150189   6.598   5.060   4.287 -0.2104 -0.6286 -0.3692
 9566TIP3    H250190   6.569   4.982   4.413  0.2196 -0.4584 -0.1657
 9567TIP3   OH250191   5.262   4.367   6.352  0.1503  0.1912 -0.6471
 9567TIP3    H150192   5.268   4.274   6.330 -0.9510 -0.4351  1.5417
 9567TIP3    H250193   5.183   4.373   6.406 -1.0586  2.7849 -2.5823
 9568TIP3   OH250194   0.080   2.082   5.001 -0.2943  0.4769 -1.0147
 9568TIP3    H150195   0.005   2.023   4.998 -0.2343  0.2499  1.1663
 9568TIP3    H250196   0.098   2.103   4.909 -1.7843 -1.0190 -1.6701
 9569TIP3   OH250197   5.959   6.087  12.821  0.2426  0.2083  0.0938
 9569TIP3    H150198   6.044   6.068  12.781  1.6338  1.4559  2.3856
 9569TIP3    H250199   5.979   6.111  12.911 -2.6291 -0.2734  0.9213
 9570TIP3   OH250200   4.430   0.744  13.842 -0.4910  0.0202  0.4585
 9570TIP3    H150201   4.391   0.765  13.758  1.7065 -0.5004 -0.7444
 9570TIP3    H250202   4.436   0.828  13.888  1.6083  0.9401 -1.3939
 9571TIP3   OH250203   6.140   0.326  10.909  0.3931  0.1346 -0.0180
 9571TIP3    H150204   6.196   0.253  10.933 -0.0457  0.1028  0.9560
 9571TIP3    H250205   6.108   0.360  10.993  1.2306  1.9508 -0.4079
 9572TIP3   OH250206   0.427   2.011  14.938  0.0432  0.7849  0.3500
 9572TIP3    H150207   0.475   2.092  14.952 -0.9508  2.0893 -3.3078
 9572TIP3    H250208   0.336   2.038  14.927 -0.2413 -0.7798 -1.3351
 9573TIP3   OH250209   3.412   4.619  14.129  0.1653 -0.0489  0.1559
 9573TIP3    H150210   3.473   4.555  14.166  0.8354  0.8186  0.5669
 9573TIP3    H250211   3.336   4.567  14.103  0.2199 -0.8464  1.5535
 9574TIP3   OH250212   1.925   5.245  16.433  0.6607 -0.6970 -0.6698
 9574TIP3    H150213   1.994   5.196  16.479  0.4023 -0.9045 -0.5055
 9574TIP3    H250214   1.938   5.222  16.341  0.8687 -0.6712 -0.6495
 9575TIP3   OH250215   0.731   5.122   2.392  0.2592 -0.1406 -0.5598
 9575TIP3    H150216   0.761   5.172   2.468 -0.2190  0.6027 -0.8580
 9575TIP3    H250217   0.711   5.035   2.427  0.5029  0.0578  0.0772
 9576TIP3   OH250218   2.765   5.217  16.512 -0.1370  0.0879 -0.3056
 9576TIP3    H150219   2.740   5.206  16.604  2.3042 -1.2035  0.2665
 9576TIP3    H250220   2.769   5.312  16.499 -1.4337  0.2884  0.6268
 9577TIP3   OH250221   2.911   1.332  15.022  0.3619 -0.5812 -0.0068
 9577TIP3    H150222   2.930   1.239  15.018  1.6848 -0.2534 -1.9501
 9577TIP3    H250223   2.987   1.370  15.067  0.7678 -0.2201 -0.9729
 9578TIP3   OH250224   4.988   6.227  10.693  0.4929  0.2585 -0.2395
 9578TIP3    H150225   4.996   6.138  10.729  0.7362  0.1509 -0.5502
 9578TIP3    H250226   4.904   6.227  10.647 -0.3021  0.7179  1.1965
 9579TIP3   OH250227   5.417   5.620   5.510 -0.3708 -0.1858  0.2567
 9579TIP3    H150228   5.379   5.661   5.432  1.5649  2.0197  0.4119
 9579TIP3    H250229   5.491   5.568   5.477 -1.1091 -1.3124  0.3624
 9580TIP3   OH250230   1.589   3.612   4.762  0.2549 -0.0386  0.3122
 9580TIP3    H150231   1.633   3.529   4.740 -1.1439 -0.7337  0.0888
 9580TIP3    H250232   1.633   3.641   4.842 -0.3499 -1.8507  1.3305
 9581TIP3   OH250233   0.555   3.842  15.059 -0.1704  0.1929  0.3546
 9581TIP3    H150234   0.641   3.822  15.095 -1.3847 -1.2456  2.6089
 9581TIP3    H250235   0.522   3.913  15.114 -0.7592  0.1643  0.0485
 9582TIP3   OH250236   6.032   0.355  15.719 -0.3976 -0.5730 -0.0830
 9582TIP3    H150237   6.027   0.262  15.743 -1.4946 -0.5437 -0.1907
 9582TIP3    H250238   6.074   0.397  15.794 -1.1231 -0.9535  0.5445
 9583TIP3   OH250239   0.556   3.178  11.513 -0.2000  0.3593  0.5240
 9583TIP3    H150240   0.514   3.094  11.495 -0.5848  1.0574 -1.9733
 9583TIP3    H250241   0.642   3.172  11.472  0.7183  0.3284  2.3956
 9584TIP3   OH250242   5.433   1.175   1.595  0.5379 -0.0060  0.0626
 9584TIP3    H150243   5.360   1.214   1.548  0.8418 -0.9550 -1.2323
 9584TIP3    H250244   5.511   1.217   1.559  0.7419 -0.3480  0.0970
 9585TIP3   OH250245   6.437   0.875   0.953 -0.5178 -0.1436  0.4469
 9585TIP3    H150246   6.469   0.835   1.034  0.4385  0.5103  0.3950
 9585TIP3    H250247   6.501   0.943   0.933 -0.7832 -0.2680 -0.8335
 9586TIP3   OH250248   6.739   4.946  14.985  0.3607 -0.2851 -0.3095
 9586TIP3    H150249   6.684   4.998  14.927 -1.7419  1.8484  3.4886
 9586TIP3    H250250   6.680   4.882  15.023  0.5559  1.5680  3.2721
 9587TIP3   OH250251   0.564   1.074   0.487 -0.3924 -0.1335  0.3487
 9587TIP3    H150252   0.496   1.137   0.462 -0.2665 -0.1978 -0.1762
 9587TIP3    H250253   0.557   1.005   0.420 -0.4327 -0.6005  0.8348
 9588TIP3   OH250254   6.162   0.345  12.988 -0.2179  0.0875 -0.8016
 9588TIP3    H150255   6.227   0.360  13.056 -1.8691 -2.0376  1.3131
 9588TIP3    H250256   6.104   0.279  13.024 -2.8636  1.0479 -3.1098
 9589TIP3   OH250257   6.122   2.403   5.384 -0.4637  0.2683 -0.4312
 9589TIP3    H150258   6.123   2.307   5.389 -0.1252  0.0983 -3.1044
 9589TIP3    H250259   6.029   2.426   5.384 -0.5718 -0.1599 -1.3493
 9590TIP3   OH250260   3.307   0.836   1.008  0.2608 -0.2380 -0.1733
 9590TIP3    H150261   3.285   0.836   0.915 -0.9021  1.6002  0.0817
 9590TIP3    H250262   3.381   0.897   1.016  1.7547 -1.9878 -0.1693
 9591TIP3   OH250263   0.467   1.211   0.987  0.0327  0.2550  0.3675
 9591TIP3    H150264   0.541   1.265   1.016 -0.5819  0.8321  0.8785
 9591TIP3    H250265   0.502   1.160   0.914  0.7416  1.0296  0.1523
 9592TIP3   OH250266   2.576   6.675   2.217  0.0289 -0.3707  0.0642
 9592TIP3    H150267   2.580   6.765   2.249  0.0751 -1.4750  3.3656
 9592TIP3    H250268   2.656   6.665   2.165 -1.2777  2.2301 -2.5771
 9593TIP3   OH250269   5.012   5.133   1.179 -0.0498  0.2389 -0.3581
 9593TIP3    H150270   5.014   5.132   1.275 -0.2223  1.8394 -0.3211
 9593TIP3    H250271   4.923   5.106   1.157  0.3220 -1.2612 -0.1186
 9594TIP3   OH250272   3.821   1.442   6.246 -0.5774 -0.0867  0.3685
 9594TIP3    H150273   3.772   1.465   6.324 -0.4257  0.1191  0.4030
 9594TIP3    H250274   3.889   1.381   6.277 -0.8168 -0.3837  0.3188
 9595TIP3   OH250275   1.778   2.392  14.721 -0.2743  0.7923 -0.0281
 9595TIP3    H150276   1.763   2.339  14.799 -0.2539 -0.8034 -1.0863
 9595TIP3    H250277   1.810   2.476  14.754 -1.1388  0.4493  1.7134
 9596TIP3   OH250278   0.604   2.981   1.435 -0.4786 -0.4671 -0.1524
 9596TIP3    H150279   0.668   3.022   1.492 -0.9295  1.3347 -0.8869
 9596TIP3    H250280   0.519   3.002   1.476 -0.7977  0.7812 -1.4136
 9597TIP3   OH250281   3.896   3.413  11.450  0.4372 -0.1613 -0.2676
 9597TIP3    H150282   3.964   3.402  11.517  2.0505  2.9454 -1.3229
 9597TIP3    H250283   3.836   3.478  11.487 -0.5495 -0.9578 -0.4453
 9598TIP3   OH250284   1.428   6.741  15.890 -0.4450  0.1950  0.5906
 9598TIP3    H150285   1.380   6.699  15.962 -1.7426  0.1874 -0.2493
 9598TIP3    H250286   1.377   6.719  15.812  0.9279  0.2247 -0.3313
 9599TIP3   OH250287   5.534   0.966  16.325 -0.2643 -0.0257 -0.2986
 9599TIP3    H150288   5.572   1.053  16.337 -0.0787 -0.0698 -0.5603
 9599TIP3    H250289   5.594   0.922  16.265 -0.4514 -0.2755 -0.3012
 9600TIP3   OH250290   4.315   2.178  16.020  0.0887  0.8572  0.3792
 9600TIP3    H150291   4.398   2.131  16.006 -0.9456 -1.1618  0.7645
 9600TIP3    H250292   4.256   2.141  15.954 -1.0489  0.8711  1.3682
 9601TIP3   OH250293   1.291   3.267  15.014 -0.1025 -0.5212  0.3334
 9601TIP3    H150294   1.292   3.360  14.991  0.2583 -0.7610 -0.6431
 9601TIP3    H250295   1.352   3.260  15.087 -0.2908  0.0431  0.5512
 9602TIP3   OH250296   0.534   2.999  16.637 -0.0330  1.0940 -0.0761
 9602TIP3    H150297   0.595   3.004  16.563 -0.7186 -3.8428 -1.1631
 9602TIP3    H250298   0.450   3.025  16.601 -0.5828 -2.2968 -1.4629
 9603TIP3   OH250299   1.985   6.604  13.936 -0.0034  0.0955  0.8542
 9603TIP3    H150300   1.903   6.573  13.897 -0.3118  1.8477  0.1028
 9603TIP3    H250301   2.015   6.529  13.988 -1.5364 -0.9362  0.3148
 9604TIP3   OH250302   6.249   0.380   1.479  0.3745  0.3641  0.1434
 9604TIP3    H150303   6.174   0.439   1.483  0.2882  0.3461 -0.9740
 9604TIP3    H250304   6.299   0.399   1.558 -1.1671 -0.1109  1.2436
 9605TIP3   OH250305   1.748   5.182  14.082 -0.1504 -0.3973 -0.6033
 9605TIP3    H150306   1.675   5.177  14.021 -0.4013 -0.2769 -0.3109
 9605TIP3    H250307   1.824   5.202  14.026 -0.6226  1.1587 -0.6925
 9606TIP3   OH250308   5.277   2.413   4.551  0.2787  0.2570  0.4161
 9606TIP3    H150309   5.324   2.378   4.476  1.2788  1.0168  0.6675
 9606TIP3    H250310   5.293   2.508   4.547 -0.1933  0.3765  1.2201
 9607TIP3   OH250311   5.033   0.804  15.481 -0.2126  0.5088 -0.0778
 9607TIP3    H150312   5.050   0.863  15.408  2.7350 -1.4567 -1.0939
 9607TIP3    H250313   5.064   0.719  15.450  1.6632 -0.2706  3.6561
 9608TIP3   OH250314   6.694   1.384   2.039 -0.3104  0.0359  0.1987
 9608TIP3    H150315   6.731   1.421   1.959  0.6613  1.1183  1.1356
 9608TIP3    H250316   6.733   1.296   2.045  1.0478  0.6462  0.4521
 9609TIP3   OH250317   2.522   1.837   2.679  0.2800 -0.2804  0.3662
 9609TIP3    H150318   2.522   1.925   2.717 -0.3975  0.5333 -1.4709
 9609TIP3    H250319   2.610   1.827   2.642  0.5808 -0.6519  1.1671
 9610TIP3   OH250320   1.046   0.197   0.556  0.2182  0.1307  0.8548
 9610TIP3    H150321   0.965   0.147   0.567 -0.9524  1.7887  0.0774
 9610TIP3    H250322   1.043   0.227   0.465  0.6242  2.0638  1.4562
 9611TIP3   OH250323   4.900   3.076   3.475 -0.4862  0.1694 -0.4717
 9611TIP3    H150324   4.913   3.114   3.388 -1.9510  0.4240 -0.5863
 9611TIP3    H250325   4.805   3.077   3.488 -0.2803  0.1147  1.1235
 9612TIP3   OH250326   4.441   5.335  14.145  0.2097 -0.2360 -0.5166
 9612TIP3    H150327   4.402   5.414  14.180 -0.7667 -1.2107  0.6350
 9612TIP3    H250328   4.526   5.363  14.112 -0.1969  1.3163 -0.2941
 9613TIP3   OH250329   1.986   2.469  12.673 -0.4757 -0.5335  0.7636
 9613TIP3    H150330   1.982   2.521  12.753 -0.7775  1.3727 -0.4610
 9613TIP3    H250331   1.930   2.515  12.611 -0.2925 -2.0073 -0.5325
 9614TIP3   OH250332   2.086   0.916   6.425 -0.6026 -0.1477  0.3029
 9614TIP3    H150333   2.139   0.980   6.472 -0.0574 -0.3203 -0.0787
 9614TIP3    H250334   2.149   0.853   6.391 -1.0953 -0.6364  0.2834
 9615TIP3   OH250335   0.833   3.984   4.192 -0.0479  0.7410 -0.1984
 9615TIP3    H150336   0.840   3.931   4.113  0.3423 -1.0409  0.9915
 9615TIP3    H250337   0.744   4.017   4.191  0.2833  1.6040 -1.9161
 9616TIP3   OH250338   3.556   4.205   3.209 -0.3266 -0.4067 -0.1404
 9616TIP3    H150339   3.551   4.290   3.166 -2.9264 -0.3171  0.2408
 9616TIP3    H250340   3.532   4.142   3.140 -2.5761 -0.4289  0.6189
 9617TIP3   OH250341   1.642   0.372   3.999 -0.4081  0.4939 -0.1508
 9617TIP3    H150342   1.642   0.412   4.086 -0.3401  2.4110 -1.0094
 9617TIP3    H250343   1.553   0.387   3.966  0.0213  1.1674 -1.0193
 9618TIP3   OH250344   6.130   3.591   0.664  0.0179 -0.8469  0.1902
 9618TIP3    H150345   6.105   3.683   0.657 -1.1378 -1.3382 -2.5577
 9618TIP3    H250346   6.226   3.593   0.672  0.1078  0.5392 -1.0518
 9619TIP3   OH250347   4.280   0.407  14.819 -0.8071  0.2725  0.5598
 9619TIP3    H150348   4.375   0.407  14.809 -0.8283  2.7771  0.1779
 9619TIP3    H250349   4.265   0.376  14.908  0.3006 -1.0717  0.3058
 9620TIP3   OH250350   2.302   1.144   0.085 -0.5034 -0.1263 -0.3456
 9620TIP3    H150351   2.232   1.152   0.020 -0.3104  0.9257 -0.4434
 9620TIP3    H250352   2.379   1.119   0.034 -0.5720 -0.2403 -0.3925
 9621TIP3   OH250353   2.539   6.594  10.054 -0.1386  0.4368  0.1047
 9621TIP3    H150354   2.570   6.514  10.097 -0.8879 -0.3033 -0.6775
 9621TIP3    H250355   2.462   6.620  10.104  1.8455  2.4212  2.2030
 9622TIP3   OH250356   1.278   4.827   1.800 -0.2912 -0.1977 -0.4012
 9622TIP3    H150357   1.194   4.818   1.755 -1.2445  2.5325  0.7036
 9622TIP3    H250358   1.290   4.922   1.809  2.5380 -0.5744  0.1709
 9623TIP3   OH250359   1.115   5.348  16.967  0.4095  0.8436  0.2594
 9623TIP3    H150360   1.066   5.342  17.049 -0.3738 -0.1371 -0.2688
 9623TIP3    H250361   1.058   5.397  16.909  0.5462  0.6887 -0.0072
 9624TIP3   OH250362   0.810   0.416  12.596  0.2734 -0.4254 -0.9510
 9624TIP3    H150363   0.733   0.396  12.543 -1.6157 -0.9942  1.8507
 9624TIP3    H250364   0.858   0.334  12.601  0.1620 -0.5131 -1.3464
 9625TIP3   OH250365   4.271   0.616  11.722 -0.7691 -0.3483  0.6234
 9625TIP3    H150366   4.248   0.650  11.809  0.1841  2.3321 -0.1216
 9625TIP3    H250367   4.360   0.648  11.707 -0.6306 -1.4609 -1.0338
 9626TIP3   OH250368   1.099   5.606  11.912 -0.4928  0.2894 -0.1404
 9626TIP3    H150369   1.048   5.676  11.871 -1.6275  0.8437  2.1371
 9626TIP3    H250370   1.178   5.649  11.944 -0.0027  0.0188 -0.9653
 9627TIP3   OH250371   6.724   1.624   0.092  0.0539 -0.1274  0.1034
 9627TIP3    H150372   6.639   1.613   0.048  0.1441 -0.2218 -0.0497
 9627TIP3    H250373   6.779   1.665   0.025 -0.5695  2.2386  0.9839
 9628TIP3   OH250374   1.433   4.595  12.107 -0.5329  0.1136 -0.3585
 9628TIP3    H150375   1.462   4.684  12.129  1.4009 -0.3290 -1.0088
 9628TIP3    H250376   1.408   4.600  12.015 -0.4495 -0.0237 -0.3874
 9629TIP3   OH250377   6.507   0.465   3.268 -0.3876  0.0322 -0.1596
 9629TIP3    H150378   6.559   0.496   3.193 -0.4631  1.5129  0.3808
 9629TIP3    H250379   6.420   0.501   3.253 -0.0836  1.4477  1.2791
 9630TIP3   OH250380   0.819   6.629  14.512 -0.3611 -0.0615 -0.1697
 9630TIP3    H150381   0.742   6.641  14.568 -1.8754  0.0948 -2.2347
 9630TIP3    H250382   0.844   6.717  14.486  2.2413  0.1361  2.6491
 9631TIP3   OH250383   6.510   5.298  16.299 -0.0067 -0.9901 -0.1547
 9631TIP3    H150384   6.603   5.276  16.298  0.1835 -0.2087 -0.3954
 9631TIP3    H250385   6.506   5.388  16.266 -0.7857 -0.7966  0.4392
 9632TIP3   OH250386   3.283   6.244  11.179 -0.2060 -0.5103  0.1772
 9632TIP3    H150387   3.235   6.322  11.152 -0.1886 -0.4905  0.2036
 9632TIP3    H250388   3.324   6.212  11.099 -1.4018 -1.3278 -0.1388
 9633TIP3   OH250389   4.760   4.326   0.590  0.3876  0.6020 -0.1167
 9633TIP3    H150390   4.739   4.388   0.520 -0.9966  2.6946  2.0882
 9633TIP3    H250391   4.678   4.314   0.637  1.1481 -1.2871  0.7887
 9634TIP3   OH250392   2.465   3.820   2.350  0.4807 -0.4540  0.2398
 9634TIP3    H150393   2.414   3.897   2.378  1.9769  0.2142  1.1751
 9634TIP3    H250394   2.482   3.835   2.257 -1.1651 -0.7691 -0.1288
 9635TIP3   OH250395   5.695   0.057   2.647 -0.7521 -0.0119  0.0831
 9635TIP3    H150396   5.609   0.075   2.610 -0.6058  0.7579  0.1097
 9635TIP3    H250397   5.682   0.057   2.741 -0.1170  3.4469  0.2352
 9636TIP3   OH250398   3.918   2.755   2.167  1.0572  0.2167 -0.0799
 9636TIP3    H150399   3.898   2.826   2.227  1.7098  1.2785 -1.0911
 9636TIP3    H250400   3.843   2.752   2.107  0.0865 -1.2830  1.1585
 9637TIP3   OH250401   5.964   5.316  12.392  0.2945  0.3247  0.0303
 9637TIP3    H150402   5.944   5.251  12.325  0.8695  0.1773  0.0023
 9637TIP3    H250403   6.005   5.267  12.463 -1.3064  0.3023  0.9731
 9638TIP3   OH250404   6.658   5.572   1.530  0.4118  0.0144  0.1501
 9638TIP3    H150405   6.692   5.545   1.615 -0.2591  1.6770  0.9782
 9638TIP3    H250406   6.600   5.646   1.550  1.2494  1.2554 -1.8875
 9639TIP3   OH250407   1.242   2.081   0.403  0.6375 -0.1288  0.0333
 9639TIP3    H150408   1.192   2.036   0.334  0.8245  1.7224 -1.3665
 9639TIP3    H250409   1.296   2.145   0.355  1.7491  0.2921  1.8067
 9640TIP3   OH250410   2.557   6.118  11.943 -0.0415 -0.5932  0.7423
 9640TIP3    H150411   2.550   6.026  11.916 -1.1380 -0.5145  0.7073
 9640TIP3    H250412   2.649   6.130  11.964  0.7426 -0.8043 -2.4380
 9641TIP3   OH250413   5.163   4.515   3.419 -0.0184 -0.4841  0.3123
 9641TIP3    H150414   5.147   4.520   3.324 -1.8833 -0.8643  0.5815
 9641TIP3    H250415   5.258   4.503   3.427  0.6290  2.9045 -1.3942
 9642TIP3   OH250416   4.900   4.004   5.280  0.2074 -0.1329  0.0923
 9642TIP3    H150417   4.872   4.068   5.345  2.2297  2.5140 -1.5794
 9642TIP3    H250418   4.923   3.926   5.332  2.4911  2.1499  2.6095
 9643TIP3   OH250419   3.268   3.347   5.017 -0.1902 -0.5428  0.2748
 9643TIP3    H150420   3.212   3.407   4.967 -1.0639  0.0300  1.8863
 9643TIP3    H250421   3.348   3.340   4.966 -1.3388 -0.5547 -1.5639
 9644TIP3   OH250422   1.046   1.577  13.839  0.1687  0.0848  0.8368
 9644TIP3    H150423   1.124   1.550  13.887 -0.1426 -1.7873  0.3230
 9644TIP3    H250424   0.973   1.544  13.892 -0.2367  0.4188  0.4857
 9645TIP3   OH250425   0.752   6.457  14.238  0.5244  0.5716 -0.3318
 9645TIP3    H150426   0.690   6.528  14.220  0.6391  0.3081 -1.9005
 9645TIP3    H250427   0.724   6.387  14.179  0.0351 -0.9244  1.6516
 9646TIP3   OH250428   5.387   5.634  11.456  0.8241  0.0307  0.1045
 9646TIP3    H150429   5.409   5.682  11.535  1.2590 -0.1978  0.1228
 9646TIP3    H250430   5.297   5.604  11.471  0.4539  1.0504 -0.0162
 9647TIP3   OH250431   6.424   1.100  15.298  0.2361 -0.0849 -0.2681
 9647TIP3    H150432   6.424   1.160  15.373  2.4605 -2.4254  1.6977
 9647TIP3    H250433   6.353   1.132  15.242 -0.6141  2.5285  2.1572
 9648TIP3   OH250434   3.072   4.805   2.691  0.0578  0.0118 -0.0223
 9648TIP3    H150435   2.979   4.787   2.676  0.1185 -1.1414  0.8897
 9648TIP3    H250436   3.112   4.718   2.695  1.2483  0.5205 -0.8328
 9649TIP3   OH250437   5.670   4.022   2.706  0.1374 -0.4439 -0.1342
 9649TIP3    H150438   5.584   4.049   2.740  0.8175  0.7555  0.6663
 9649TIP3    H250439   5.730   4.038   2.779  0.9416 -1.9289 -0.4597
 9650TIP3   OH250440   1.483   4.666   0.548 -0.0743 -0.4491  0.4507
 9650TIP3    H150441   1.551   4.606   0.578  1.3254  0.6982 -0.3968
 9650TIP3    H250442   1.446   4.703   0.629  1.4450  0.1553  0.8829
 9651TIP3   OH250443   3.430   0.615  14.036 -0.2669 -0.1581 -0.2612
 9651TIP3    H150444   3.486   0.572  14.100 -0.5693 -2.0431 -1.2360
 9651TIP3    H250445   3.486   0.629  13.959  0.0798  2.0378  0.3529
 9652TIP3   OH250446   5.722   1.855  15.733  0.4433 -0.2722  0.2424
 9652TIP3    H150447   5.804   1.807  15.719 -0.2677 -1.2967 -0.4508
 9652TIP3    H250448   5.731   1.935  15.681 -0.1077 -1.6763 -2.0778
 9653TIP3   OH250449   1.580   1.575   2.637 -0.1563 -0.0768  0.1019
 9653TIP3    H150450   1.556   1.640   2.702  3.7177  1.0305  0.5643
 9653TIP3    H250451   1.578   1.491   2.684  0.0109  0.3873  0.9402
 9654TIP3   OH250452   2.563   3.391  16.931 -0.0014  0.0130 -0.1388
 9654TIP3    H150453   2.651   3.419  16.955 -0.2837 -0.3391  1.3644
 9654TIP3    H250454   2.576   3.310  16.882  0.3312 -2.0884  3.3035
 9655TIP3   OH250455   1.292   6.809  12.542  0.0518  0.4917  0.1759
 9655TIP3    H150456   1.200   6.827  12.525  0.4140  0.1770 -2.2900
 9655TIP3    H250457   1.301   6.715  12.532  0.8913  0.6774 -0.8970
 9656TIP3   OH250458   3.165   0.779   5.502 -0.5459  0.2142 -0.2351
 9656TIP3    H150459   3.126   0.808   5.420  0.9971  0.7102 -0.8242
 9656TIP3    H250460   3.188   0.861   5.548 -0.1828 -0.0636  0.0830
 9657TIP3   OH250461   3.605   0.433   4.563  0.4347 -0.5777 -0.0989
 9657TIP3    H150462   3.511   0.420   4.551  0.3734 -0.3139  0.0944
 9657TIP3    H250463   3.618   0.527   4.549  0.4627 -0.3765  1.2602
 9658TIP3   OH250464   4.037   3.934  16.951 -0.3234  0.1453 -0.2528
 9658TIP3    H150465   4.071   3.911  17.037  0.3527  2.0683  0.0089
 9658TIP3    H250466   3.941   3.934  16.962 -0.2100  1.5988  0.8294
 9659TIP3   OH250467   2.410   3.649  14.951  0.5435 -0.2641  0.3864
 9659TIP3    H150468   2.490   3.608  14.919  0.7017  0.2021  0.1816
 9659TIP3    H250469   2.413   3.738  14.916 -1.1753 -0.9351 -1.5189
 9660TIP3   OH250470   0.382   0.636  11.883 -0.5854 -0.1512 -0.5912
 9660TIP3    H150471   0.330   0.564  11.848  0.3090 -0.7214 -0.7574
 9660TIP3    H250472   0.378   0.625  11.978 -3.2527  1.5618 -0.4221
 9661TIP3   OH250473   2.337   2.063  15.716 -0.0014  0.1930 -0.1201
 9661TIP3    H150474   2.430   2.059  15.741 -0.5838 -0.7547  1.9855
 9661TIP3    H250475   2.291   2.080  15.798 -1.8449 -1.1000 -0.8582
 9662TIP3   OH250476   1.208   4.043   4.334 -0.1398 -0.0069 -0.0112
 9662TIP3    H150477   1.194   4.131   4.300  2.1229  0.2012 -0.4581
 9662TIP3    H250478   1.272   4.004   4.276  0.9612 -0.9722  1.7959
 9663TIP3   OH250479   5.324   6.460  13.807  0.5302 -0.0818 -0.0530
 9663TIP3    H150480   5.282   6.486  13.889 -0.2610  0.7124 -0.7105
 9663TIP3    H250481   5.252   6.442  13.747  1.1274  0.7961 -1.0455
 9664TIP3   OH250482   0.230   4.115   3.089 -0.0129 -0.3837 -0.1809
 9664TIP3    H150483   0.144   4.153   3.108 -0.1433 -1.4237  1.4324
 9664TIP3    H250484   0.213   4.022   3.079  0.6744 -0.3634 -1.6274
 9665TIP3   OH250485   1.542   6.303  15.630  0.5022  0.0981  0.0633
 9665TIP3    H150486   1.633   6.330  15.645 -0.1524  2.5398 -0.1319
 9665TIP3    H250487   1.549   6.229  15.571  2.4596 -0.9921  1.5735
 9666TIP3   OH250488   5.325   4.449   4.684 -0.2774 -0.0860  0.0251
 9666TIP3    H150489   5.374   4.517   4.639  1.1421 -1.1157 -0.0122
 9666TIP3    H250490   5.235   4.481   4.686  0.2877  1.5607 -0.4166
 9667TIP3   OH250491   5.182   1.643   3.542 -0.0933  0.6108 -0.3359
 9667TIP3    H150492   5.229   1.667   3.622  0.9155  0.1065 -0.7594
 9667TIP3    H250493   5.241   1.670   3.471  0.3413 -1.5801 -0.8591
 9668TIP3   OH250494   4.820   2.159   5.474  0.9693 -0.3381 -0.0345
 9668TIP3    H150495   4.770   2.233   5.508  0.0557 -0.7322 -0.4839
 9668TIP3    H250496   4.803   2.088   5.536  0.4871 -0.6404 -0.5091
 9669TIP3   OH250497   2.847   4.778   3.627  0.0345  0.2935  0.5549
 9669TIP3    H150498   2.835   4.777   3.532 -0.8748 -0.2478  0.6691
 9669TIP3    H250499   2.761   4.755   3.662  0.1405  1.3459  1.5318
 9670TIP3   OH250500   4.571   4.088  16.357  0.6730 -0.4134  0.2360
 9670TIP3    H150501   4.622   4.162  16.392  0.0852  0.2925 -0.3835
 9670TIP3    H250502   4.637   4.028  16.322  1.1889 -0.4790  1.3169
 9671TIP3   OH250503   3.344   2.920  14.591  0.0674 -0.2500  0.5004
 9671TIP3    H150504   3.431   2.957  14.607  0.2961 -0.2563 -0.6891
 9671TIP3    H250505   3.288   2.962  14.656  1.0279 -0.5305  1.5255
 9672TIP3   OH250506   4.066   3.263   2.163 -0.1174  0.1213 -0.0538
 9672TIP3    H150507   4.069   3.287   2.070 -0.6205 -0.5509 -0.2429
 9672TIP3    H250508   3.997   3.318   2.200  0.2691  0.5856 -0.0178
 9673TIP3   OH250509   6.557   3.242  14.109 -0.6990  0.4498 -0.7559
 9673TIP3    H150510   6.504   3.233  14.188  1.1421 -1.0087  0.3477
 9673TIP3    H250511   6.579   3.152  14.085 -0.3909  0.9422 -2.3447
 9674TIP3   OH250512   4.175   3.989  13.516  0.5167 -0.2440  0.3758
 9674TIP3    H150513   4.267   3.960  13.517  0.4334 -0.5372 -0.3148
 9674TIP3    H250514   4.179   4.082  13.497  0.5967 -0.5666 -1.2284
 9675TIP3   OH250515   1.491   5.943   3.315  0.1755  0.1995  0.0300
 9675TIP3    H150516   1.426   5.933   3.385 -1.6083 -0.6215 -1.6928
 9675TIP3    H250517   1.466   5.877   3.250 -0.3192  3.1816 -2.9564
 9676TIP3   OH250518   1.890   5.137  13.152 -0.5199 -0.1227 -0.0811
 9676TIP3    H150519   1.895   5.182  13.236  0.2305 -0.5412  0.1061
 9676TIP3    H250520   1.935   5.194  13.090 -1.3447  0.3322 -0.2683
 9677TIP3   OH250521   1.177   3.997  11.541 -0.0283  0.2986 -0.8650
 9677TIP3    H150522   1.211   4.069  11.595  0.9181  0.9655 -2.3377
 9677TIP3    H250523   1.148   4.038  11.460  0.4595 -0.9573 -1.6996
 9678TIP3   OH250524   3.493   3.585   5.297 -0.1446  0.3663  0.2353
 9678TIP3    H150525   3.512   3.637   5.219  2.1871  1.8264  1.7315
 9678TIP3    H250526   3.507   3.645   5.370 -1.4237 -1.2307  1.8337
 9679TIP3   OH250527   5.456   4.200  13.770 -0.0405 -0.8537 -0.2371
 9679TIP3    H150528   5.441   4.287  13.734 -0.2823 -0.1494  1.5289
 9679TIP3    H250529   5.551   4.189  13.768 -0.0776 -1.1608 -1.7856
 9680TIP3   OH250530   2.603   2.535  15.323  0.2210 -0.8739  0.7675
 9680TIP3    H150531   2.611   2.549  15.418 -1.9296 -0.7656  0.9635
 9680TIP3    H250532   2.571   2.619  15.290  0.9417 -0.9231 -0.0625
 9681TIP3   OH250533   5.047   2.250   2.611  0.2663  0.0697 -0.5752
 9681TIP3    H150534   5.134   2.247   2.652  1.0296 -1.9695 -2.2106
 9681TIP3    H250535   5.062   2.294   2.527 -0.2095 -0.5594 -0.9909
 9682TIP3   OH250536   0.516   2.081  16.319  0.6640  0.2438  0.0987
 9682TIP3    H150537   0.556   2.083  16.406  3.3042 -0.2157 -1.0741
 9682TIP3    H250538   0.578   2.127  16.263 -0.4446 -0.4901 -1.7718
 9683TIP3   OH250539   0.409   2.013   1.550  0.1755  0.5426 -0.6950
 9683TIP3    H150540   0.455   1.932   1.569 -0.1803  0.6574  0.7380
 9683TIP3    H250541   0.316   1.991   1.557  0.0850  1.3027  0.8190
 9684TIP3   OH250542   4.052   5.349   5.856  0.5594 -0.5244  0.7388
 9684TIP3    H150543   3.986   5.334   5.788  1.4747  1.8770 -0.7295
 9684TIP3    H250544   4.004   5.389   5.928  0.4207  1.4826 -0.4387
 9685TIP3   OH250545   1.923   4.567   5.583 -0.3843  0.6618 -0.6178
 9685TIP3    H150546   1.924   4.646   5.528  0.0935  2.2417  1.5909
 9685TIP3    H250547   2.012   4.560   5.615 -0.9595  0.5185  0.9772
 9686TIP3   OH250548   2.102   2.900   4.651  0.0318 -0.6103 -0.2462
 9686TIP3    H150549   2.190   2.872   4.676 -0.3770 -0.7534  1.0375
 9686TIP3    H250550   2.043   2.847   4.704 -0.8098  0.5611  0.0183
 9687TIP3   OH250551   3.777   5.468  11.876 -0.1299  0.2260 -0.3326
 9687TIP3    H150552   3.820   5.521  11.943 -0.2302 -1.6090  1.2280
 9687TIP3    H250553   3.841   5.401  11.853 -0.1240  0.7862 -2.0551
 9688TIP3   OH250554   4.812   5.240   3.050 -0.1077 -0.1987  0.3777
 9688TIP3    H150555   4.900   5.270   3.028 -0.2582  0.0757  0.1457
 9688TIP3    H250556   4.823   5.147   3.069  0.6402  0.3520  2.7826
 9689TIP3   OH250557   1.595   6.240  11.469 -0.0812 -0.0538 -0.0117
 9689TIP3    H150558   1.516   6.201  11.506 -0.0963 -1.5161 -1.5358
 9689TIP3    H250559   1.665   6.214  11.529 -0.5063 -0.0730  0.4828
 9690TIP3   OH250560   3.963   2.465   2.139 -0.5488 -0.0070  0.5907
 9690TIP3    H150561   3.887   2.464   2.196 -1.3879 -1.9444 -0.5041
 9690TIP3    H250562   3.980   2.558   2.123 -1.6847  0.4854  2.1319
 9691TIP3   OH250563   5.391   6.311   2.659 -0.3515  0.3556 -0.4371
 9691TIP3    H150564   5.406   6.405   2.645  0.1915  0.3331  0.0006
 9691TIP3    H250565   5.477   6.271   2.647 -0.3353  0.0563  0.6517
 9692TIP3   OH250566   2.341   4.599  15.694  0.5049 -0.0465  0.0658
 9692TIP3    H150567   2.357   4.505  15.707  0.4633 -0.1165 -0.3789
 9692TIP3    H250568   2.263   4.602  15.638  0.5303  0.2522  0.0475
 9693TIP3   OH250569   6.006   2.897   2.796 -0.1879 -0.6761  0.1663
 9693TIP3    H150570   5.991   2.871   2.705 -3.0703  0.1839  0.3321
 9693TIP3    H250571   5.924   2.939   2.822 -0.2929 -2.9607  3.8907
 9694TIP3   OH250572   1.209   1.621   5.153 -0.0680 -0.4795 -0.2628
 9694TIP3    H150573   1.259   1.551   5.112  0.6561 -0.3858  0.4411
 9694TIP3    H250574   1.265   1.651   5.225 -1.0476 -0.2281  0.4004
 9695TIP3   OH250575   4.106   4.989  14.353 -0.0070  0.6048  0.5030
 9695TIP3    H150576   4.030   5.002  14.296  0.3066 -0.1309 -0.1035
 9695TIP3    H250577   4.157   5.069  14.343 -0.9729  1.3438  1.3558
 9696TIP3   OH250578   4.719   0.002   1.729 -0.3467  0.7486 -0.0481
 9696TIP3    H150579   4.811   0.028   1.737  0.4003 -1.4639 -0.8986
 9696TIP3    H250580   4.718  -0.056   1.653 -2.0074 -1.1934  1.4094
 9697TIP3   OH250581   4.100   6.681  11.868 -0.0857  0.7365 -0.9115
 9697TIP3    H150582   4.157   6.622  11.917 -1.4074  1.6967  1.8959
 9697TIP3    H250583   4.040   6.623  11.820  0.9334 -0.2225 -1.0298
 9698TIP3   OH250584   2.406   0.042  15.658 -0.1307  0.7969 -0.0139
 9698TIP3    H150585   2.416   0.053  15.753  0.8540 -0.5371  0.0499
 9698TIP3    H250586   2.487   0.078  15.621 -0.4369  1.1547 -0.3354
 9699TIP3   OH250587   4.949   2.335  16.165  0.2492  0.5415  0.0715
 9699TIP3    H150588   5.045   2.326  16.172  0.1125 -0.9939  0.2239
 9699TIP3    H250589   4.936   2.382  16.083  1.0773 -1.1456 -1.0600
 9700TIP3   OH250590   1.633   2.105   3.791  0.4817 -0.3409  0.2207
 9700TIP3    H150591   1.646   2.040   3.722 -2.1256  0.3933 -1.0183
 9700TIP3    H250592   1.568   2.066   3.850 -0.9810  1.0368 -0.4434
 9701TIP3   OH250593   3.688   5.304  10.897  0.0030  0.3278 -0.1357
 9701TIP3    H150594   3.603   5.262  10.897  0.5193 -0.7370  0.2047
 9701TIP3    H250595   3.670   5.395  10.873 -1.5893  0.8824  2.9662
 9702TIP3   OH250596   3.584   5.455   5.807  0.5664  0.2416  0.1748
 9702TIP3    H150597   3.566   5.386   5.871  0.7968  0.0550  0.0392
 9702TIP3    H250598   3.503   5.461   5.755  0.3015  0.5466  0.6281
 9703TIP3   OH250599   3.623   3.965   2.550  0.5744  0.7584  0.1427
 9703TIP3    H150600   3.708   3.926   2.568 -0.1339 -0.4235  0.9789
 9703TIP3    H250601   3.617   4.039   2.611  0.8641  0.6518  0.3006
 9704TIP3   OH250602   0.025   0.844  16.298  0.0790 -0.0936 -0.0568
 9704TIP3    H150603   0.060   0.923  16.255  1.4144 -0.9462 -0.5580
 9704TIP3    H250604   0.037   0.860  16.391  2.5385 -0.6830 -0.2405
 9705TIP3   OH250605   6.686   4.917   4.018 -0.1842  0.0327 -0.7345
 9705TIP3    H150606   6.625   4.981   4.054 -1.0570 -0.7065 -0.8695
 9705TIP3    H250607   6.631   4.841   3.997  0.9189 -1.0108  0.0466
 9706TIP3   OH250608   1.930   6.106   0.699 -0.6129 -0.3145 -0.0448
 9706TIP3    H150609   1.840   6.088   0.673 -1.1116  0.2040  1.2623
 9706TIP3    H250610   1.934   6.081   0.792  1.0984 -2.1136 -0.5680
 9707TIP3   OH250611   0.207   1.126  15.812 -0.2764  0.0088  0.3917
 9707TIP3    H150612   0.116   1.126  15.782 -0.9716 -3.1203  2.3303
 9707TIP3    H250613   0.258   1.104  15.734 -1.4914 -1.6510  0.0503
 9708TIP3   OH250614   3.687   1.628  11.826  0.8306  0.5999  0.0546
 9708TIP3    H150615   3.718   1.719  11.826  0.3642  0.7616  1.3054
 9708TIP3    H250616   3.649   1.616  11.739 -0.6429  2.1233  0.4624
 9709TIP3   OH250617   6.033   3.005  10.864  0.0497  0.1278  0.8486
 9709TIP3    H150618   6.048   2.926  10.811 -1.9836 -0.5313  1.1967
 9709TIP3    H250619   6.076   3.075  10.816  2.5684 -1.3253  0.9277
 9710TIP3   OH250620   1.116   6.032   4.905 -0.1226 -0.3363  0.0764
 9710TIP3    H150621   1.205   6.001   4.887  0.6373  2.0340 -0.4065
 9710TIP3    H250622   1.124   6.127   4.910 -2.7020 -0.0604 -0.2954
 9711TIP3   OH250623   1.784   6.701  14.146  0.6064 -0.2735 -0.2763
 9711TIP3    H150624   1.852   6.681  14.211  1.5611 -1.9193 -1.7221
 9711TIP3    H250625   1.773   6.796  14.151  2.6937 -0.0397  0.3074
 9712TIP3   OH250626   5.592   1.418   3.932 -0.5479 -0.5885  0.0104
 9712TIP3    H150627   5.615   1.327   3.913  0.8635  0.0812 -1.6168
 9712TIP3    H250628   5.538   1.445   3.857 -0.8945 -0.0630  0.4491
 9713TIP3   OH250629   1.479   2.380   2.568 -0.2624 -0.3534  0.1119
 9713TIP3    H150630   1.560   2.341   2.536 -0.3053 -0.0352 -0.4052
 9713TIP3    H250631   1.489   2.385   2.663  0.8934  0.9514 -0.0603
 9714TIP3   OH250632   5.758   5.138   3.508 -0.1084 -0.0297 -0.3060
 9714TIP3    H150633   5.699   5.063   3.505  1.6050 -1.3890 -3.6998
 9714TIP3    H250634   5.834   5.107   3.557  0.4710 -0.4708 -1.4515
 9715TIP3   OH250635   2.622   3.763  16.432  0.1602 -0.4732  0.0155
 9715TIP3    H150636   2.623   3.824  16.505  0.3485  0.3310 -0.6547
 9715TIP3    H250637   2.560   3.695  16.458 -2.5515  1.6597 -0.5960
 9716TIP3   OH250638   5.785   6.206   1.199  0.1675  0.5786  0.2049
 9716TIP3    H150639   5.704   6.258   1.196 -0.2375  0.0226  1.1379
 9716TIP3    H250640   5.808   6.192   1.108 -0.4348  1.2993 -0.0679
 9717TIP3   OH250641   0.004   6.779   5.588 -0.0165 -0.2349 -0.0899
 9717TIP3    H150642   0.070   6.775   5.518  0.7618 -2.4898  0.7310
 9717TIP3    H250643  -0.073   6.735   5.550 -0.4152  0.6601 -0.3467
 9718TIP3   OH250644   6.161   0.421   3.839 -0.4205  0.6067  0.8036
 9718TIP3    H150645   6.146   0.340   3.888  1.6329 -0.1161  0.3205
 9718TIP3    H250646   6.100   0.417   3.766 -0.5599 -0.3621  0.9629
 9719TIP3   OH250647   5.400   0.667   5.451  0.2674 -0.7504  0.0968
 9719TIP3    H150648   5.375   0.759   5.451  2.6334 -0.0938  0.7528
 9719TIP3    H250649   5.445   0.654   5.368  3.6286 -0.2567  1.7902
 9720TIP3   OH250650   0.572   0.666   5.880 -0.4231 -0.0267  0.2779
 9720TIP3    H150651   0.509   0.703   5.819 -0.5099 -0.5941  0.0164
 9720TIP3    H250652   0.562   0.718   5.960  0.8318  1.7462 -0.7093
 9721TIP3   OH250653   3.284   2.665  17.218 -0.3638  0.3939 -0.2667
 9721TIP3    H150654   3.341   2.703  17.151  0.2766  0.2156  0.1741
 9721TIP3    H250655   3.200   2.709  17.205 -0.6472 -0.6640 -2.0947
 9722TIP3   OH250656   5.774   1.370  14.376 -0.1569 -0.1499  0.1309
 9722TIP3    H150657   5.799   1.406  14.461  2.0196  1.1629 -0.9902
 9722TIP3    H250658   5.720   1.438  14.336  0.5465  0.1336 -0.3502
 9723TIP3   OH250659   6.709   2.504   2.704 -0.8982  0.5998 -0.3166
 9723TIP3    H150660   6.656   2.450   2.646 -0.0008 -1.2208  0.5454
 9723TIP3    H250661   6.741   2.444   2.771  0.5375  2.0984  0.3730
 9724TIP3   OH250662   5.791   3.440  17.061  0.1099 -0.1634 -0.0590
 9724TIP3    H150663   5.724   3.396  17.008  0.3445 -0.3969 -0.1647
 9724TIP3    H250664   5.756   3.439  17.150  0.7911 -1.9652  0.2245
 9725TIP3   OH250665   0.005   2.514  13.755  0.1004  0.0960 -0.2637
 9725TIP3    H150666  -0.069   2.457  13.773  0.5520  0.4529  3.0270
 9725TIP3    H250667  -0.035   2.595  13.723 -0.9226  0.0285  0.7792
 9726TIP3   OH250668   2.962   0.521   2.641  0.0989 -0.0964  0.4810
 9726TIP3    H150669   2.987   0.554   2.727 -1.8628 -0.2895  1.1666
 9726TIP3    H250670   2.949   0.427   2.654  1.5136 -0.4307 -0.4500
 9727TIP3   OH250671   3.031   0.769  16.893 -0.2830  0.1774 -0.2405
 9727TIP3    H150672   3.053   0.809  16.977  0.4778  0.4718 -0.5677
 9727TIP3    H250673   3.101   0.706  16.878  0.9362  1.8267 -1.7683
 9728TIP3   OH250674   4.551   5.581   3.367 -0.3725  0.1206  0.4683
 9728TIP3    H150675   4.577   5.619   3.451 -0.7773  1.3078  0.0655
 9728TIP3    H250676   4.571   5.649   3.303 -0.8004 -0.4796 -0.3058
 9729TIP3   OH250677   0.130   4.710  16.822 -0.1710  0.3652  0.0376
 9729TIP3    H150678   0.052   4.762  16.840  1.1196  2.2398  0.3848
 9729TIP3    H250679   0.173   4.755  16.749  0.9943 -0.1775  0.3677
 9730TIP3   OH250680   2.912   0.402   3.125 -0.0634  0.2654 -0.2470
 9730TIP3    H150681   2.915   0.411   3.220  0.9792  1.8684 -0.4100
 9730TIP3    H250682   2.934   0.310   3.109 -1.9092 -0.4447  1.1176
 9731TIP3   OH250683   1.419   3.296  13.592 -0.1256  0.4285 -0.0514
 9731TIP3    H150684   1.361   3.317  13.666  0.9890  0.8341  0.7264
 9731TIP3    H250685   1.492   3.356  13.602  0.2445  0.1777 -1.2467
 9732TIP3   OH250686   1.394   4.100   4.002  0.1578 -0.0921 -0.2371
 9732TIP3    H150687   1.356   4.176   4.046  2.2982  0.8499  0.0754
 9732TIP3    H250688   1.384   4.118   3.909 -0.4912 -0.0285 -0.1520
 9733TIP3   OH250689   4.810   5.708  16.088 -0.3495 -0.0929  0.5512
 9733TIP3    H150690   4.780   5.698  15.998  0.7906  1.8732 -0.0821
 9733TIP3    H250691   4.729   5.709  16.140 -1.1657  0.9401 -0.6944
 9734TIP3   OH250692   1.736   3.925  10.438 -0.1817 -0.5437  0.6886
 9734TIP3    H150693   1.708   3.976  10.514 -1.8204  0.3586 -0.4881
 9734TIP3    H250694   1.666   3.860  10.426 -0.3245 -0.1778 -0.5132
 9735TIP3   OH250695   2.766   2.299   1.827 -0.0998  0.1158 -0.0484
 9735TIP3    H150696   2.686   2.246   1.823 -0.0093 -0.0524  0.3338
 9735TIP3    H250697   2.803   2.280   1.913  0.0042  0.7030  0.0339
 9736TIP3   OH250698   2.682   3.779  15.179  0.1468 -0.3587 -0.2188
 9736TIP3    H150699   2.672   3.723  15.256  0.2290 -2.1794 -1.4782
 9736TIP3    H250700   2.773   3.810  15.183  0.2138 -0.6147  0.3036
 9737TIP3   OH250701   4.331   1.347  11.694  0.2974  0.5563  0.2480
 9737TIP3    H150702   4.258   1.385  11.646 -0.4844 -1.2087 -0.0214
 9737TIP3    H250703   4.388   1.311  11.626  0.3643  0.1156  0.5326
 9738TIP3   OH250704   3.259   0.990   1.829  0.1408 -0.3076 -0.0416
 9738TIP3    H150705   3.239   0.988   1.735  0.9313 -0.7130 -0.2039
 9738TIP3    H250706   3.323   0.921   1.842  0.2708 -0.0497  0.7485
 9739TIP3   OH250707   5.844   4.973   1.357 -0.4715  0.2959  0.1042
 9739TIP3    H150708   5.794   4.949   1.279  0.5727  1.6996 -0.9993
 9739TIP3    H250709   5.901   4.897   1.373  0.4559  0.6543 -1.4310
 9740TIP3   OH250710   6.611   1.958   1.449  0.1887 -0.6636 -0.1944
 9740TIP3    H150711   6.569   1.899   1.512  0.5402  0.7449  1.3784
 9740TIP3    H250712   6.643   1.899   1.380  1.1250 -2.4239  1.6742
 9741TIP3   OH250713   1.025   2.695   5.785 -0.2014  0.3208  0.4930
 9741TIP3    H150714   1.067   2.610   5.771 -0.7934 -0.9820  5.7993
 9741TIP3    H250715   1.098   2.756   5.796  0.2314  0.0694 -0.8573
 9742TIP3   OH250716   5.479   5.693   2.335  0.3263  0.0952  0.3606
 9742TIP3    H150717   5.413   5.759   2.313  1.8926  0.9296 -2.0479
 9742TIP3    H250718   5.457   5.666   2.424 -1.9071  1.9801  0.4320
 9743TIP3   OH250719   1.991   1.971  11.152 -0.0963  0.6776 -0.0129
 9743TIP3    H150720   2.062   1.983  11.089 -1.5698  2.1468 -1.4233
 9743TIP3    H250721   1.946   1.892  11.121  1.4884 -0.8658  1.4805
 9744TIP3   OH250722   4.868   4.396   0.917 -0.5138 -0.5817  0.0787
 9744TIP3    H150723   4.824   4.429   0.995  0.9336  1.9058 -0.0936
 9744TIP3    H250724   4.798   4.359   0.863 -1.7581 -0.7157  1.7611
 9745TIP3   OH250725   2.752   4.611  15.906  0.3844 -0.5064  0.6931
 9745TIP3    H150726   2.732   4.528  15.863  1.5247  0.0549 -0.9747
 9745TIP3    H250727   2.672   4.663  15.896  0.7429 -0.2586 -1.1055
 9746TIP3   OH250728   1.477   4.711  11.100  0.0811 -0.6307  0.1628
 9746TIP3    H150729   1.504   4.798  11.073  1.1785 -1.0607 -0.1413
 9746TIP3    H250730   1.381   4.717  11.107  0.0357  0.2817 -0.9840
 9747TIP3   OH250731   2.168   4.565  11.564  0.3871 -1.2167  0.1828
 9747TIP3    H150732   2.148   4.598  11.476 -0.4015 -0.7107  0.5399
 9747TIP3    H250733   2.197   4.475  11.550  0.6628 -1.0039 -0.6335
 9748TIP3   OH250734   2.885   5.518   5.967  0.2331 -0.0587 -0.0930
 9748TIP3    H150735   2.906   5.606   5.937  0.9121 -0.0582  0.3866
 9748TIP3    H250736   2.858   5.472   5.888 -2.4978  1.2636  0.0111
 9749TIP3   OH250737   1.545   0.775   2.686 -0.3335 -0.2042  0.0514
 9749TIP3    H150738   1.577   0.695   2.726  1.4213  1.2836  1.7648
 9749TIP3    H250739   1.563   0.764   2.593 -0.5133 -1.9653  0.2137
 9750TIP3   OH250740   4.281   5.748   2.907  0.0852  0.3391 -0.2583
 9750TIP3    H150741   4.194   5.786   2.920 -0.7083 -0.7239 -2.1383
 9750TIP3    H250742   4.332   5.818   2.866  0.2154  1.0607  1.1212
 9751TIP3   OH250743   6.099   2.499  13.134  0.3388  0.4235 -0.5709
 9751TIP3    H150744   6.023   2.539  13.091  0.9210  1.0328 -1.0581
 9751TIP3    H250745   6.163   2.487  13.063  0.7709  0.1032 -0.1338
 9752TIP3   OH250746   4.575   4.546  16.738  0.0683 -0.1985  0.2317
 9752TIP3    H150747   4.483   4.565  16.755 -0.1113  0.2332 -1.2008
 9752TIP3    H250748   4.616   4.632  16.729  0.1642 -0.4204 -1.5029
 9753TIP3   OH250749   4.326   3.581   0.027  0.0575 -0.2947  0.6348
 9753TIP3    H150750   4.239   3.599   0.064 -0.2904 -0.1466 -0.2457
 9753TIP3    H250751   4.331   3.485   0.025  0.1735 -0.3092  1.2660
 9754TIP3   OH250752   5.216   0.346   3.972  0.6803  0.6076 -0.1808
 9754TIP3    H150753   5.208   0.415   4.038  0.5339 -0.1505  0.5931
 9754TIP3    H250754   5.308   0.320   3.975  0.7228  0.7184 -0.4343
 9755TIP3   OH250755   0.889   6.275  16.047 -0.0421 -0.4068  0.7975
 9755TIP3    H150756   0.895   6.352  15.990 -0.7991 -0.7172  0.2759
 9755TIP3    H250757   0.855   6.206  15.990  0.6373 -1.1306  1.2594
 9756TIP3   OH250758   5.472   2.978   1.336  0.3031 -0.0130 -0.3696
 9756TIP3    H150759   5.508   2.890   1.322 -0.0958 -0.2400  0.0181
 9756TIP3    H250760   5.381   2.963   1.359  0.1952  0.5143 -0.4504
 9757TIP3   OH250761   3.606   2.533   3.984  0.0125  0.2564 -0.3313
 9757TIP3    H150762   3.681   2.592   3.986 -1.1625  1.8761 -1.3481
 9757TIP3    H250763   3.621   2.478   3.907  0.3955  0.2776 -0.2710
 9758TIP3   OH250764   2.054   6.260   4.887 -0.1784  0.5967  0.1789
 9758TIP3    H150765   1.969   6.216   4.884 -0.7294  1.6741 -0.6823
 9758TIP3    H250766   2.033   6.351   4.866  1.3682  0.5998 -1.4078
 9759TIP3   OH250767   5.970   2.099   2.381 -0.1544  0.4503 -0.1375
 9759TIP3    H150768   5.989   2.133   2.468 -2.0189 -1.2490  0.9611
 9759TIP3    H250769   6.016   2.015   2.377 -2.5257 -0.9224  0.3860
 9760TIP3   OH250770   3.304   5.316   3.694 -0.1021 -0.0281 -0.1252
 9760TIP3    H150771   3.215   5.330   3.662 -0.4887  0.1745  1.0052
 9760TIP3    H250772   3.305   5.225   3.724 -0.1672  0.1929  0.5686
 9761TIP3   OH250773   6.307   0.351  16.175  0.3542 -0.0116  0.5344
 9761TIP3    H150774   6.386   0.396  16.206  0.6636 -0.5049  0.4768
 9761TIP3    H250775   6.312   0.264  16.214  0.1769 -0.2651  0.0043
 9762TIP3   OH250776   1.877   2.461   0.823 -0.1282 -0.0223  0.1220
 9762TIP3    H150777   1.929   2.506   0.757  0.2006  0.0523  0.4283
 9762TIP3    H250778   1.935   2.456   0.899 -2.0017  3.9475  1.9795
 9763TIP3   OH250779   4.789   2.329  16.904  0.3117 -0.0234  0.3480
 9763TIP3    H150780   4.884   2.340  16.905  0.5122 -1.6688  1.5486
 9763TIP3    H250781   4.767   2.300  16.992 -1.0057 -2.1178 -0.6408
 9764TIP3   OH250782   5.966   5.206   0.448 -0.1747 -0.1720 -0.2232
 9764TIP3    H150783   6.062   5.211   0.448 -0.2250  1.0818  1.0069
 9764TIP3    H250784   5.938   5.288   0.407 -0.7275  0.5375  1.4965
 9765TIP3   OH250785   5.255   5.367   0.753  0.2332 -0.6133  0.0754
 9765TIP3    H150786   5.162   5.347   0.757  0.1153  0.1261  1.3259
 9765TIP3    H250787   5.297   5.291   0.795  0.0450 -0.0428  1.3301
 9766TIP3   OH250788   0.219   1.254   3.833  0.1531 -0.5881 -0.1872
 9766TIP3    H150789   0.147   1.235   3.773 -1.1341  2.2560  0.3588
 9766TIP3    H250790   0.280   1.306   3.781 -0.1812  0.4828  0.4770
 9767TIP3   OH250791   3.686   2.251   2.423  0.4655  0.0290 -0.5433
 9767TIP3    H150792   3.612   2.272   2.481  0.9035  0.5664 -0.1851
 9767TIP3    H250793   3.692   2.325   2.364  1.2210  0.3447 -0.0703
 9768TIP3   OH250794   6.116   4.795  14.348  0.3743 -0.8127 -0.0260
 9768TIP3    H150795   6.203   4.830  14.332 -0.1733  0.0099 -1.3529
 9768TIP3    H250796   6.061   4.838  14.282 -1.0333 -1.2873  0.8181
 9769TIP3   OH250797   3.426   3.203  14.493 -0.4465 -0.3916 -0.0955
 9769TIP3    H150798   3.495   3.193  14.428  0.3741 -1.2435  0.8806
 9769TIP3    H250799   3.467   3.175  14.575 -1.5809  0.2879  0.7104
 9770TIP3   OH250800   0.275   0.204  15.474 -0.4297 -0.1966 -0.1468
 9770TIP3    H150801   0.232   0.289  15.482 -0.2726 -0.2216  1.1128
 9770TIP3    H250802   0.204   0.142  15.459 -0.6106  0.0701 -0.3877
 9771TIP3   OH250803   4.066   3.841  17.203  0.1244 -0.0064 -0.4919
 9771TIP3    H150804   4.044   3.820  17.294  0.7624 -0.1670 -0.3737
 9771TIP3    H250805   4.056   3.758  17.156 -2.8064  0.6297 -1.0862
 9772TIP3   OH250806   0.805   2.779  15.068 -0.2358  0.1088  1.0610
 9772TIP3    H150807   0.882   2.792  15.124  0.3212 -1.4099  0.6696
 9772TIP3    H250808   0.837   2.796  14.980 -0.6941  0.8427  1.0402
 9773TIP3   OH250809   3.764   0.631   3.665  0.1726 -0.0070  0.0642
 9773TIP3    H150810   3.672   0.643   3.643 -0.2785 -2.0557  0.7102
 9773TIP3    H250811   3.802   0.591   3.586  0.4239  0.4617 -0.0538
 9774TIP3   OH250812   4.645   3.628  12.600 -0.2759  0.3166  0.2723
 9774TIP3    H150813   4.593   3.586  12.668 -0.5432  0.9170  0.4408
 9774TIP3    H250814   4.730   3.584  12.603 -0.8832 -0.9152 -0.2458
 9775TIP3   OH250815   5.641   6.431  15.666 -0.0495  0.0116 -0.2759
 9775TIP3    H150816   5.702   6.392  15.729  1.8204 -0.8425 -2.5122
 9775TIP3    H250817   5.604   6.357  15.619 -0.2194  0.6887 -1.2283
 9776TIP3   OH250818   4.204   1.043  15.762  0.5246  0.1209 -0.1204
 9776TIP3    H150819   4.233   1.134  15.757  1.1628 -0.0746  0.0298
 9776TIP3    H250820   4.185   1.019  15.672 -0.6147  0.7150 -0.0541
 9777TIP3   OH250821   3.955   5.502  14.508 -0.0736 -0.2531 -0.0910
 9777TIP3    H150822   3.897   5.462  14.443 -1.7158 -1.6891  2.2225
 9777TIP3    H250823   3.983   5.430  14.564  0.3344  1.1668  1.5777
 9778TIP3   OH250824   3.642   2.418   3.747  0.2593 -0.3261  0.0092
 9778TIP3    H150825   3.736   2.400   3.751  0.3713 -0.1911 -1.6829
 9778TIP3    H250826   3.626   2.439   3.655 -0.8644  2.8780  0.8726
 9779TIP3   OH250827   1.361   4.110   1.736  0.2601 -0.0324 -0.1971
 9779TIP3    H150828   1.387   4.060   1.814 -2.8870 -0.0384  0.9019
 9779TIP3    H250829   1.427   4.179   1.729  1.5134 -1.0116  1.5276
 9780TIP3   OH250830   6.702   4.799   0.057 -0.5937  0.5346  0.3893
 9780TIP3    H150831   6.685   4.725   0.115  0.2912 -0.4547 -0.5977
 9780TIP3    H250832   6.716   4.759  -0.029 -0.5246  1.8805 -0.2277
 9781TIP3   OH250833   6.722   0.239   4.319  0.3932 -0.5401  0.1785
 9781TIP3    H150834   6.686   0.242   4.230 -0.9829  0.9259  0.7565
 9781TIP3    H250835   6.646   0.222   4.375  1.0198 -0.0632  1.1833
 9782TIP3   OH250836   0.217   2.110  16.776  0.4354 -0.3429 -0.3292
 9782TIP3    H150837   0.274   2.164  16.720  0.7268 -0.9208 -0.5892
 9782TIP3    H250838   0.194   2.035  16.722 -1.1384  0.2167 -0.4605
 9783TIP3   OH250839   0.691   1.732   0.988 -0.1577 -0.0775  0.1862
 9783TIP3    H150840   0.754   1.736   1.059 -0.4156  0.5557  0.3791
 9783TIP3    H250841   0.668   1.823   0.970 -0.0933 -0.2308 -0.7049
 9784TIP3   OH250842   1.471   6.739  17.100  0.1445 -0.2715  0.2775
 9784TIP3    H150843   1.451   6.712  17.190 -1.0754 -1.5047 -0.3433
 9784TIP3    H250844   1.474   6.658  17.050 -2.4425  0.6026 -1.4195
 9785TIP3   OH250845   2.781   2.513   2.567 -0.3512 -0.4750 -0.2261
 9785TIP3    H150846   2.758   2.440   2.510 -1.2043  0.7941 -1.5465
 9785TIP3    H250847   2.704   2.569   2.566  1.0569  1.4929 -0.9298
 9786TIP3   OH250848   4.236   1.035  14.968  0.3618 -0.1977  0.6032
 9786TIP3    H150849   4.252   1.030  14.874  0.4130  1.3829  0.5089
 9786TIP3    H250850   4.310   1.085  15.002 -0.8716  1.3301  1.1167
 9787TIP3   OH250851   0.516   2.866   3.930  0.0035 -0.6632  1.0236
 9787TIP3    H150852   0.510   2.777   3.895 -0.5273 -0.9033  1.7091
 9787TIP3    H250853   0.596   2.865   3.983 -0.3908 -0.9385  1.6130
 9788TIP3   OH250854   4.454   3.302   0.025 -0.4966 -0.9789  0.2076
 9788TIP3    H150855   4.509   3.307   0.103 -0.7326 -3.0590  0.5551
 9788TIP3    H250856   4.451   3.391  -0.009  0.4476 -0.2463  1.9971
 9789TIP3   OH250857   1.508   2.749  15.805 -0.2920 -0.0329 -0.1439
 9789TIP3    H150858   1.486   2.666  15.762 -0.2806 -0.0214 -0.1727
 9789TIP3    H250859   1.538   2.724  15.892 -0.1935 -0.0651 -0.1879
 9790TIP3   OH250860   4.572   4.177  13.529  0.1615  0.0460  0.4772
 9790TIP3    H150861   4.621   4.233  13.469  2.4951 -0.2745  2.0426
 9790TIP3    H250862   4.593   4.211  13.616 -0.6805 -1.4757  1.2857
 9791TIP3   OH250863   0.314   0.962   0.241  0.0768 -0.1115 -0.1546
 9791TIP3    H150864   0.279   1.051   0.230 -3.1755 -0.8942  3.0668
 9791TIP3    H250865   0.253   0.906   0.193 -0.1763 -0.9787  1.1453
 9792TIP3   OH250866   0.474   4.998  14.928  0.0622  0.3754  0.4977
 9792TIP3    H150867   0.463   4.953  15.012  2.4838 -0.2848  0.4792
 9792TIP3    H250868   0.385   5.027  14.905 -1.1266 -2.1443  1.7462
 9793TIP3   OH250869   3.471   0.646   4.861 -0.3564  0.2237  0.0037
 9793TIP3    H150870   3.416   0.711   4.904  0.2430  1.0043 -0.3859
 9793TIP3    H250871   3.551   0.645   4.912 -1.1335 -1.7305  1.2387
 9794TIP3   OH250872   3.486   0.078   1.066 -0.0575 -0.1511  0.0813
 9794TIP3    H150873   3.426   0.028   1.011 -0.2892  0.5871 -0.3378
 9794TIP3    H250874   3.506   0.020   1.139 -2.1761  0.0232  0.8136
 9795TIP3   OH250875   0.748   4.851  13.561 -0.1291 -0.2492  0.4741
 9795TIP3    H150876   0.675   4.799  13.525  1.3044 -2.3264  0.4885
 9795TIP3    H250877   0.705   4.922  13.609 -2.1248 -0.6601 -0.6362
 9796TIP3   OH250878   3.502   0.039   2.551  0.0624 -0.1849 -0.2923
 9796TIP3    H150879   3.466  -0.046   2.526  0.6624 -1.1301  1.9280
 9796TIP3    H250880   3.442   0.072   2.618  0.7961  0.3205  0.1222
 9797TIP3   OH250881   0.969   5.917  16.036  0.3002 -0.6543 -0.1238
 9797TIP3    H150882   1.026   5.937  15.962 -1.2364  0.1878 -1.1051
 9797TIP3    H250883   0.905   5.855  16.001 -0.5481 -0.1086  0.4286
 9798TIP3   OH250884   1.712   6.229  13.980 -0.3155 -0.2502  0.8752
 9798TIP3    H150885   1.733   6.322  13.984  0.1000 -0.3157  0.1436
 9798TIP3    H250886   1.631   6.221  14.032 -0.0873  0.4327  1.3487
 9799TIP3   OH250887   2.159   1.045  16.896 -0.1316  0.0594  0.3088
 9799TIP3    H150888   2.184   0.983  16.965 -1.0057 -0.8283 -0.1501
 9799TIP3    H250889   2.063   1.041  16.894 -0.1292  0.3487 -0.7030
 9800TIP3   OH250890   4.494   5.566   5.821  0.4184  0.3788 -0.3856
 9800TIP3    H150891   4.538   5.622   5.757  0.7445  0.9579  0.3291
 9800TIP3    H250892   4.415   5.614   5.844 -0.5785 -0.6448 -1.6371
 9801TIP3   OH250893   2.240   6.158  12.834  0.3204  0.2687  0.1648
 9801TIP3    H150894   2.321   6.197  12.800 -0.9728  3.3787  0.4408
 9801TIP3    H250895   2.266   6.118  12.917  1.5880  1.3503  0.3148
 9802TIP3   OH250896   2.543   2.409  16.615  0.0116  0.6590  0.1910
 9802TIP3    H150897   2.636   2.387  16.624  0.1196  0.1316 -2.0219
 9802TIP3    H250898   2.522   2.457  16.696  1.7927 -0.5894  1.4314
 9803TIP3   OH250899   1.845   4.871   5.707  0.0018 -0.3635 -0.5027
 9803TIP3    H150900   1.874   4.865   5.616  2.4252  0.9156  0.1319
 9803TIP3    H250901   1.775   4.936   5.705 -0.0979 -0.4854 -1.4746
 9804TIP3   OH250902   5.576   4.575   4.528 -0.0037  0.1767 -0.1003
 9804TIP3    H150903   5.594   4.609   4.616  1.0560 -1.6091  0.3783
 9804TIP3    H250904   5.662   4.562   4.489 -0.4340 -0.5649 -0.8161
 9805TIP3   OH250905   6.120   1.334  16.439  0.8536 -0.2644  0.5301
 9805TIP3    H150906   6.082   1.385  16.510 -0.9719  0.3477 -0.8689
 9805TIP3    H250907   6.192   1.388  16.407 -0.6442  1.1696 -0.4968
 9806TIP3   OH250908   5.312   2.739  15.260  0.4452  0.1659 -0.1855
 9806TIP3    H150909   5.391   2.775  15.221  1.1003 -0.0984  0.8786
 9806TIP3    H250910   5.339   2.655  15.296 -0.6825 -0.6449 -1.1763
 9807TIP3   OH250911   1.195   1.595  15.386 -0.3126 -0.2936  0.3858
 9807TIP3    H150912   1.166   1.570  15.474  0.8575  1.6235  1.3477
 9807TIP3    H250913   1.268   1.536  15.368  0.0308 -0.0952  1.0873
 9808TIP3   OH250914   0.066   0.531  11.904  0.4580  0.0384 -0.0978
 9808TIP3    H150915   0.051   0.566  11.816  0.9508  0.2788 -0.0920
 9808TIP3    H250916  -0.021   0.514  11.939  0.2663 -0.1952 -0.6891
 9809TIP3   OH250917   0.443   0.701  13.104 -0.2182  0.0471  0.3704
 9809TIP3    H150918   0.489   0.639  13.048 -0.5045 -1.2935  1.5741
 9809TIP3    H250919   0.476   0.682  13.192  0.1825  2.0644  0.6714
 9810TIP3   OH250920   3.264   5.813  12.227  0.2645 -0.2276 -0.2750
 9810TIP3    H150921   3.179   5.818  12.270 -0.4392  0.6785 -1.7530
 9810TIP3    H250922   3.265   5.887  12.167  2.0768 -0.2701 -0.3185
 9811TIP3   OH250923   5.764   6.368  11.401  0.2512  0.1474 -0.2091
 9811TIP3    H150924   5.712   6.447  11.385  0.0979  0.4272  1.5720
 9811TIP3    H250925   5.699   6.299  11.415  0.3368  0.5010  2.0399
 9812TIP3   OH250926   1.971   2.928  11.827  0.3044 -0.0575  0.2709
 9812TIP3    H150927   2.049   2.981  11.811 -0.7698  1.0113 -1.5767
 9812TIP3    H250928   2.004   2.846  11.865  2.2346  0.6821  0.2089
 9813TIP3   OH250929   1.529   0.448   4.420  0.5952  0.1440 -0.5171
 9813TIP3    H150930   1.472   0.433   4.344  0.2064 -0.7039 -0.0693
 9813TIP3    H250931   1.615   0.463   4.383  0.1938  0.8591 -1.1804
 9814TIP3   OH250932   5.510   6.564   5.278  0.1207 -0.1371 -0.0008
 9814TIP3    H150933   5.488   6.513   5.200 -1.0595 -0.7877  0.7374
 9814TIP3    H250934   5.595   6.531   5.306 -0.0569 -0.8260 -0.2706
 9815TIP3   OH250935   1.162   2.354  14.948  0.3333  0.1880 -0.3628
 9815TIP3    H150936   1.070   2.377  14.939  0.2578 -0.2455 -0.7234
 9815TIP3    H250937   1.162   2.265  14.983  0.6246  1.7492  3.9167
 9816TIP3   OH250938   4.440   6.542  15.976  0.1806  0.0076 -0.0539
 9816TIP3    H150939   4.512   6.500  16.022 -0.6087 -1.3776 -0.0476
 9816TIP3    H250940   4.428   6.626  16.021  1.8205  0.2802 -0.1103
 9817TIP3   OH250941   3.554   1.645  15.438  0.4944 -0.0677  0.1642
 9817TIP3    H150942   3.496   1.570  15.422  0.6657 -0.1614 -0.0102
 9817TIP3    H250943   3.577   1.638  15.531 -0.7879  0.6789  0.5522
 9818TIP3   OH250944   4.588   6.278  16.641 -0.4059 -0.3932 -0.0065
 9818TIP3    H150945   4.580   6.368  16.671 -0.0761 -0.9084  1.7551
 9818TIP3    H250946   4.593   6.227  16.722 -1.4940 -2.0775 -0.9707
 9819TIP3   OH250947   1.806   2.553  13.568 -0.3323  0.0363  0.1344
 9819TIP3    H150948   1.842   2.631  13.610  0.7095 -0.3711  0.0202
 9819TIP3    H250949   1.820   2.483  13.631  1.3982 -0.6146 -0.9170
 9820TIP3   OH250950   3.867   5.151  14.228 -0.4868 -0.0292 -0.2045
 9820TIP3    H150951   3.779   5.159  14.191 -0.3643 -1.3676 -0.8176
 9820TIP3    H250952   3.859   5.183  14.318 -1.8268 -1.0414  0.0527
 9821TIP3   OH250953   2.353   1.246   2.390 -0.2764 -0.5019 -0.1734
 9821TIP3    H150954   2.293   1.237   2.464 -1.0748 -0.2963 -0.7778
 9821TIP3    H250955   2.305   1.207   2.316  0.6025 -0.9207 -0.5292
 9822TIP3   OH250956   5.868   6.775  10.284 -0.5201 -0.1246 -0.6635
 9822TIP3    H150957   5.900   6.688  10.262  0.4388  0.5974 -2.2602
 9822TIP3    H250958   5.920   6.802  10.360 -0.4632 -0.7276 -0.4889
 9823TIP3   OH250959   1.298   0.520   6.054 -0.4257 -0.2724 -0.2135
 9823TIP3    H150960   1.369   0.568   6.097  0.8937 -0.9671 -1.5473
 9823TIP3    H250961   1.219   0.546   6.101  0.6700  0.7822  1.0872
 9824TIP3   OH250962   1.660   3.220  13.185 -0.7920  0.3179 -0.4921
 9824TIP3    H150963   1.572   3.217  13.224 -0.5820  2.2078  0.2048
 9824TIP3    H250964   1.649   3.182  13.098 -1.5071 -2.9153  0.9608
 9825TIP3   OH250965   3.466   5.384  17.021 -0.1461 -0.5006  0.3059
 9825TIP3    H150966   3.383   5.336  17.027 -0.1528 -0.3795  1.3000
 9825TIP3    H250967   3.442   5.475  17.034 -0.1784 -0.1657 -1.9358
 9826TIP3   OH250968   4.133   5.352   4.155  0.8466 -0.1014  0.0838
 9826TIP3    H150969   4.157   5.445   4.158 -0.5583  0.2752  0.1548
 9826TIP3    H250970   4.185   5.316   4.084 -0.0748  1.2064 -1.2831
 9827TIP3   OH250971   6.344   1.971  16.038 -0.4470  0.1978 -0.8417
 9827TIP3    H150972   6.377   1.939  15.955  0.8308 -3.4207  0.9587
 9827TIP3    H250973   6.251   1.947  16.038 -0.4010  0.0252 -1.1674
 9828TIP3   OH250974   3.309   3.740   0.758  0.1727  0.1369  0.2428
 9828TIP3    H150975   3.305   3.736   0.853  1.5204  0.7974  0.3408
 9828TIP3    H250976   3.373   3.673   0.734  0.3993  0.4877 -0.1484
 9829TIP3   OH250977   2.184   0.771  11.894 -0.1754  0.1887  0.8641
 9829TIP3    H150978   2.216   0.682  11.883  0.0250  0.3828 -0.2949
 9829TIP3    H250979   2.127   0.785  11.818  0.6172  1.3821  0.4583
 9830TIP3   OH250980   5.269   1.450  13.577 -0.9201  0.2048  0.2052
 9830TIP3    H150981   5.209   1.376  13.573 -1.0093  0.2913 -0.0662
 9830TIP3    H250982   5.351   1.413  13.610 -1.0188  0.0213  0.2442
 9831TIP3   OH250983   0.421   1.826  17.129 -0.3533  0.3216 -0.2458
 9831TIP3    H150984   0.475   1.873  17.193 -0.8755  0.9743 -0.2804
 9831TIP3    H250985   0.413   1.886  17.056 -1.6550  0.4882  0.0225
 9832TIP3   OH250986   6.442   5.066  14.196 -0.5513  0.4348  0.1120
 9832TIP3    H150987   6.431   5.160  14.177  1.0584  0.4820 -0.7154
 9832TIP3    H250988   6.423   5.023  14.113  0.2371  0.1506  0.0768
 9833TIP3   OH250989   6.561   1.332   3.779  0.1394 -0.2729 -0.4375
 9833TIP3    H150990   6.582   1.320   3.872 -0.1309 -2.1986 -0.6159
 9833TIP3    H250991   6.487   1.273   3.763 -1.1175  1.5070 -1.4229
 9834TIP3   OH250992   2.836   4.738   5.512 -0.5047  0.3299  0.5839
 9834TIP3    H150993   2.841   4.810   5.449  1.0158  1.1709  1.6267
 9834TIP3    H250994   2.754   4.752   5.558 -2.0590 -0.7703 -1.7193
 9835TIP3   OH250995   3.028   2.632   5.157  0.3045  0.0629 -0.5452
 9835TIP3    H150996   2.965   2.566   5.187 -0.1831  0.6869 -0.1701
 9835TIP3    H250997   2.991   2.715   5.187  0.2941  0.6234 -2.0846
 9836TIP3   OH250998   1.968   2.671  13.968  0.4605  0.5692  0.2206
 9836TIP3    H150999   2.058   2.692  13.942  0.4613 -1.0958 -1.2045
 9836TIP3    H251000   1.916   2.743  13.933  1.0468  0.7117 -0.3723
 9837TIP3   OH251001   6.401   1.066   1.990  0.8230  0.2683 -0.1593
 9837TIP3    H151002   6.408   0.972   2.008 -0.4590 -0.0133 -1.0505
 9837TIP3    H251003   6.464   1.082   1.920  0.9478  0.0431 -0.0969
 9838TIP3   OH251004   6.780   5.123   0.444  0.1154 -0.1842 -0.2973
 9838TIP3    H151005   6.780   5.209   0.402 -3.2144  0.1155  0.1907
 9838TIP3    H251006   6.828   5.137   0.526  2.5529  0.3326 -1.7413
 9839TIP3   OH251007   4.900   6.356   5.781  0.5818  0.1084  0.5577
 9839TIP3    H151008   4.902   6.449   5.761  0.9762  0.0960  0.5474
 9839TIP3    H251009   4.974   6.319   5.733  0.1206 -0.2913  0.1392
 9840TIP3   OH251010   5.349   4.619  12.901 -0.0058  0.7867 -0.1713
 9840TIP3    H151011   5.434   4.577  12.895  1.2679  3.1526  0.5267
 9840TIP3    H251012   5.334   4.654  12.813  0.0514  0.9527 -0.1156
 9841TIP3   OH251013   1.384   5.098   5.835 -0.0443  0.5031 -0.0182
 9841TIP3    H151014   1.361   5.107   5.928 -0.4866  3.9302 -0.3889
 9841TIP3    H251015   1.480   5.098   5.835 -0.0415  0.7779  0.4318
 9842TIP3   OH251016   2.356   0.837   4.332  0.0951  0.3333  0.3913
 9842TIP3    H151017   2.386   0.858   4.421 -0.0221  1.1357  0.2426
 9842TIP3    H251018   2.262   0.852   4.335 -0.2034 -1.5708  0.6827
 9843TIP3   OH251019   4.882   4.101   2.659 -0.0052 -0.5896  0.3806
 9843TIP3    H151020   4.812   4.106   2.724  0.3133 -1.0688  0.7677
 9843TIP3    H251021   4.861   4.170   2.596  0.0486  0.3446  1.3544
 9844TIP3   OH251022   4.667   0.410  15.786  0.7989  0.2195 -0.1804
 9844TIP3    H151023   4.616   0.480  15.746  0.5336  0.7037  0.9851
 9844TIP3    H251024   4.725   0.379  15.716 -0.4305  0.2944 -1.2398
 9845TIP3   OH251025   1.380   0.201  15.982 -0.0338  0.5983 -0.4846
 9845TIP3    H151026   1.427   0.146  15.920  0.5045  0.9505 -0.3851
 9845TIP3    H251027   1.317   0.141  16.023  0.3761  0.1098 -0.5603
 9846TIP3   OH251028   0.848   5.650   1.330 -0.5981 -0.2273 -0.2576
 9846TIP3    H151029   0.824   5.659   1.422 -1.6220 -1.8120 -0.3434
 9846TIP3    H251030   0.814   5.729   1.288  1.2642  1.2453  0.9876
 9847TIP3   OH251031   6.131   4.545   3.378  0.5101 -0.5079  0.0470
 9847TIP3    H151032   6.169   4.462   3.352 -1.4041 -0.5960 -2.6590
 9847TIP3    H251033   6.192   4.611   3.343  2.0926 -0.6974  2.3018
 9848TIP3   OH251034   5.043   6.779   0.448 -0.1944 -0.1564  0.0744
 9848TIP3    H151035   5.072   6.747   0.534 -0.0753 -0.3770 -0.0482
 9848TIP3    H251036   4.951   6.753   0.443 -0.4716  0.7181  0.5467
 9849TIP3   OH251037   0.913   4.846   0.535  0.5114  0.0592  0.6720
 9849TIP3    H151038   0.945   4.901   0.464 -0.3397  0.7435  0.8206
 9849TIP3    H251039   0.991   4.800   0.566  0.8935 -0.2484 -0.6957
 9850TIP3   OH251040   2.560   3.334  16.202 -0.3044 -0.2950 -0.0615
 9850TIP3    H151041   2.616   3.399  16.159  0.0916 -0.3091  0.4360
 9850TIP3    H251042   2.620   3.283  16.256 -0.5139 -1.4727 -0.9079
 9851TIP3   OH251043   0.858   1.637   4.880  0.0115  0.1612  0.2597
 9851TIP3    H151044   0.920   1.616   4.949 -0.0318 -0.3843  0.1310
 9851TIP3    H251045   0.787   1.683   4.925 -0.7801 -1.5975  0.8355
 9852TIP3   OH251046   6.204   4.530   1.332 -0.1912  0.0317 -0.8257
 9852TIP3    H151047   6.131   4.490   1.285  0.6956 -0.7218 -1.5767
 9852TIP3    H251048   6.257   4.571   1.265  0.1262  0.5060 -0.2923
 9853TIP3   OH251049   3.634   0.750  13.184 -0.0305 -0.4921 -0.0970
 9853TIP3    H151050   3.606   0.778  13.271  0.8577  0.7516 -0.2044
 9853TIP3    H251051   3.556   0.762  13.129 -0.5766 -1.2236  0.5043
 9854TIP3   OH251052   2.001   3.507   3.147  0.4029 -0.7896 -0.0168
 9854TIP3    H151053   2.091   3.485   3.125  0.5427  0.3664 -0.6455
 9854TIP3    H251054   1.971   3.563   3.075 -0.5194 -0.4339  0.6293
 9855TIP3   OH251055   0.756   3.704   1.637  0.2096  0.1573  0.1503
 9855TIP3    H151056   0.816   3.729   1.707  0.5540 -0.2090 -0.0164
 9855TIP3    H251057   0.802   3.727   1.557  0.9183 -1.8670 -0.0359
 9856TIP3   OH251058   6.586   4.971   1.606  0.2218  0.1046  0.1096
 9856TIP3    H151059   6.660   4.914   1.583 -0.8807 -0.9866 -0.8146
 9856TIP3    H251060   6.531   4.917   1.663  0.1395  0.9142  0.8049
 9857TIP3   OH251061   6.245   3.368   1.378  0.1059  0.1461  0.1023
 9857TIP3    H151062   6.190   3.384   1.454  0.1267  2.0895 -0.2834
 9857TIP3    H251063   6.220   3.435   1.315 -0.1373 -1.6170 -1.7538
 9858TIP3   OH251064   5.459   3.381  14.227  0.3497  0.3327 -0.0198
 9858TIP3    H151065   5.448   3.459  14.282  0.1666  0.4936 -0.2831
 9858TIP3    H251066   5.381   3.328  14.245 -0.1736  0.8241 -0.8358
 9859TIP3   OH251067   2.949   5.094  13.276 -0.1471 -0.0709 -0.0536
 9859TIP3    H151068   2.894   5.172  13.272 -0.7214 -0.3309  2.1983
 9859TIP3    H251069   2.891   5.022  13.250 -0.4481 -0.1203  0.7247
 9860TIP3   OH251070   5.025   2.761  10.657 -0.0007 -0.4809  0.4369
 9860TIP3    H151071   5.041   2.764  10.751 -0.5715 -0.5983  0.5331
 9860TIP3    H251072   5.073   2.684  10.627 -1.1142 -1.3444  0.8689
 9861TIP3   OH251073   4.579   6.132   1.489 -0.4952  0.7267  0.3139
 9861TIP3    H151074   4.674   6.130   1.483 -0.4630  1.2894  0.6474
 9861TIP3    H251075   4.556   6.056   1.543 -0.2789  0.2534 -0.2486
 9862TIP3   OH251076   1.654   5.919  15.057 -0.2349 -0.0954  0.4779
 9862TIP3    H151077   1.563   5.901  15.034  1.3536 -3.1449 -4.0851
 9862TIP3    H251078   1.699   5.836  15.040  4.0585  2.4340 -1.0440
 9863TIP3   OH251079   2.838   2.690   0.483 -0.4405  0.2286 -0.0491
 9863TIP3    H151080   2.868   2.599   0.474 -0.4404  0.1093  1.0560
 9863TIP3    H251081   2.759   2.695   0.430 -1.0506 -0.7212  0.7578
 9864TIP3   OH251082   5.370   0.874   3.115 -0.2264  0.0257 -0.0560
 9864TIP3    H151083   5.296   0.819   3.142  0.6268 -0.8558  0.5262
 9864TIP3    H251084   5.379   0.857   3.021 -0.6096 -0.0471 -0.0826
 9865TIP3   OH251085   1.887   5.101   4.728 -0.1708 -0.4971 -0.1591
 9865TIP3    H151086   1.861   5.054   4.807  0.0812 -1.7511 -0.8106
 9865TIP3    H251087   1.832   5.064   4.659  0.3638 -0.1713 -0.7644
 9866TIP3   OH251088   2.687   1.774  16.917  0.3575  0.0921 -0.3553
 9866TIP3    H151089   2.666   1.694  16.870  0.9821 -0.6873  0.6764
 9866TIP3    H251090   2.774   1.798  16.886  0.0536  0.5268 -0.8716
 9867TIP3   OH251091   5.500   5.265   3.397  0.0642  1.1101 -0.3863
 9867TIP3    H151092   5.586   5.293   3.432 -0.5568  2.2272  0.2924
 9867TIP3    H251093   5.506   5.170   3.393  0.4571  0.9922  2.0604
 9868TIP3   OH251094   6.306   4.008   1.521 -0.2425  0.4169 -0.1947
 9868TIP3    H151095   6.225   4.051   1.548 -0.7995 -1.4141  1.1382
 9868TIP3    H251096   6.370   4.035   1.586 -0.1255  0.6942 -0.4213
 9869TIP3   OH251097   5.329   0.356  14.997  0.1864 -0.6864  0.2087
 9869TIP3    H151098   5.244   0.397  15.016  0.2097 -0.9613  0.8898
 9869TIP3    H251099   5.377   0.361  15.079  1.2545  0.4707 -0.4630
 9870TIP3   OH251100   0.084   1.399  13.337 -0.2034 -0.2358  0.4474
 9870TIP3    H151101  -0.008   1.372  13.342 -0.5676  0.8021 -0.5034
 9870TIP3    H251102   0.087   1.481  13.385 -0.0939  0.5277 -0.8427
 9871TIP3   OH251103   3.706   0.405  16.100  0.6755 -0.3060 -0.7972
 9871TIP3    H151104   3.791   0.445  16.119  0.6292  0.0647 -1.3789
 9871TIP3    H251105   3.653   0.424  16.178  1.3832 -1.2758 -0.0627
 9872TIP3   OH251106   5.476   1.960   2.963 -0.4370 -0.0164 -0.8717
 9872TIP3    H151107   5.443   2.031   3.018 -0.1440  1.2777 -2.3369
 9872TIP3    H251108   5.398   1.923   2.923 -0.4463  0.6058 -1.4367
 9873TIP3   OH251109   0.325   4.549   0.002  0.2793 -0.8747 -0.7021
 9873TIP3    H151110   0.309   4.590  -0.082  1.5791 -2.6791 -1.8739
 9873TIP3    H251111   0.291   4.460  -0.007 -0.9939 -0.6106  1.2167
 9874TIP3   OH251112   3.462   1.609  16.667 -0.3259  0.2575 -0.2317
 9874TIP3    H151113   3.494   1.685  16.619  0.1868 -0.5387 -1.1888
 9874TIP3    H251114   3.368   1.607  16.650 -0.4569  1.0935  0.4006
 9875TIP3   OH251115   5.515   5.919  15.000  0.3128  0.3405  0.4364
 9875TIP3    H151116   5.446   5.976  14.964 -2.2460 -2.1246  1.2825
 9875TIP3    H251117   5.532   5.856  14.930  0.4355 -0.1172  0.8762
 9876TIP3   OH251118   1.611   4.161  12.675  0.4184 -0.7665 -0.1042
 9876TIP3    H151119   1.644   4.226  12.613 -0.5723 -1.2229 -1.1431
 9876TIP3    H251120   1.688   4.113  12.704  1.1654  0.8738  0.6976
 9877TIP3   OH251121   5.646   2.321   5.446 -0.1097  0.1446 -0.0977
 9877TIP3    H151122   5.592   2.342   5.370  0.2111  1.2357 -0.0315
 9877TIP3    H251123   5.727   2.370   5.432  1.4863 -2.6179 -0.9397
 9878TIP3   OH251124   0.453   2.156  14.530  0.2876  0.1018  0.1172
 9878TIP3    H151125   0.420   2.128  14.445 -0.1556 -1.0249  0.6527
 9878TIP3    H251126   0.434   2.250  14.533  0.3345  0.1577 -1.0299
 9879TIP3   OH251127   2.253   6.371  14.907 -1.0565 -0.4287  0.2141
 9879TIP3    H151128   2.168   6.367  14.950 -1.9740  1.1252 -1.3866
 9879TIP3    H251129   2.300   6.440  14.953 -0.8663 -0.8957  0.7275
 9880TIP3   OH251130   1.396   5.712  15.020 -0.0122 -0.3319  0.5697
 9880TIP3    H151131   1.354   5.780  14.968 -0.9389 -3.1281 -2.5396
 9880TIP3    H251132   1.334   5.694  15.091 -1.9829 -1.1530 -1.2913
 9881TIP3   OH251133   6.726   0.246   3.076  0.1128  0.0803  0.1634
 9881TIP3    H151134   6.786   0.215   3.008  0.5996 -0.3639  0.7874
 9881TIP3    H251135   6.756   0.335   3.095  0.4518 -0.0710  0.3366
 9882TIP3   OH251136   4.204   2.968  13.047  0.9426  0.2071 -0.2509
 9882TIP3    H151137   4.131   2.937  12.993  0.1505 -0.7292  1.3133
 9882TIP3    H251138   4.165   2.982  13.133  2.7177 -0.7833  0.7289
 9883TIP3   OH251139   3.262   4.135  17.055 -0.2194 -0.7876  0.5821
 9883TIP3    H151140   3.196   4.121  17.123 -0.9413 -1.3849 -0.2318
 9883TIP3    H251141   3.308   4.052  17.048 -0.9401 -1.1028 -0.4907
 9884TIP3   OH251142   1.056   3.901  13.010 -0.1763  0.1711 -0.8688
 9884TIP3    H151143   1.025   3.971  12.953 -0.4163  0.6795 -0.1214
 9884TIP3    H251144   0.977   3.866  13.051  0.1051  0.6173  0.0677
 9885TIP3   OH251145   4.139   2.667   0.112 -0.3338 -0.4683 -0.1252
 9885TIP3    H151146   4.121   2.597   0.049  0.3823  0.8920 -1.8737
 9885TIP3    H251147   4.168   2.741   0.059  0.4085  0.6797  1.8142
 9886TIP3   OH251148   2.734   0.456   1.250  0.1426 -0.6101 -0.2022
 9886TIP3    H151149   2.698   0.503   1.324  0.0192  1.5805 -1.6095
 9886TIP3    H251150   2.811   0.411   1.285 -0.0168  0.2638  1.2937
 9887TIP3   OH251151   3.307   5.549  11.168 -0.3999 -0.3488  0.2941
 9887TIP3    H151152   3.248   5.593  11.107 -2.3748 -1.2556  1.4875
 9887TIP3    H251153   3.323   5.463  11.129 -1.4203 -0.8161  0.8890
 9888TIP3   OH251154   0.874   5.464   2.619 -0.0986  0.4218  0.3211
 9888TIP3    H151155   0.933   5.523   2.571  0.8101  0.3522  1.3408
 9888TIP3    H251156   0.844   5.516   2.694 -0.5087  0.1048  0.3754
 9889TIP3   OH251157   3.823   0.766   3.920 -0.6279 -0.2709  0.0210
 9889TIP3    H151158   3.805   0.699   3.854  0.5593 -0.2384 -0.3457
 9889TIP3    H251159   3.753   0.830   3.910 -1.4580 -1.1722 -0.0018
 9890TIP3   OH251160   1.691   0.034  16.982  0.0190 -0.0536 -0.1735
 9890TIP3    H151161   1.622   0.013  17.044 -1.2207  1.7508 -0.9266
 9890TIP3    H251162   1.672  -0.022  16.906 -0.6048  0.4306 -0.3745
 9891TIP3   OH251163   3.934   4.181  14.910 -0.7633 -0.2131  0.4894
 9891TIP3    H151164   4.015   4.179  14.861 -1.2231  0.4055 -0.3210
 9891TIP3    H251165   3.926   4.094  14.949  0.0408 -0.4268  0.1775
 9892TIP3   OH251166   4.233   0.037  14.429  0.4950 -0.1217  0.2339
 9892TIP3    H151167   4.196   0.066  14.512  0.0396 -0.8247  0.2791
 9892TIP3    H251168   4.294   0.106  14.405  0.4670  0.1943  1.0439
 9893TIP3   OH251169   1.559   5.603   4.082 -0.2047  0.6054 -0.4810
 9893TIP3    H151170   1.581   5.673   4.021  0.3160  1.2408  0.4295
 9893TIP3    H251171   1.585   5.636   4.168 -0.1135 -0.6386 -0.0161
 9894TIP3   OH251172   6.157   4.761   2.349  0.5193  0.4093  0.1401
 9894TIP3    H151173   6.244   4.757   2.389 -0.0269  0.2398  1.3301
 9894TIP3    H251174   6.101   4.797   2.417 -0.6655 -1.0069 -0.0643
 9895TIP3   OH251175   4.595   4.113  17.131 -0.3040  0.3439  0.6494
 9895TIP3    H151176   4.615   4.071  17.047  1.1183  0.1497  1.0780
 9895TIP3    H251177   4.676   4.105  17.182 -1.7991 -1.4310  2.8375
 9896TIP3   OH251178   1.958   1.478  12.776  0.1507 -0.6899  0.0714
 9896TIP3    H151179   1.897   1.406  12.757  0.2249 -0.8427  0.4094
 9896TIP3    H251180   1.904   1.547  12.814  0.2403 -0.9551  0.6882
 9897TIP3   OH251181   1.520   1.396  12.671 -0.1467 -0.1581 -0.1864
 9897TIP3    H151182   1.599   1.434  12.634  0.1766  1.6397  2.2943
 9897TIP3    H251183   1.450   1.423  12.611  0.8199 -0.1257 -1.3099
 9898TIP3   OH251184   3.750   1.836   5.627 -0.0123 -0.4149 -0.2595
 9898TIP3    H151185   3.833   1.850   5.581  1.1586 -1.9326  1.3045
 9898TIP3    H251186   3.764   1.756   5.677 -1.9617  0.0668  1.1049
 9899TIP3   OH251187   6.214   6.553   2.146 -0.3998  0.2660 -0.0868
 9899TIP3    H151188   6.289   6.544   2.087 -0.0126  0.3558  0.3884
 9899TIP3    H251189   6.145   6.592   2.092  0.0283  0.5610 -0.4142
 9900TIP3   OH251190   4.524   6.796  12.828  0.3748  0.0093 -0.0841
 9900TIP3    H151191   4.582   6.841  12.767  0.4020 -0.4722 -0.4186
 9900TIP3    H251192   4.469   6.865  12.865  2.0838  0.6832  1.2965
 9901TIP3   OH251193   0.853   5.163  11.735 -0.1893 -0.2170 -0.1252
 9901TIP3    H151194   0.846   5.072  11.707 -0.7784 -1.0147  2.4955
 9901TIP3    H251195   0.783   5.173  11.800  2.5720  0.8712  2.7628
 9902TIP3   OH251196   6.005   2.746  12.436  0.3413  0.4750 -0.4005
 9902TIP3    H151197   5.990   2.698  12.355 -1.6065 -0.5020  0.5058
 9902TIP3    H251198   5.963   2.831  12.422 -0.3023  0.1782 -0.3071
 9903TIP3   OH251199   6.766   0.350   5.938 -0.1962 -0.3516  0.0011
 9903TIP3    H151200   6.703   0.286   5.969 -0.4691  0.2537  0.7180
 9903TIP3    H251201   6.839   0.299   5.905 -0.8238 -1.0465 -0.3293
 9904TIP3   OH251202   1.889   5.812   4.995 -0.0890  0.2695 -0.2731
 9904TIP3    H151203   1.864   5.804   4.903  0.2789 -0.9264 -0.2811
 9904TIP3    H251204   1.810   5.846   5.038 -0.0510  1.4413 -1.1272
 9905TIP3   OH251205   2.367   6.308   3.945 -0.2813 -0.3603 -0.2246
 9905TIP3    H151206   2.346   6.398   3.970  1.2582 -0.1374  0.3156
 9905TIP3    H251207   2.339   6.255   4.020 -2.1719 -0.4648 -0.9802
 9906TIP3   OH251208   3.732   6.285  15.704  0.1519  0.3010  0.3963
 9906TIP3    H151209   3.691   6.234  15.633 -0.6884  4.0802 -2.0177
 9906TIP3    H251210   3.659   6.313  15.758  0.5184 -0.3816  1.2446
 9907TIP3   OH251211   4.845   0.822   2.528 -0.3362  0.0350 -0.4989
 9907TIP3    H151212   4.844   0.892   2.464 -2.2241  0.1871 -0.3323
 9907TIP3    H251213   4.756   0.822   2.566  0.1328 -1.3453  0.6708
 9908TIP3   OH251214   5.553   3.054   0.805  0.1444 -0.0270  0.2086
 9908TIP3    H151215   5.614   2.980   0.808  0.9055  0.5999  0.1678
 9908TIP3    H251216   5.578   3.110   0.878 -0.1015  0.4563 -0.0739
 9909TIP3   OH251217   5.267   4.781  12.664 -0.3965  0.7752 -0.2248
 9909TIP3    H151218   5.200   4.850  12.662 -2.2053 -0.9566 -0.8281
 9909TIP3    H251219   5.339   4.817  12.612 -1.4300  2.0891 -0.7901
 9910TIP3   OH251220   1.695   1.325   0.061 -0.2594  0.2515  0.1035
 9910TIP3    H151221   1.770   1.267   0.074 -0.4714 -0.0437  0.0233
 9910TIP3    H251222   1.622   1.279   0.102 -0.7550 -0.2835 -1.3493
 9911TIP3   OH251223   0.040   1.139   0.396  0.4197 -0.0824 -0.2323
 9911TIP3    H151224  -0.005   1.055   0.386 -1.7865  1.2370 -1.8525
 9911TIP3    H251225   0.069   1.161   0.307  3.0341 -0.1834  0.5439
 9912TIP3   OH251226   0.436   1.010  13.419  0.8263 -1.0585  0.3844
 9912TIP3    H151227   0.425   1.006  13.514 -1.3904 -0.7446  0.1806
 9912TIP3    H251228   0.383   1.086  13.393  1.1686 -1.3336 -1.1301
 9913TIP3   OH251229   1.660   4.103   4.079 -0.4551 -0.2985 -0.2620
 9913TIP3    H151230   1.712   4.097   3.999 -1.2387 -0.4470 -0.7646
 9913TIP3    H251231   1.569   4.108   4.049 -0.6378  1.9424  0.5215
 9914TIP3   OH251232   0.404   2.423  14.549  0.1608  0.2190 -0.2484
 9914TIP3    H151233   0.400   2.467  14.634  2.3995  0.4224 -0.2038
 9914TIP3    H251234   0.434   2.491  14.488  1.4929 -0.6526 -0.5989
 9915TIP3   OH251235   5.801   3.359  15.788 -0.4897 -0.3383 -0.6532
 9915TIP3    H151236   5.720   3.387  15.745 -0.2856 -0.2764 -1.0007
 9915TIP3    H251237   5.860   3.336  15.716 -1.1083 -2.9669 -0.3961
 9916TIP3   OH251238   4.012   5.399  16.552 -0.1224  0.0092  0.8840
 9916TIP3    H151239   3.931   5.354  16.529  0.2135  0.4879 -1.3244
 9916TIP3    H251240   4.057   5.340  16.612 -1.2947 -1.0135  0.7613
 9917TIP3   OH251241   2.206   2.808   1.570 -0.5902 -0.5972  0.0258
 9917TIP3    H151242   2.194   2.779   1.660 -1.5426 -0.2356  0.0173
 9917TIP3    H251243   2.228   2.728   1.522 -1.6159 -1.0486  0.2957
 9918TIP3   OH251244   6.411   5.314   3.347  0.4262 -0.6558 -0.0829
 9918TIP3    H151245   6.368   5.279   3.270  1.4502 -1.4241 -0.3034
 9918TIP3    H251246   6.347   5.375   3.384 -0.6305 -1.3661 -0.7207
 9919TIP3   OH251247   0.671   3.560   4.845 -0.2131 -0.7612  0.1670
 9919TIP3    H151248   0.682   3.485   4.786  0.2748 -1.4990  1.1913
 9919TIP3    H251249   0.754   3.608   4.840 -1.1669  0.7800 -1.9183
 9920TIP3   OH251250   0.715   2.697   3.581  0.2182 -0.0916 -0.0730
 9920TIP3    H151251   0.661   2.775   3.567  0.1954  0.1910  1.4365
 9920TIP3    H251252   0.660   2.623   3.557  0.2331  0.3564 -1.5062
 9921TIP3   OH251253   2.832   3.032   1.944 -0.3094  0.0768 -0.1577
 9921TIP3    H151254   2.830   3.096   1.872 -0.4065  0.6421  0.3483
 9921TIP3    H251255   2.741   3.025   1.972 -0.8261 -2.6029 -2.2474
 9922TIP3   OH251256   5.681   3.136  16.770 -0.2290  0.7893  0.3530
 9922TIP3    H151257   5.751   3.102  16.826 -0.5377  0.2230  0.3996
 9922TIP3    H251258   5.699   3.230  16.764  1.3493  0.4321 -0.8173
 9923TIP3   OH251259   0.834   3.159   5.622 -0.5460  0.4812 -0.3139
 9923TIP3    H151260   0.810   3.237   5.672 -0.8781  0.0613  0.1914
 9923TIP3    H251261   0.919   3.133   5.658 -0.5944  0.4161 -0.2460
 9924TIP3   OH251262   5.727   3.981   5.599 -0.1926  0.1224  0.5507
 9924TIP3    H151263   5.652   3.951   5.548  0.4399 -1.4584  0.5305
 9924TIP3    H251264   5.754   3.905   5.650  1.2232  0.7562  0.7777
 9925TIP3   OH251265   2.161   5.457  16.526  0.0116  0.7410 -0.0846
 9925TIP3    H151266   2.160   5.385  16.463  0.3648  0.7099 -0.0527
 9925TIP3    H251267   2.074   5.496  16.518  0.0080  0.6523 -0.4912
 9926TIP3   OH251268   1.721   5.134  11.547 -0.0432 -0.2349  0.0618
 9926TIP3    H151269   1.808   5.095  11.560  0.2792  0.0902 -1.0958
 9926TIP3    H251270   1.737   5.210  11.491 -0.9689  0.3224  0.5416
 9927TIP3   OH251271   4.822   6.419  12.672  0.4915  0.2126 -0.7727
 9927TIP3    H151272   4.885   6.394  12.605  1.5885  0.1448  0.2504
 9927TIP3    H251273   4.755   6.469  12.626  0.9745 -0.2405 -1.9835
 9928TIP3   OH251274   6.602   1.681  16.614  0.7867 -0.8016 -0.2398
 9928TIP3    H151275   6.516   1.677  16.572  0.9180 -2.6485 -0.3871
 9928TIP3    H251276   6.661   1.709  16.544  0.7343 -2.2466 -0.8932
 9929TIP3   OH251277   1.736   6.523  17.071  0.1409  0.5414  0.2917
 9929TIP3    H151278   1.659   6.536  17.016 -0.0185 -0.8319  0.1617
 9929TIP3    H251279   1.702   6.524  17.161 -0.1353 -0.7222  0.2055
 9930TIP3   OH251280   0.079   3.086   3.063 -0.0004  0.5997  0.4869
 9930TIP3    H151281   0.043   3.169   3.030 -1.7540  0.1092  1.1681
 9930TIP3    H251282   0.078   3.028   2.987 -1.5730  0.2868  0.7345
 9931TIP3   OH251283   0.985   2.657  12.478  0.1657 -0.2491  0.6526
 9931TIP3    H151284   1.049   2.727  12.488 -0.0857 -0.0189  0.6634
 9931TIP3    H251285   0.964   2.656  12.385 -0.6669  0.4359  0.8301
 9932TIP3   OH251286   1.930   2.927  13.428  0.5523  0.0594 -0.0931
 9932TIP3    H151287   1.937   3.016  13.393 -0.1489  0.5901  1.0921
 9932TIP3    H251288   1.835   2.913  13.438  0.5371 -1.5275 -2.0418
 9933TIP3   OH251289   3.360   2.921   2.515 -0.4435  0.3588 -1.1828
 9933TIP3    H151290   3.390   2.940   2.426  0.2363 -1.0174 -1.2582
 9933TIP3    H251291   3.272   2.886   2.504 -1.5906  3.1082 -1.0658
 9934TIP3   OH251292   1.508   0.760  15.223  0.5526  0.0152 -0.0648
 9934TIP3    H151293   1.569   0.705  15.272 -1.5094  0.2277  2.8917
 9934TIP3    H251294   1.422   0.720  15.239 -0.1104 -0.6496 -4.6114
 9935TIP3   OH251295   2.317   4.701   3.279 -0.0020  0.1558 -0.2867
 9935TIP3    H151296   2.228   4.681   3.309  0.0529  0.2696 -0.0443
 9935TIP3    H251297   2.347   4.769   3.339  1.2111 -1.6755  1.2203
 9936TIP3   OH251298   3.523   2.095  15.101 -0.2656  0.2272  0.0318
 9936TIP3    H151299   3.546   2.009  15.067 -1.5013 -0.4534  0.8526
 9936TIP3    H251300   3.528   2.153  15.025  2.2191 -0.2324 -0.1742
 9937TIP3   OH251301   4.264   6.601  16.599 -0.0798  0.0935 -0.3649
 9937TIP3    H151302   4.217   6.679  16.568 -0.4763  0.8517  2.0358
 9937TIP3    H251303   4.295   6.625  16.686  2.2150 -1.4795 -0.7169
 9938TIP3   OH251304   6.049   1.673   3.791 -0.1597  0.1585  0.0315
 9938TIP3    H151305   6.139   1.704   3.804 -0.0647  0.2037 -0.6764
 9938TIP3    H251306   5.996   1.731   3.846  0.1626  0.6857 -0.2003
 9939TIP3   OH251307   5.008   1.042   4.651  0.5903 -0.0668  0.1551
 9939TIP3    H151308   5.037   1.008   4.566  0.3124 -1.8686  0.7634
 9939TIP3    H251309   4.913   1.030   4.650  0.1507  2.9786 -0.5856
 9940TIP3   OH251310   5.279   2.439  16.710  0.0946 -0.4509  0.1969
 9940TIP3    H151311   5.223   2.516  16.712  1.8600  0.8755 -0.1966
 9940TIP3    H251312   5.228   2.373  16.664 -0.5457  1.2067 -1.5181
 9941TIP3   OH251313   3.124   4.033  13.402  0.1751 -0.6747 -0.4991
 9941TIP3    H151314   3.144   4.086  13.479  1.3084 -0.6124 -0.8156
 9941TIP3    H251315   3.186   3.960  13.406 -1.7711 -2.3459  0.2556
 9942TIP3   OH251316   4.535   4.419   3.917  0.2026  0.5136 -0.0105
 9942TIP3    H151317   4.588   4.491   3.882  2.8809 -0.6899  1.4200
 9942TIP3    H251318   4.535   4.353   3.848 -2.2182  1.8209 -1.3067
 9943TIP3   OH251319   0.544   4.557  12.760  0.7777 -0.2917  0.0276
 9943TIP3    H151320   0.582   4.613  12.692  0.1664  0.3800  0.2347
 9943TIP3    H251321   0.582   4.471  12.744  2.1504  0.3039  0.0477
 9944TIP3   OH251322   5.299   1.978   5.869 -0.1863 -0.9535  0.3573
 9944TIP3    H151323   5.244   2.022   5.804 -0.0728  1.6604  1.9391
 9944TIP3    H251324   5.364   2.044   5.894  1.4605 -2.8173  1.1350
 9945TIP3   OH251325   1.655   5.655   5.628  0.3204 -0.5439  0.2505
 9945TIP3    H151326   1.596   5.722   5.662  1.1961  0.8784 -0.9784
 9945TIP3    H251327   1.731   5.658   5.686 -0.3843 -1.7119  1.2553
 9946TIP3   OH251328   5.054   6.563  15.405 -1.0111  0.4096 -0.4434
 9946TIP3    H151329   5.024   6.628  15.343  0.0183  1.3191 -0.0167
 9946TIP3    H251330   4.991   6.567  15.477 -0.7328  1.2130 -0.2430
 9947TIP3   OH251331   4.221   5.027   3.280  0.6606  0.5546  0.5710
 9947TIP3    H151332   4.190   5.097   3.337 -1.4610  0.4882 -0.4455
 9947TIP3    H251333   4.167   5.034   3.202  1.4460 -1.2681 -0.1687
 9948TIP3   OH251334   5.105   3.379  14.499 -0.0486 -0.2642 -0.5410
 9948TIP3    H151335   5.106   3.426  14.416 -0.2208  0.6186 -0.0547
 9948TIP3    H251336   5.194   3.389  14.533 -0.4465  0.8542  0.1886
 9949TIP3   OH251337   1.298   5.722  11.362 -0.2906 -0.0028  0.7228
 9949TIP3    H151338   1.308   5.804  11.314  0.5045 -1.0033 -0.8409
 9949TIP3    H251339   1.203   5.713  11.374 -0.5129  0.2506 -0.7030
 9950TIP3   OH251340   3.859   3.388   2.279 -0.1609  0.4754  0.8530
 9950TIP3    H151341   3.767   3.378   2.253 -0.3770  0.6236  1.5599
 9950TIP3    H251342   3.856   3.401   2.373  0.7514 -1.7915  1.2144
 9951TIP3   OH251343   0.760   3.519  10.961 -0.5706 -0.2305  0.2222
 9951TIP3    H151344   0.832   3.571  10.925 -1.5333  1.5800  0.8389
 9951TIP3    H251345   0.687   3.533  10.900 -1.1397 -0.0264  0.9376
 9952TIP3   OH251346   5.027   6.200   5.216 -0.2837  0.1072  0.1106
 9952TIP3    H151347   4.966   6.211   5.143  1.4191 -4.1734 -2.1214
 9952TIP3    H251348   5.012   6.110   5.246  3.9085 -0.6385  0.3264
 9953TIP3   OH251349   5.549   6.115  11.283  0.0733  0.0589  0.0183
 9953TIP3    H151350   5.496   6.100  11.205  1.1497  0.9960 -0.9153
 9953TIP3    H251351   5.585   6.029  11.305  0.5681 -0.0337 -1.1229
 9954TIP3   OH251352   6.580   4.423   1.873  0.2016 -0.3572  0.1142
 9954TIP3    H151353   6.513   4.458   1.932  1.4795  1.7850  0.3576
 9954TIP3    H251354   6.571   4.476   1.793  0.2060 -1.4901 -0.6444
 9955TIP3   OH251355   2.870   5.983  14.753  0.4460  0.2398 -0.1794
 9955TIP3    H151356   2.900   5.996  14.663  1.3967  0.7130  0.1928
 9955TIP3    H251357   2.819   6.061  14.773  0.9749  0.5509 -0.0204
 9956TIP3   OH251358   4.563   0.688  15.065 -0.2020  0.4239  0.6020
 9956TIP3    H151359   4.629   0.721  15.126  1.9169 -1.8379 -0.3665
 9956TIP3    H251360   4.587   0.728  14.981  0.8306 -1.5080 -0.0430
 9957TIP3   OH251361   6.345   2.518  16.527 -0.3592 -0.2251 -0.1602
 9957TIP3    H151362   6.396   2.452  16.481 -0.7723  1.2764 -2.8558
 9957TIP3    H251363   6.362   2.599  16.480 -1.2312  1.2828  2.0260
 9958TIP3   OH251364   4.941   1.299   2.327  0.1633  0.0942 -0.1899
 9958TIP3    H151365   4.943   1.367   2.259 -1.0789  0.5375  0.2117
 9958TIP3    H251366   4.931   1.217   2.279  0.1344  0.3305 -0.5882
 9959TIP3   OH251367   1.660   4.658   1.226 -0.0777 -0.1050  0.0794
 9959TIP3    H151368   1.654   4.597   1.153  1.1270  0.5802 -0.6145
 9959TIP3    H251369   1.618   4.613   1.299 -0.0696 -1.3537 -0.6781
 9960TIP3   OH251370   2.405   1.297   1.085  0.3962  0.0347 -0.2820
 9960TIP3    H151371   2.348   1.352   1.033 -0.6823 -0.4525  0.3745
 9960TIP3    H251372   2.462   1.254   1.021  1.7385  2.4242 -0.7501
 9961TIP3   OH251373   4.935   4.662  16.686  0.3842 -0.0163  0.1685
 9961TIP3    H151374   4.979   4.620  16.613  2.4321 -0.0879  1.4221
 9961TIP3    H251375   4.976   4.625  16.764 -1.1345  0.7342  1.3578
 9962TIP3   OH251376   6.651   3.794  12.641  0.0034  0.0315 -0.1914
 9962TIP3    H151377   6.739   3.767  12.612 -0.1245 -0.9359  0.3071
 9962TIP3    H251378   6.634   3.741  12.718 -0.8711  0.5026 -0.0583
 9963TIP3   OH251379   3.912   5.190  13.245 -0.4878  0.2616 -0.6318
 9963TIP3    H151380   3.932   5.284  13.239 -0.1071  0.1947 -0.4283
 9963TIP3    H251381   3.997   5.149  13.262 -0.9897  0.0975  1.5621
 9964TIP3   OH251382   4.333   2.368   0.671 -0.4113 -0.1916 -0.2945
 9964TIP3    H151383   4.264   2.311   0.706 -0.9334  0.7554  0.2300
 9964TIP3    H251384   4.393   2.380   0.745 -1.6100  1.9652  0.3671
 9965TIP3   OH251385   4.980   5.462   0.947  0.4082  0.1151  0.0585
 9965TIP3    H151386   4.950   5.372   0.953 -1.7942  0.8928  1.0986
 9965TIP3    H251387   4.970   5.485   0.855 -2.3927  0.3951  0.4035
 9966TIP3   OH251388   3.341   4.455   1.687 -0.2054 -0.0756 -0.2128
 9966TIP3    H151389   3.260   4.404   1.692  0.4213 -0.9664  0.8073
 9966TIP3    H251390   3.385   4.422   1.609 -0.8722  0.4945 -0.8398
 9967TIP3   OH251391   6.425   5.436  12.515  0.4155 -0.2642 -0.7902
 9967TIP3    H151392   6.337   5.473  12.519  0.0119 -1.1199 -1.4806
 9967TIP3    H251393   6.425   5.367  12.581 -1.0646 -3.5977 -4.1122
 9968TIP3   OH251394   1.747   4.373  11.643  0.1665 -0.3593 -0.3639
 9968TIP3    H151395   1.782   4.300  11.591  0.9604  0.3963 -0.9009
 9968TIP3    H251396   1.825   4.417  11.677 -0.3062  0.3700 -0.2159
 9969TIP3   OH251397   1.148   5.679  12.786  0.2605 -0.0351 -0.3213
 9969TIP3    H151398   1.171   5.590  12.757  2.1544 -0.7244  3.0089
 9969TIP3    H251399   1.054   5.676  12.799  0.2547 -1.4939 -0.5360
 9970TIP3   OH251400   1.928   1.968   3.342 -0.2155  0.1082 -0.0918
 9970TIP3    H151401   1.906   1.960   3.249 -1.2201  0.4070  0.1134
 9970TIP3    H251402   2.010   2.018   3.343 -0.5801  0.7372 -0.7883
 9971TIP3   OH251403   5.024   6.301  14.199  0.1864 -0.9077 -0.3551
 9971TIP3    H151404   5.018   6.222  14.145 -1.1271 -0.3678 -1.0363
 9971TIP3    H251405   4.969   6.282  14.275  1.5425 -1.4326  0.5042
 9972TIP3   OH251406   6.292   0.112   6.920 -0.4854  0.0531 -0.1488
 9972TIP3    H151407   6.381   0.133   6.893 -0.4611  1.5044  0.9916
 9972TIP3    H251408   6.263   0.189   6.969 -2.2654 -0.5181 -0.2619
 9973TIP3   OH251409   2.418   1.035  11.232 -0.3538  0.9182 -0.0958
 9973TIP3    H151410   2.348   1.058  11.292 -0.8645  0.0305 -0.3503
 9973TIP3    H251411   2.456   0.955  11.268  1.4215  2.1115  0.7856
 9974TIP3   OH251412   0.999   3.199  12.537 -0.0602 -0.1950 -0.0501
 9974TIP3    H151413   1.015   3.253  12.459 -2.1915 -0.5999 -0.7987
 9974TIP3    H251414   0.906   3.210  12.554 -0.2377 -2.6139  0.5717
 9975TIP3   OH251415   6.654   0.974  13.504 -0.1583 -0.0709 -0.3933
 9975TIP3    H151416   6.645   0.995  13.411 -1.0040 -0.2845 -0.3641
 9975TIP3    H251417   6.729   1.027  13.534  0.1336 -0.0267 -1.1956
 9976TIP3   OH251418   0.950   2.557  12.204  0.0548 -0.1170  0.0333
 9976TIP3    H151419   1.042   2.544  12.226  0.1541  1.3372  0.5320
 9976TIP3    H251420   0.909   2.472  12.219  1.4977 -1.0445 -1.1857
 9977TIP3   OH251421   3.639   0.952   3.792  0.2349  0.2233 -0.0402
 9977TIP3    H151422   3.619   0.876   3.737  1.7727  0.0265 -0.3403
 9977TIP3    H251423   3.683   1.014   3.733 -1.0189  1.3605  0.2017
 9978TIP3   OH251424   3.943   2.733   5.038  0.1430 -0.3247  0.3239
 9978TIP3    H151425   4.014   2.670   5.032 -1.9883 -2.7755 -0.0868
 9978TIP3    H251426   3.863   2.680   5.036 -1.8296  2.5807 -2.8908
 9979TIP3   OH251427   3.284   2.564  12.283  0.5515  0.6465 -0.3743
 9979TIP3    H151428   3.377   2.552  12.303  0.2161 -3.9290 -0.9118
 9979TIP3    H251429   3.264   2.493  12.221 -3.7160  0.2842  1.2455
 9980TIP3   OH251430   3.670   3.308   0.194 -0.0919  0.0318 -0.5114
 9980TIP3    H151431   3.742   3.247   0.210 -0.3209 -0.3091 -0.7737
 9980TIP3    H251432   3.708   3.395   0.209  0.1302 -0.1942  0.2329
 9981TIP3   OH251433   1.709   1.938   4.792  0.0573  0.4005  0.0251
 9981TIP3    H151434   1.653   1.965   4.719 -0.0546 -1.0948 -0.4519
 9981TIP3    H251435   1.745   1.854   4.765  1.6553  0.8190  0.8207
 9982TIP3   OH251436   4.868   0.133   0.942  0.1251 -0.2716 -0.2675
 9982TIP3    H151437   4.839   0.042   0.956 -1.4106  0.1759 -0.4209
 9982TIP3    H251438   4.848   0.150   0.850  0.5802  0.1667 -0.2829
 9983TIP3   OH251439   0.693   0.559   0.140 -0.0019 -0.2604  0.6571
 9983TIP3    H151440   0.660   0.481   0.096  0.8472 -0.6969  0.7851
 9983TIP3    H251441   0.753   0.599   0.076  0.6514 -0.4855  1.1166
 9984TIP3   OH251442   4.108   4.529  16.606  0.3603  0.0953  0.3330
 9984TIP3    H151443   4.183   4.546  16.548 -1.2509  0.6901 -1.6199
 9984TIP3    H251444   4.091   4.435  16.596  0.0296  0.2131 -0.2453
 9985TIP3   OH251445   2.777   5.166   4.573  0.1244 -0.2763 -0.1798
 9985TIP3    H151446   2.778   5.197   4.482 -0.9435 -0.5324 -0.2901
 9985TIP3    H251447   2.689   5.188   4.604 -0.2136 -1.9960  0.1501
 9986TIP3   OH251448   4.151   1.639   3.146  0.1317  0.3101  0.3269
 9986TIP3    H151449   4.153   1.734   3.136 -1.3232  0.3355  0.0543
 9986TIP3    H251450   4.098   1.625   3.224 -1.3959 -0.3118 -0.7871
 9987TIP3   OH251451   6.463   2.047  11.215 -0.3947 -0.0264 -0.2823
 9987TIP3    H151452   6.442   2.130  11.173  0.2196  0.0803 -0.3866
 9987TIP3    H251453   6.513   2.071  11.293  1.1259 -0.3521 -1.1305
 9988TIP3   OH251454   6.326   5.004   1.449 -0.6043 -0.0911  0.9072
 9988TIP3    H151455   6.249   4.956   1.479  1.2973 -2.1741  2.6746
 9988TIP3    H251456   6.379   5.017   1.528  2.5397 -1.9339 -0.7981
 9989TIP3   OH251457   1.743   2.183   4.923 -1.0699 -0.2641  0.4782
 9989TIP3    H151458   1.836   2.187   4.943 -0.4847  0.2644 -2.1886
 9989TIP3    H251459   1.726   2.089   4.909  0.1211  0.0185 -3.4844
 9990TIP3   OH251460   0.250   5.724   3.837  0.0268 -0.2080  0.2622
 9990TIP3    H151461   0.215   5.661   3.900  0.2292  0.4723  1.0664
 9990TIP3    H251462   0.328   5.760   3.880 -0.3741  0.9611  0.0404
 9991TIP3   OH251463   2.951   3.373  11.081  0.0159 -0.0294 -0.4032
 9991TIP3    H151464   2.955   3.281  11.108  0.1312  0.6126  1.9081
 9991TIP3    H251465   2.864   3.402  11.109 -0.3158  0.3889 -1.8111
 9992TIP3   OH251466   0.571   4.013   1.542 -0.2100  0.4685  0.0751
 9992TIP3    H151467   0.607   3.942   1.594  0.1139  1.0435  0.6420
 9992TIP3    H251468   0.605   3.999   1.454  0.0150  0.0399  0.2315
 9993TIP3   OH251469   6.800   2.843   4.763  0.4278  0.0666  0.1682
 9993TIP3    H151470   6.721   2.811   4.720  0.7162  0.1698 -0.4512
 9993TIP3    H251471   6.769   2.899   4.834 -0.0493  0.3936 -0.2997
 9994TIP3   OH251472   6.307   3.432  10.867 -0.0703 -0.2554 -0.4145
 9994TIP3    H151473   6.376   3.498  10.870  0.2453 -0.6388  0.8725
 9994TIP3    H251474   6.226   3.483  10.862  0.1549  0.2457  0.8883
 9995TIP3   OH251475   3.940   2.191   3.611  0.2122  0.4792 -0.2872
 9995TIP3    H151476   3.935   2.241   3.692  0.5251 -0.0817  0.0786
 9995TIP3    H251477   3.966   2.103   3.638 -1.3485 -0.1616 -0.8250
 9996TIP3   OH251478   6.638   5.162   1.031  0.3696  0.0626  0.4384
 9996TIP3    H151479   6.692   5.126   0.961  1.0597 -1.8083  1.8998
 9996TIP3    H251480   6.643   5.097   1.102 -0.8772  1.5682  1.9573
 9997TIP3   OH251481   0.681   5.358  12.152  0.0273 -0.1152 -0.4938
 9997TIP3    H151482   0.685   5.396  12.240  2.4322 -0.0822 -0.5817
 9997TIP3    H251483   0.588   5.354  12.132 -0.5461  0.0944  1.9645
 9998TIP3   OH251484   3.817   5.452   4.007  0.3991  0.1513  1.0002
 9998TIP3    H151485   3.765   5.467   4.086  0.8205 -0.9859  1.5055
 9998TIP3    H251486   3.835   5.358   4.008  1.0964  0.2672 -0.0253
 9999TIP3   OH251487   3.086   1.788   2.847  0.1085  0.1681 -0.6307
 9999TIP3    H151488   3.158   1.760   2.791 -0.0261  0.5387 -0.9890
 9999TIP3    H251489   3.065   1.876   2.817  2.6606  1.9545  2.5936
10000TIP3   OH251490   5.339   6.768  13.743 -0.2410  1.1043 -0.6106
10000TIP3    H151491   5.346   6.790  13.651 -0.8748 -0.4881 -1.0546
10000TIP3    H251492   5.363   6.676  13.748 -1.8149  0.7254  0.5692
10001TIP3   OH251493   4.941   5.805   4.362 -0.2894  0.1679 -0.2147
10001TIP3    H151494   5.018   5.842   4.320 -0.9056  0.9612 -0.6463
10001TIP3    H251495   4.966   5.798   4.455  1.3599 -2.3658 -0.8114
10002TIP3   OH251496   0.007   1.322   4.446  0.0463 -0.2293  0.2682
10002TIP3    H151497  -0.039   1.336   4.528 -0.8266 -0.9406 -0.1000
10002TIP3    H251498   0.053   1.239   4.458 -0.9718 -0.8857 -0.3668
10003TIP3   OH251499   3.009   1.885  13.786  0.2745 -0.1791  0.3251
10003TIP3    H151500   2.990   1.877  13.692  2.4153 -0.5862 -0.0862
10003TIP3    H251501   2.954   1.818  13.827  0.6620 -1.2033 -0.8075
10004TIP3   OH251502   1.091   6.652  15.923  0.1564 -0.6031  0.5826
10004TIP3    H151503   1.149   6.638  15.849  0.9713 -0.0027  1.0921
10004TIP3    H251504   1.007   6.616  15.895 -0.3680  2.2711 -1.7984
10005TIP3   OH251505   4.390   6.341   0.038 -0.2015 -0.2434 -0.4368
10005TIP3    H151506   4.382   6.435   0.050 -0.9584 -0.3614  0.0100
10005TIP3    H251507   4.332   6.303   0.104 -0.1483 -1.0164 -0.8277
10006TIP3   OH251508   2.946   0.104  12.749  0.1416 -0.8768  0.0288
10006TIP3    H151509   2.896   0.088  12.829  0.2483 -1.9293 -0.1129
10006TIP3    H251510   3.038   0.096  12.776  0.2633  0.9784  0.2744
10007TIP3   OH251511   5.178   2.282   6.585  0.3320 -0.6324  0.1594
10007TIP3    H151512   5.201   2.275   6.492  1.7463 -0.3859  0.4910
10007TIP3    H251513   5.172   2.376   6.602 -2.9210 -0.6789 -0.3943
10008TIP3   OH251514   5.153   6.782   3.622  0.2591 -0.3837 -0.3655
10008TIP3    H151515   5.094   6.740   3.686  0.7398 -1.8113 -0.8366
10008TIP3    H251516   5.134   6.875   3.630 -0.0746 -0.5835  1.4949
10009TIP3   OH251517   1.452   4.337  14.327  0.2398  0.0205 -0.4789
10009TIP3    H151518   1.443   4.332  14.423 -0.2337 -0.9012 -0.5770
10009TIP3    H251519   1.536   4.295  14.309  0.8286  1.1223 -0.3800
10010TIP3   OH251520   6.461   6.380   5.178 -0.3251  0.7107  0.1868
10010TIP3    H151521   6.552   6.410   5.177 -0.4933  1.3573  2.1238
10010TIP3    H251522   6.436   6.378   5.085  1.5720  0.7705 -0.3549
10011TIP3   OH251523   4.490   2.430  16.459  0.8621  0.5920 -0.1952
10011TIP3    H151524   4.524   2.451  16.372 -1.3788  0.7813 -1.0765
10011TIP3    H251525   4.412   2.376  16.441  0.6038  0.3219  1.6996
10012TIP3   OH251526   1.239   6.334  16.135  1.0421 -0.3607 -0.6782
10012TIP3    H151527   1.154   6.292  16.141  0.9309  0.0305  0.7823
10012TIP3    H251528   1.291   6.277  16.078  0.8028 -2.3088  1.0078
10013TIP3   OH251529   1.425   5.433   5.017  0.2101 -0.1890 -0.1238
10013TIP3    H151530   1.426   5.424   5.112  3.1447 -1.5343 -0.2259
10013TIP3    H251531   1.382   5.353   4.986 -1.0989  0.4294  0.0602
10014TIP3   OH251532   5.804   3.256   3.333  0.6710 -0.2105  0.2659
10014TIP3    H151533   5.787   3.269   3.426 -0.9811  0.5848 -0.1287
10014TIP3    H251534   5.882   3.200   3.330  0.7665 -0.1945  2.1138
10015TIP3   OH251535   4.525   5.796  10.206 -0.0963  0.1734 -0.1627
10015TIP3    H151536   4.476   5.842  10.275  0.8013  1.7136 -0.5076
10015TIP3    H251537   4.609   5.777  10.247 -1.2077 -3.1705  0.6905
10016TIP3   OH251538   4.687   1.327   5.829  0.4233 -0.2014 -0.4873
10016TIP3    H151539   4.653   1.324   5.919 -1.2536 -1.7680 -1.1346
10016TIP3    H251540   4.781   1.339   5.840  0.0705  1.0307  1.4413
10017TIP3   OH251541   1.385   0.920   5.298  0.2427  0.0952  0.2298
10017TIP3    H151542   1.470   0.949   5.331  0.1979  0.3425  0.1343
10017TIP3    H251543   1.359   0.850   5.357  0.1533  0.5521  0.7420
10018TIP3   OH251544   2.264   5.001  14.443  0.3212 -0.4489  0.2912
10018TIP3    H151545   2.268   4.986  14.537 -0.0929  0.6056  0.4868
10018TIP3    H251546   2.225   4.921  14.407  1.4193 -1.2638  0.8958
10019TIP3   OH251547   3.011   1.297   4.450  0.0295  0.8287 -0.4160
10019TIP3    H151548   3.040   1.242   4.378  0.6541 -1.9612  1.8779
10019TIP3    H251549   2.917   1.308   4.436 -0.0993 -0.8179 -0.9511
10020TIP3   OH251550   1.850   4.863  14.980  0.1962  0.2729  0.0295
10020TIP3    H151551   1.850   4.939  14.921  0.4438  0.2058 -0.0553
10020TIP3    H251552   1.924   4.877  15.038  0.4202 -0.0513 -0.1770
10021TIP3   OH251553   3.979   1.397  10.984 -0.4611  0.4324  0.2566
10021TIP3    H151554   4.000   1.490  10.988 -0.2786  0.3373  2.0307
10021TIP3    H251555   3.884   1.395  10.973 -0.6957  0.8556  1.9568
10022TIP3   OH251556   2.832   3.955   5.545  0.0333  0.1890 -0.4496
10022TIP3    H151557   2.789   3.903   5.612  0.5227 -0.1497 -0.3990
10022TIP3    H251558   2.766   4.020   5.519 -0.2495  0.1431  0.1533
10023TIP3   OH251559   0.222   2.242   2.582 -0.6865  0.0579 -0.2167
10023TIP3    H151560   0.298   2.261   2.526  0.5004 -0.6979  1.1070
10023TIP3    H251561   0.196   2.328   2.615  0.8844  0.1188  0.9374
10024TIP3   OH251562   2.497   4.645   2.847 -0.1709 -0.4618  0.1204
10024TIP3    H151563   2.495   4.739   2.834 -0.4179 -0.5863 -0.8138
10024TIP3    H251564   2.453   4.630   2.930  0.0824  0.2631  0.3834
10025TIP3   OH251565   1.149   1.333   0.644 -0.3080  0.4628  0.4430
10025TIP3    H151566   1.183   1.299   0.561 -1.3104  1.1891 -0.2851
10025TIP3    H251567   1.192   1.280   0.711  0.3834 -0.2563 -0.5440
10026TIP3   OH251568   5.754   0.486   1.154  0.0693 -0.2799  0.6266
10026TIP3    H151569   5.783   0.447   1.236  2.0355  0.8976  0.5256
10026TIP3    H251570   5.830   0.535   1.122 -2.0440  3.1091  0.4371
10027TIP3   OH251571   6.396   3.074   1.645  0.3413 -0.6204  0.2137
10027TIP3    H151572   6.322   3.021   1.615  0.5095 -0.0645 -1.2370
10027TIP3    H251573   6.374   3.096   1.736 -1.6287  0.1452 -0.4186
10028TIP3   OH251574   2.895   1.275   4.750  0.4649  0.1223  0.2277
10028TIP3    H151575   2.951   1.313   4.817  0.1722  0.2009  0.4305
10028TIP3    H251576   2.955   1.234   4.688  0.6990 -1.6236  1.5461
10029TIP3   OH251577   5.719   4.978   0.859 -0.2190  0.0927  0.2666
10029TIP3    H151578   5.724   4.946   0.769 -0.8869  2.5287 -0.6735
10029TIP3    H251579   5.741   5.071   0.853  0.9450  0.0295  2.8115
10030TIP3   OH251580   3.740   2.808  12.591  0.0888 -0.2084  0.3769
10030TIP3    H151581   3.721   2.717  12.612 -0.1332 -0.0526  0.8554
10030TIP3    H251582   3.703   2.858  12.664  2.0411  0.1173  1.1670
10031TIP3   OH251583   4.805   2.603   4.656 -0.4499 -0.5867 -0.3362
10031TIP3    H151584   4.756   2.574   4.579  0.4543 -1.7063 -0.5104
10031TIP3    H251585   4.789   2.697   4.660  0.3229 -0.3272 -2.5259
10032TIP3   OH251586   1.912   1.315   0.638 -0.3943  0.4203  0.5047
10032TIP3    H151587   1.836   1.373   0.634 -1.2951 -0.8154 -0.8263
10032TIP3    H251588   1.963   1.337   0.560 -0.9149 -0.7810 -0.1925
10033TIP3   OH251589   0.974   4.770  12.079  0.1601 -0.3166 -0.6503
10033TIP3    H151590   0.929   4.686  12.070  1.9864 -1.3970 -0.0010
10033TIP3    H251591   0.970   4.809  11.992 -1.4263 -0.6826 -0.7617
10034TIP3   OH251592   6.060   3.904   4.507 -0.2167  0.4757  0.1611
10034TIP3    H151593   6.035   3.983   4.556 -0.6373  0.4510 -0.0108
10034TIP3    H251594   6.077   3.935   4.418 -1.8444  0.1496 -0.2756
10035TIP3   OH251595   4.451   5.277   5.126 -0.3087 -0.3593 -0.1063
10035TIP3    H151596   4.415   5.297   5.040  1.3882  0.8252 -0.5728
10035TIP3    H251597   4.524   5.338   5.135 -0.2623 -0.7111  2.0338
10036TIP3   OH251598   6.688   6.120   1.416  0.1901  0.0072  0.0668
10036TIP3    H151599   6.638   6.047   1.378 -0.8521  0.2301  0.9911
10036TIP3    H251600   6.640   6.198   1.390 -0.6436  0.1541  1.9601
10037TIP3   OH251601   5.697   5.404  15.579 -0.5772 -0.3251  0.1106
10037TIP3    H151602   5.650   5.451  15.510  0.3272  2.8501  1.5957
10037TIP3    H251603   5.631   5.387  15.646 -0.8365 -0.9284 -0.2930
10038TIP3   OH251604   3.202   1.900  10.648 -0.2769 -0.0902 -0.3985
10038TIP3    H151605   3.122   1.910  10.596 -1.1998 -2.0232  0.5961
10038TIP3    H251606   3.255   1.837  10.600 -0.6904 -1.1072  0.4599
10039TIP3   OH251607   2.875   4.797  15.414 -0.0697  0.1304  0.2148
10039TIP3    H151608   2.863   4.707  15.384  0.2198  0.5316 -1.1525
10039TIP3    H251609   2.904   4.845  15.336  0.2603  1.3070  1.0374
10040TIP3   OH251610   3.812   0.269  12.015 -0.0595 -0.1296  0.4515
10040TIP3    H151611   3.832   0.363  12.014 -1.6352  0.2130  0.3858
10040TIP3    H251612   3.746   0.258  11.947  1.0479 -1.5096 -0.4111
10041TIP3   OH251613   4.379   3.368  11.963  0.2020  0.5712 -0.5047
10041TIP3    H151614   4.438   3.296  11.987  0.8939  1.0606 -0.7221
10041TIP3    H251615   4.319   3.375  12.037 -0.5846 -0.9586 -0.9631
10042TIP3   OH251616   2.887   3.717  13.201  0.1185 -0.0127 -0.0227
10042TIP3    H151617   2.918   3.800  13.164 -0.6765 -0.0586 -0.8023
10042TIP3    H251618   2.792   3.723  13.196  0.0231 -0.3184  1.3925
10043TIP3   OH251619   4.780   3.896  17.117 -0.3796  0.2387 -0.1142
10043TIP3    H151620   4.716   3.836  17.154  0.3188 -1.1595 -1.1248
10043TIP3    H251621   4.729   3.949  17.055 -1.1759  1.3322  1.4512
10044TIP3   OH251622   0.158   0.234   3.372 -0.6504  0.3337 -0.3140
10044TIP3    H151623   0.082   0.177   3.385 -0.3467  0.1510  0.7221
10044TIP3    H251624   0.184   0.259   3.460  0.4464  0.4559 -0.6622
10045TIP3   OH251625   5.829   4.561  15.165  0.0637  0.6230  0.0150
10045TIP3    H151626   5.786   4.514  15.237 -0.1562 -1.2167 -1.2880
10045TIP3    H251627   5.909   4.512  15.149 -0.2987  0.5442 -1.5622
10046TIP3   OH251628   1.781   4.428   3.673 -0.9490  0.8410 -0.0070
10046TIP3    H151629   1.859   4.476   3.700 -1.1067  0.7144  0.6651
10046TIP3    H251630   1.807   4.384   3.592 -0.3783  0.9396  0.1248
10047TIP3   OH251631   2.091   1.448  14.102  0.1910 -0.1200 -0.1491
10047TIP3    H151632   2.051   1.497  14.031 -1.2264 -0.5274  0.3525
10047TIP3    H251633   2.177   1.487  14.113 -0.3633  1.2773 -0.7206
10048TIP3   OH251634   5.352   3.940  16.692 -0.0421  0.1343 -0.0355
10048TIP3    H151635   5.357   3.913  16.601 -2.3275 -1.9800  0.4210
10048TIP3    H251636   5.418   4.009  16.700 -0.1388  0.7099 -3.3957
10049TIP3   OH251637   1.836   6.110   4.825 -0.2760 -0.1842 -0.3494
10049TIP3    H151638   1.770   6.080   4.887 -0.6817  1.4074  0.0034
10049TIP3    H251639   1.809   6.071   4.741  0.5732 -2.7718  0.5244
10050TIP3   OH251640   3.076   6.035  13.122  0.3581 -0.4179 -0.1114
10050TIP3    H151641   3.051   6.085  13.200 -0.4709 -0.8417 -0.1042
10050TIP3    H251642   3.014   5.962  13.120 -1.3901  1.0701 -2.7172
10051TIP3   OH251643   4.635   2.348  14.662 -0.1699  0.5108 -0.3973
10051TIP3    H151644   4.577   2.416  14.629 -2.2589 -1.4631 -0.8373
10051TIP3    H251645   4.609   2.269  14.616  1.1402 -0.9476  1.2994
10052TIP3   OH251646   2.815   1.819  11.151 -0.5773 -0.1425  0.7144
10052TIP3    H151647   2.798   1.887  11.216 -0.4677  0.3578  0.2303
10052TIP3    H251648   2.733   1.769  11.146 -0.4654 -0.4084  1.4910
10053TIP3   OH251649   3.102   1.338  11.384  0.2557  0.2634 -0.1570
10053TIP3    H151650   3.069   1.274  11.447 -1.6628  0.6423 -0.7495
10053TIP3    H251651   3.100   1.292  11.300 -1.7199  1.2646 -0.6901
10054TIP3   OH251652   2.276   5.495   0.034  0.4046  0.1206  0.0922
10054TIP3    H151653   2.238   5.435  -0.030 -1.1031  1.2464 -0.1015
10054TIP3    H251654   2.241   5.466   0.118  2.9696 -1.8229  0.5742
10055TIP3   OH251655   5.755   2.429   0.153 -0.1462  1.0956  0.0140
10055TIP3    H151656   5.848   2.432   0.134  0.0832 -0.1527  0.9101
10055TIP3    H251657   5.750   2.426   0.249 -1.0362 -0.8784 -0.0724
10056TIP3   OH251658   4.578   0.345  12.372  0.0454  0.8899 -0.1672
10056TIP3    H151659   4.527   0.324  12.294  1.8153  0.7440 -1.3021
10056TIP3    H251660   4.645   0.277  12.377  1.2608  2.0968  0.2865
10057TIP3   OH251661   5.442   1.695   4.090 -0.0906 -0.4366 -0.0962
10057TIP3    H151662   5.536   1.690   4.070 -0.4160 -0.9355 -1.5055
10057TIP3    H251663   5.438   1.751   4.167  1.2436  0.8009 -0.8989
10058TIP3   OH251664   3.204   2.440  14.438  0.8903 -0.1565 -0.0333
10058TIP3    H151665   3.293   2.468  14.459  1.7586 -0.5919 -2.9154
10058TIP3    H251666   3.212   2.348  14.416 -0.4113 -0.3870  0.4404
10059TIP3   OH251667   2.906   3.311  12.551  0.1729  0.4516 -0.3784
10059TIP3    H151668   2.909   3.405  12.569  0.8427  0.6952 -1.6939
10059TIP3    H251669   2.858   3.304  12.469 -0.2206 -0.4005 -0.0860
10060TIP3   OH251670   4.860   1.099  14.425  0.2192  0.3918  0.0785
10060TIP3    H151671   4.948   1.071  14.450  0.8106  0.9585 -1.3213
10060TIP3    H251672   4.871   1.188  14.391 -0.9929  0.7129  0.4780
10061TIP3   OH251673   3.535   4.456  13.729  0.1041  0.2505  0.5643
10061TIP3    H151674   3.626   4.468  13.755  1.3466 -1.4268 -2.6789
10061TIP3    H251675   3.535   4.473  13.635 -2.5100 -1.7930  0.1313
10062TIP3   OH251676   4.902   5.390   2.148  0.5938 -0.1096  0.1743
10062TIP3    H151677   4.899   5.358   2.058  0.8439  1.9078 -0.5742
10062TIP3    H251678   4.815   5.372   2.183  0.5252 -0.9805 -0.4367
10063TIP3   OH251679   5.856   5.042   3.254  0.1475 -0.2280  0.3674
10063TIP3    H151680   5.883   4.951   3.242 -1.9515 -1.0797  1.8560
10063TIP3    H251681   5.835   5.048   3.347  0.2900  1.8050  0.2801
10064TIP3   OH251682   0.445   5.758   3.373  0.2343  0.3797 -0.0535
10064TIP3    H151683   0.396   5.841   3.369 -2.0407 -0.9452 -0.5763
10064TIP3    H251684   0.436   5.731   3.465 -0.1212  0.0853 -0.1737
10065TIP3   OH251685   2.032   2.160   0.499 -0.0730  0.1964  0.4593
10065TIP3    H151686   2.065   2.091   0.556 -1.6565 -1.2401 -0.3405
10065TIP3    H251687   2.086   2.155   0.420 -1.4828 -1.4618 -0.4190
10066TIP3   OH251688   0.168   3.797   5.876 -0.0995  0.4747 -0.1497
10066TIP3    H151689   0.105   3.858   5.914  0.0057 -0.5324  1.7293
10066TIP3    H251690   0.123   3.713   5.875  0.6993  0.0379 -0.1346
10067TIP3   OH251691   1.462   1.334  11.862 -0.4115  0.0449  0.2474
10067TIP3    H151692   1.476   1.283  11.782 -1.6633  2.8155 -1.8092
10067TIP3    H251693   1.367   1.340  11.871 -0.2779  0.8625  1.2105
10068TIP3   OH251694   4.010   4.510  16.249  0.0586 -0.4130 -0.4464
10068TIP3    H151695   4.049   4.581  16.199  1.0166 -1.1917 -0.8268
10068TIP3    H251696   4.014   4.539  16.340 -0.4993  0.4531 -0.6983
10069TIP3   OH251697   4.238   4.537   2.014  0.0595 -0.0887 -0.0451
10069TIP3    H151698   4.321   4.525   2.059  0.1093  0.0188 -0.1085
10069TIP3    H251699   4.236   4.466   1.949 -0.0550 -0.2986  0.1877
10070TIP3   OH251700   0.829   0.650   2.894 -0.4559  0.2498 -0.1883
10070TIP3    H151701   0.831   0.711   2.968 -0.0037 -1.4765  1.2537
10070TIP3    H251702   0.859   0.567   2.931 -0.8786 -0.8038 -2.1662
10071TIP3   OH251703   5.326   0.052  15.528  0.2512  0.4331 -0.0940
10071TIP3    H151704   5.395  -0.009  15.504 -0.9906 -0.9933 -0.1265
10071TIP3    H251705   5.264   0.000  15.580 -2.1518  0.9573 -2.3028
10072TIP3   OH251706   2.497   4.732  15.876 -0.1858  0.5818 -0.4673
10072TIP3    H151707   2.459   4.702  15.794  0.3360  0.0044 -0.5049
10072TIP3    H251708   2.423   4.768  15.925 -0.7486 -0.3485 -0.6133
10073TIP3   OH251709   3.397   1.469  17.186  0.2342 -0.5108 -0.1589
10073TIP3    H151710   3.433   1.523  17.115  1.8765 -2.4637 -0.8642
10073TIP3    H251711   3.446   1.495  17.263  0.5460 -0.4869 -0.3600
10074TIP3   OH251712   4.932   0.556   5.598 -0.3109  0.2351 -0.0315
10074TIP3    H151713   4.951   0.643   5.563  1.9847 -0.0482  0.3874
10074TIP3    H251714   4.952   0.497   5.525  1.1083 -0.1150  0.6117
10075TIP3   OH251715   3.720   0.623   1.918 -0.7002 -0.4336  0.3203
10075TIP3    H151716   3.724   0.560   1.990 -1.0382  0.9847  1.6062
10075TIP3    H251717   3.810   0.653   1.908 -0.1882 -2.5091 -1.5789
10076TIP3   OH251718   6.218   3.765  15.301 -0.5360 -0.1633 -0.5139
10076TIP3    H151719   6.252   3.726  15.221 -1.8246  0.6684 -1.4819
10076TIP3    H251720   6.264   3.849  15.307 -1.0161  0.1251 -0.8152
10077TIP3   OH251721   6.608   5.199   6.295  0.0161 -0.7326  0.5172
10077TIP3    H151722   6.642   5.280   6.335 -0.4400  0.7479 -1.9871
10077TIP3    H251723   6.673   5.177   6.228 -1.5546 -0.5110 -1.1104
10078TIP3   OH251724   4.286   0.170  15.926  0.1828 -0.0720 -0.3223
10078TIP3    H151725   4.261   0.082  15.897 -0.8062  0.0508  0.1319
10078TIP3    H251726   4.344   0.202  15.857 -0.0206 -0.8026 -0.8428
10079TIP3   OH251727   1.297   0.821  11.558  0.3532  0.1355 -0.1312
10079TIP3    H151728   1.378   0.794  11.514  0.9670 -0.1571  1.1345
10079TIP3    H251729   1.227   0.786  11.503  1.0603  1.2529 -1.7880
10080TIP3   OH251730   5.899   2.156   3.549  0.3768 -0.0629 -0.3737
10080TIP3    H151731   5.912   2.080   3.606  0.3584 -0.5689 -1.0426
10080TIP3    H251732   5.817   2.138   3.503  0.2165  0.5029 -0.3187
10081TIP3   OH251733   3.351   6.785   3.438 -0.1250 -0.8948  0.0749
10081TIP3    H151734   3.257   6.796   3.423 -0.2511 -0.2025  1.2934
10081TIP3    H251735   3.357   6.703   3.488 -0.0200 -1.2584 -0.5256
10082TIP3   OH251736   0.148   5.219   3.149 -0.0939 -0.0211 -0.0446
10082TIP3    H151737   0.149   5.139   3.203 -1.7035 -0.3169 -0.4057
10082TIP3    H251738   0.106   5.285   3.204  1.1281  0.5403  0.2092
10083TIP3   OH251739   1.065   5.126   5.726  0.8156  0.8563  0.2012
10083TIP3    H151740   1.086   5.217   5.705  0.8931  0.8273  0.1538
10083TIP3    H251741   1.122   5.105   5.800 -1.0274  1.6420  1.8935
10084TIP3   OH251742   6.438   1.753   5.404 -0.1718 -0.0670  0.5429
10084TIP3    H151743   6.501   1.755   5.476 -0.0529 -2.1011  0.5393
10084TIP3    H251744   6.405   1.842   5.397  0.5838  0.3709  2.4465
10085TIP3   OH251745   0.269   2.935  11.982  0.1227 -0.0759  0.5638
10085TIP3    H151746   0.184   2.932  11.938 -0.0047  0.1509  0.7891
10085TIP3    H251747   0.264   2.866  12.048 -0.1346  0.3631  1.0122
10086TIP3   OH251748   6.678   3.031  12.264  0.3060 -0.2229  0.0634
10086TIP3    H151749   6.707   3.070  12.347 -0.5254  0.6743 -0.0523
10086TIP3    H251750   6.585   3.013  12.278  0.2993 -0.6092 -0.4763
10087TIP3   OH251751   2.055   0.540   1.485  0.3834  0.1311  0.1035
10087TIP3    H151752   2.084   0.450   1.494 -0.2636 -0.0022  0.9539
10087TIP3    H251753   2.028   0.548   1.393 -2.0158 -1.3087  0.6346
10088TIP3   OH251754   3.070   0.887   4.068 -0.1308  0.7993  0.4585
10088TIP3    H151755   3.037   0.810   4.114 -0.6448  1.4029  1.1115
10088TIP3    H251756   2.993   0.944   4.059  0.4694  1.6811  0.8938
10089TIP3   OH251757   0.828   4.560  16.349 -0.1411 -0.2989 -0.1504
10089TIP3    H151758   0.855   4.471  16.370 -0.5824 -0.5320 -0.5902
10089TIP3    H251759   0.737   4.566  16.380  0.3386  0.4407  1.1969
10090TIP3   OH251760   6.074   4.625   2.622 -0.2892 -0.6266 -0.3822
10090TIP3    H151761   6.155   4.650   2.666 -0.4770 -1.3458  0.3767
10090TIP3    H251762   6.037   4.708   2.592  0.6171 -0.2748 -0.5507
10091TIP3   OH251763   1.402   6.793   5.510  0.8548 -0.0473  0.4547
10091TIP3    H151764   1.348   6.851   5.564  1.5777 -0.5397  1.7302
10091TIP3    H251765   1.351   6.780   5.430 -0.0815  0.9650  0.8776
10092TIP3   OH251766   5.976   4.211  16.157 -0.0359 -0.3203  0.0270
10092TIP3    H151767   5.969   4.205  16.062 -1.4460 -0.6991  0.1475
10092TIP3    H251768   5.903   4.267  16.184  0.3065 -0.2733  0.8924
10093TIP3   OH251769   4.923   0.595  17.239 -0.1663 -0.4472  0.2649
10093TIP3    H151770   4.912   0.585  17.333 -1.8642  0.8670  0.2423
10093TIP3    H251771   5.016   0.581  17.223 -0.0400 -1.6428  2.0059
10094TIP3   OH251772   4.774   6.156   4.077 -0.6336 -0.2036  0.3477
10094TIP3    H151773   4.830   6.087   4.113 -0.1315 -0.3959 -0.7775
10094TIP3    H251774   4.709   6.172   4.145 -1.3528 -2.4714  0.2346
10095TIP3   OH251775   2.907   0.856  15.517 -0.2706  0.2486  0.4591
10095TIP3    H151776   2.947   0.795  15.578 -0.0173  0.0582  0.0993
10095TIP3    H251777   2.891   0.935  15.569  0.4831  0.2928  0.6252
10096TIP3   OH251778   5.783   5.123  14.831 -0.4283  0.1599 -0.0255
10096TIP3    H151779   5.796   5.030  14.846  1.9727  0.2930 -1.0441
10096TIP3    H251780   5.730   5.153  14.905 -0.7377 -1.8886  0.5913
10097TIP3   OH251781   2.729   0.196   3.452 -0.1618  0.5407 -0.0079
10097TIP3    H151782   2.728   0.209   3.357 -0.2013  0.0424 -0.0759
10097TIP3    H251783   2.638   0.185   3.476  0.0844 -2.6600 -0.3810
10098TIP3   OH251784   6.267   0.294   3.559 -0.0519 -0.0378  0.1938
10098TIP3    H151785   6.265   0.282   3.464 -1.5660 -0.7656  0.2982
10098TIP3    H251786   6.175   0.298   3.585  0.3510  0.9873  1.5393
10099TIP3   OH251787   0.976   6.307  13.799  0.1533 -1.0897 -0.9586
10099TIP3    H151788   0.952   6.382  13.853 -2.2171 -0.4189 -2.8888
10099TIP3    H251789   0.979   6.234  13.861 -2.2278 -0.2956  0.1725
10100TIP3   OH251790   3.073   1.923   6.408  0.7589 -0.5486  0.1009
10100TIP3    H151791   3.080   1.943   6.501 -0.8513  1.6885 -0.2170
10100TIP3    H251792   3.128   1.988   6.365  0.1019 -0.4334 -0.5954
10101TIP3   OH251793   1.586   3.470  16.288 -0.6141 -0.0176  0.7281
10101TIP3    H151794   1.673   3.470  16.328 -0.5007  1.3985  0.4857
10101TIP3    H251795   1.598   3.514  16.204 -1.5719  0.2060  0.7034
10102TIP3   OH251796   3.706   1.032  11.721  0.4589  0.4843  0.6815
10102TIP3    H151797   3.689   1.126  11.713  0.4287  0.4196 -0.0363
10102TIP3    H251798   3.622   0.993  11.744  0.9986  0.9391  3.6341
10103TIP3   OH251799   3.552   6.149  12.854 -0.1921  0.5186  0.1502
10103TIP3    H151800   3.579   6.234  12.820  1.2772 -0.2587 -0.6702
10103TIP3    H251801   3.608   6.135  12.931 -1.0842  0.7046  0.8453
10104TIP3   OH251802   4.545   3.712  11.474 -0.4056 -0.1733  1.3316
10104TIP3    H151803   4.494   3.631  11.463 -0.0286 -0.1961 -0.2862
10104TIP3    H251804   4.479   3.781  11.474 -0.6327 -0.3876  1.5662
10105TIP3   OH251805   4.960   6.179   6.074 -0.0538  0.4560 -0.0525
10105TIP3    H151806   4.955   6.084   6.077  0.7571  0.3644 -1.2308
10105TIP3    H251807   5.010   6.203   6.152  0.9523 -0.1914 -0.4842
10106TIP3   OH251808   2.695   5.692   5.092 -0.0355 -0.1797  0.1976
10106TIP3    H151809   2.660   5.755   5.155 -2.3848 -0.5811 -0.6872
10106TIP3    H251810   2.770   5.737   5.053 -0.4400  1.2704  1.0643
10107TIP3   OH251811   6.736   0.681   0.190 -0.0783  0.0457 -0.3716
10107TIP3    H151812   6.657   0.665   0.139  0.5368 -0.4160 -1.1976
10107TIP3    H251813   6.745   0.604   0.247  0.6906 -0.6923 -1.4796
10108TIP3   OH251814   5.345   0.838  16.480 -0.0392  0.5288 -0.0778
10108TIP3    H151815   5.376   0.811  16.567 -0.1086  1.4472  0.2319
10108TIP3    H251816   5.420   0.881  16.440 -0.1250  0.4405 -0.3360
10109TIP3   OH251817   4.624   5.667  15.511  0.1590  0.2464 -0.4302
10109TIP3    H151818   4.658   5.578  15.499 -0.9567 -0.6001  2.2419
10109TIP3    H251819   4.665   5.718  15.442  1.4044 -2.2019 -1.5556
10110TIP3   OH251820   1.673   4.145   4.875  0.1895  0.5349 -0.1845
10110TIP3    H151821   1.651   4.160   4.784  0.7677  0.2043 -0.3819
10110TIP3    H251822   1.595   4.172   4.924 -0.4365 -0.0968 -0.8267
10111TIP3   OH251823   4.548   2.649  11.680 -0.4059 -0.0968  0.0733
10111TIP3    H151824   4.564   2.557  11.656  0.6724  0.4991 -1.6253
10111TIP3    H251825   4.552   2.650  11.775 -0.4538 -1.8210  0.1159
10112TIP3   OH251826   4.364   5.571  10.911 -0.2298 -0.1314 -0.3190
10112TIP3    H151827   4.269   5.558  10.901 -0.3799 -0.6586  1.6215
10112TIP3    H251828   4.390   5.617  10.832 -2.2979  1.0055 -0.3729
10113TIP3   OH251829   0.683   3.417   6.324  0.2975 -0.0984 -0.0476
10113TIP3    H151830   0.632   3.360   6.382  0.5803 -1.3635 -1.0086
10113TIP3    H251831   0.645   3.504   6.336 -0.3769 -0.5577  1.1854
10114TIP3   OH251832   6.443   0.100   6.213  0.6343 -0.1613 -0.1938
10114TIP3    H151833   6.442   0.182   6.262 -0.5771 -0.5555  0.4688
10114TIP3    H251834   6.465   0.125   6.123 -0.0882  0.9293 -0.0704
10115TIP3   OH251835   5.585   1.086   1.147  0.5540 -0.0360 -0.0114
10115TIP3    H151836   5.674   1.065   1.118  0.8690 -0.1051  0.9708
10115TIP3    H251837   5.562   1.164   1.098  0.7765 -0.5887 -1.0041
10116TIP3   OH251838   6.390   4.405   3.298 -0.0052 -0.0464  0.0120
10116TIP3    H151839   6.462   4.466   3.314 -1.6999  2.9633 -3.1672
10116TIP3    H251840   6.388   4.396   3.203 -2.5630 -1.6484  0.1963
10117TIP3   OH251841   1.203   0.815   2.451  0.3296  0.4862  0.4269
10117TIP3    H151842   1.176   0.876   2.383 -0.5305  0.0437  0.3646
10117TIP3    H251843   1.293   0.841   2.473  0.2256  1.3026 -0.1102
10118TIP3   OH251844   0.627   6.368  13.570  0.6610  0.4500 -0.3028
10118TIP3    H151845   0.604   6.303  13.637 -0.1495  1.7003  0.6573
10118TIP3    H251846   0.700   6.329  13.523  1.0728 -0.5670  1.1390
10119TIP3   OH251847   3.259   2.073  12.351  0.3650 -0.9227  0.0741
10119TIP3    H151848   3.242   2.032  12.436 -2.1267 -2.1863 -0.9629
10119TIP3    H251849   3.172   2.097  12.319  1.3836  0.6898 -1.5623
10120TIP3   OH251850   4.697   3.450  13.104  0.1924  0.1421  0.6684
10120TIP3    H151851   4.634   3.460  13.032  0.5111 -0.7078  0.2656
10120TIP3    H251852   4.643   3.425  13.179 -0.0208 -0.0107  0.4682
10121TIP3   OH251853   4.094   1.734  10.639  0.0480  0.2000 -0.2845
10121TIP3    H151854   4.040   1.706  10.713  0.2942  1.4537  0.3965
10121TIP3    H251855   4.177   1.689  10.651  0.0743  0.3705  0.1934
10122TIP3   OH251856   5.472   5.331  11.304 -0.5202 -0.1738 -0.0625
10122TIP3    H151857   5.400   5.325  11.241 -0.1610 -1.0875 -0.3950
10122TIP3    H251858   5.429   5.346  11.388 -1.0453  0.2895 -0.4135
10123TIP3   OH251859   5.109   3.965   4.432 -0.1552  0.0135  0.2380
10123TIP3    H151860   5.189   3.924   4.400 -0.5373  1.3169 -2.5244
10123TIP3    H251861   5.116   4.057   4.405 -0.9621  1.0038  3.1442
10124TIP3   OH251862   2.697   5.011  13.956  0.6798 -0.4088 -0.0341
10124TIP3    H151863   2.611   4.991  13.918 -1.1049  0.7507  3.1697
10124TIP3    H251864   2.704   5.106  13.951  1.7915 -0.4913 -0.2414
10125TIP3   OH251865   5.084   5.618  14.824  0.0202 -0.0278  0.0594
10125TIP3    H151866   5.172   5.582  14.840 -1.1411 -1.9466  2.4622
10125TIP3    H251867   5.039   5.550  14.774 -0.7061  0.1161  0.5179
10126TIP3   OH251868   3.231   6.294  13.462  0.2609 -0.2025 -0.1920
10126TIP3    H151869   3.200   6.384  13.468 -2.4044 -1.0284 -0.7088
10126TIP3    H251870   3.271   6.288  13.376 -1.7494 -0.1240 -1.1603
10127TIP3   OH251871   3.661   3.175   2.839 -0.4933  0.0340  0.1151
10127TIP3    H151872   3.653   3.082   2.859  2.2684 -0.3265 -0.1618
10127TIP3    H251873   3.624   3.219   2.915 -0.1589 -1.3072  1.0750
10128TIP3   OH251874   2.018   6.325  10.977  0.2634 -0.4994  0.3909
10128TIP3    H151875   2.058   6.347  10.893 -1.3573 -1.3764 -0.6330
10128TIP3    H251876   1.926   6.351  10.968 -0.2993 -2.1090  1.2905
10129TIP3   OH251877   2.456   1.342   3.070  0.3385 -0.1195 -0.0116
10129TIP3    H151878   2.542   1.303   3.083  1.8437  3.0516 -0.0644
10129TIP3    H251879   2.420   1.352   3.158  1.9049  2.5549  0.3632
10130TIP3   OH251880   0.557   0.092  11.589  0.5996  0.0774  0.3231
10130TIP3    H151881   0.501   0.073  11.515  1.7445  0.2693 -0.6114
10130TIP3    H251882   0.642   0.116  11.550  1.4105 -0.4836  1.6958
10131TIP3   OH251883   3.983   0.073  15.263  0.6871  0.8031  0.0685
10131TIP3    H151884   3.962   0.012  15.192  0.6540  0.7622  0.1137
10131TIP3    H251885   3.900   0.085  15.309  0.4995  1.5612 -0.4682
10132TIP3   OH251886   0.740   1.031   0.970  0.6112 -0.1238 -0.0469
10132TIP3    H151887   0.700   1.069   0.892 -1.6719  1.2903  1.7153
10132TIP3    H251888   0.765   0.942   0.944 -0.1686  0.2894 -2.3369
10133TIP3   OH251889   2.976   5.666   0.175  0.2513 -0.2123  0.5704
10133TIP3    H151890   2.904   5.725   0.154  1.0586  0.9798  1.1039
10133TIP3    H251891   3.024   5.710   0.245  2.1031 -0.5062 -0.4811
10134TIP3   OH251892   6.507   5.840   2.042  0.3635 -0.0955 -0.4492
10134TIP3    H151893   6.536   5.900   2.110  0.9234 -2.3310  1.3326
10134TIP3    H251894   6.417   5.818   2.066  0.7092 -1.2266 -0.1970
10135TIP3   OH251895   0.216   3.750  11.815  0.3104  0.7700  0.2963
10135TIP3    H151896   0.175   3.764  11.729 -1.3680  1.1286  1.1407
10135TIP3    H251897   0.152   3.782  11.878  0.8379 -1.0051  1.7837
10136TIP3   OH251898   0.030   3.411   0.263  0.5936  0.1515 -0.3075
10136TIP3    H151899   0.064   3.459   0.338 -2.0937 -1.5956  2.1266
10136TIP3    H251900  -0.044   3.464   0.233 -0.1397 -0.6247  0.1223
10137TIP3   OH251901   2.746   6.623  12.954 -0.5537  0.0327  0.1758
10137TIP3    H151902   2.819   6.562  12.964 -1.7492 -1.3242  0.7201
10137TIP3    H251903   2.725   6.620  12.860  0.0165  0.3374  0.0383
10138TIP3   OH251904   3.561   3.075  14.703  0.1386 -0.6304 -0.0683
10138TIP3    H151905   3.656   3.080  14.691  0.0527  1.7391 -0.0120
10138TIP3    H251906   3.546   3.106  14.792 -0.7433 -0.2517 -0.3435
10139TIP3   OH251907   2.687   1.377   2.821 -0.3210  0.0756 -0.0244
10139TIP3    H151908   2.643   1.462   2.824  1.0120  0.9606 -2.9950
10139TIP3    H251909   2.748   1.379   2.894  1.5920  2.8466 -1.5662
10140TIP3   OH251910   6.079   5.473  14.878 -0.2665  0.3642  1.2762
10140TIP3    H151911   6.045   5.385  14.864  2.9937 -0.9571  1.2834
10140TIP3    H251912   6.082   5.512  14.790  0.2491 -0.2733  1.0108
10141TIP3   OH251913   3.351   3.274   1.119 -0.2335 -0.2051  0.0906
10141TIP3    H151914   3.399   3.340   1.169 -0.3016 -0.5001  0.5523
10141TIP3    H251915   3.291   3.235   1.183 -1.0268  0.1059 -0.4608
10142TIP3   OH251916   4.182   3.814  15.270 -0.6828 -0.2078 -0.3163
10142TIP3    H151917   4.133   3.819  15.352  2.0947 -0.8857  1.4397
10142TIP3    H251918   4.167   3.725  15.239  0.4090 -0.8345  0.8838
10143TIP3   OH251919   3.541   1.108  10.823  0.0312 -0.0213  0.1609
10143TIP3    H151920   3.522   1.129  10.732 -0.9013 -1.5311 -0.0048
10143TIP3    H251921   3.485   1.168  10.874  0.1798  0.4731 -0.2576
10144TIP3   OH251922   1.190   3.268   0.534 -0.4011  0.1034  0.0915
10144TIP3    H151923   1.104   3.283   0.494 -0.4915  0.5696  0.4591
10144TIP3    H251924   1.172   3.209   0.608  0.0296 -2.3520 -1.6882
10145TIP3   OH251925   3.743   5.814  16.597 -0.2617 -0.2201  0.3283
10145TIP3    H151926   3.737   5.848  16.507 -0.4249 -1.6192 -0.2044
10145TIP3    H251927   3.830   5.775  16.602  0.0013  0.4655  0.9943
10146TIP3   OH251928   3.051   2.361   3.794  0.2947  0.2326 -0.6167
10146TIP3    H151929   3.054   2.280   3.845 -1.0335 -0.5276 -1.7026
10146TIP3    H251930   2.998   2.420   3.848  3.2284  1.2145  1.2782
10147TIP3   OH251931   3.607   1.187  14.108  0.2459 -0.0527  0.4765
10147TIP3    H151932   3.639   1.245  14.177 -0.0990 -0.5163  1.0328
10147TIP3    H251933   3.530   1.145  14.147 -0.0929 -0.1393 -0.2763
10148TIP3   OH251934   1.748   5.139   5.561 -0.8098 -0.4356 -0.1690
10148TIP3    H151935   1.806   5.158   5.634 -0.9775  0.4360 -0.2581
10148TIP3    H251936   1.804   5.146   5.484 -0.8170 -0.5340 -0.1832
10149TIP3   OH251937   2.176   3.758   2.616 -0.3345  0.7039 -0.4941
10149TIP3    H151938   2.197   3.823   2.683  0.2639 -0.6487  0.6771
10149TIP3    H251939   2.087   3.780   2.588 -0.5810  1.3197  0.7339
10150TIP3   OH251940   5.000   1.948  13.573 -0.1146 -0.4056  0.4725
10150TIP3    H151941   5.027   1.981  13.658  0.6274 -1.4159  0.6392
10150TIP3    H251942   4.932   1.884  13.592 -1.0725  0.5152  0.1920
10151TIP3   OH251943   1.783   3.256  12.250 -0.1651 -0.3528  0.0252
10151TIP3    H151944   1.850   3.291  12.308 -0.3710 -1.3064  0.8486
10151TIP3    H251945   1.788   3.311  12.171  0.3922  0.6796  0.7747
10152TIP3   OH251946   0.833   5.574   3.861 -0.1101  0.4147  0.5316
10152TIP3    H151947   0.830   5.523   3.779 -0.8654  1.0274  0.1671
10152TIP3    H251948   0.811   5.511   3.929 -1.3879  0.3192  0.0434
10153TIP3   OH251949   5.556   1.783  14.592 -0.0932 -0.3527 -0.0077
10153TIP3    H151950   5.630   1.844  14.595 -0.5734  0.1914  1.8703
10153TIP3    H251951   5.499   1.812  14.664 -0.2676 -3.0618  1.0088
10154TIP3   OH251952   5.624   2.049   5.387  0.1822 -0.3220 -0.1686
10154TIP3    H151953   5.634   2.142   5.409 -1.0088 -0.2905  0.2799
10154TIP3    H251954   5.597   2.007   5.469  1.4790 -1.2052 -0.1812
10155TIP3   OH251955   0.542   5.410   2.702 -0.2357  0.1918 -0.2870
10155TIP3    H151956   0.559   5.318   2.724  0.5431  0.7053  1.3321
10155TIP3    H251957   0.597   5.427   2.627 -0.3177 -0.6394 -0.5496
10156TIP3   OH251958   4.300   5.827   0.005 -0.0670 -0.5908 -0.4090
10156TIP3    H151959   4.285   5.919  -0.017 -2.0704 -0.8371 -0.1492
10156TIP3    H251960   4.357   5.830   0.082  2.5441  0.3506 -2.2795
10157TIP3   OH251961   0.047   3.007  16.825 -0.3305 -0.4659  0.6270
10157TIP3    H151962   0.072   3.097  16.843  0.2098 -0.3702 -0.5782
10157TIP3    H251963   0.097   2.954  16.888  0.8210 -0.0712  0.0523
10158TIP3   OH251964   4.651   0.782   5.147 -0.0014 -0.6174 -0.8695
10158TIP3    H151965   4.567   0.782   5.101 -1.0656  0.0337  1.0145
10158TIP3    H251966   4.697   0.860   5.114 -0.4402 -0.5556 -1.3384
10159TIP3   OH251967   1.837   2.613   5.112  0.0752  0.3077  0.3733
10159TIP3    H151968   1.851   2.670   5.188 -1.6279  1.5590 -0.2085
10159TIP3    H251969   1.754   2.570   5.129  0.4796 -0.6356 -0.0347
10160TIP3   OH251970   0.392   1.075   4.321 -0.1698 -0.6106 -0.0533
10160TIP3    H151971   0.468   1.110   4.367 -1.1421  1.7562 -0.1971
10160TIP3    H251972   0.417   1.077   4.228 -0.8563  1.3823 -0.2135
10161TIP3   OH251973   6.497   1.330   2.220  0.4993 -0.2131  0.5809
10161TIP3    H151974   6.435   1.376   2.164  1.3731  4.4388  3.1829
10161TIP3    H251975   6.574   1.316   2.165 -1.0882 -1.8869 -1.2839
10162TIP3   OH251976   3.097   5.542   5.732 -0.6074 -0.1628  0.1376
10162TIP3    H151977   3.120   5.449   5.727  0.0013  0.0292 -0.8659
10162TIP3    H251978   3.166   5.582   5.785  1.9032  0.5384 -3.4531
10163TIP3   OH251979   0.805   3.600  12.778  0.5492  0.0462 -0.6224
10163TIP3    H151980   0.880   3.622  12.723  1.2968 -0.4536  0.1705
10163TIP3    H251981   0.843   3.556  12.854 -0.5296  0.0187 -0.0801
10164TIP3   OH251982   1.932   1.856  10.750 -0.1555 -0.2297  0.0058
10164TIP3    H151983   2.014   1.807  10.759 -0.9205 -1.4802  0.3110
10164TIP3    H251984   1.958   1.947  10.760  1.2125 -0.6034  0.0370
10165TIP3   OH251985   0.936   3.875   0.368 -0.0206  0.4511 -0.0290
10165TIP3    H151986   0.859   3.822   0.350 -0.0510  0.0386  1.2978
10165TIP3    H251987   1.000   3.814   0.404  0.5548  0.9883 -0.1328
10166TIP3   OH251988   0.219   1.855   6.234 -0.0233 -0.0723  0.3153
10166TIP3    H151989   0.224   1.926   6.171  0.9220 -0.3427  0.0785
10166TIP3    H251990   0.130   1.860   6.269 -1.0774 -0.9017 -2.1830
10167TIP3   OH251991   2.437   0.626  12.275  0.1243  0.0337 -0.4119
10167TIP3    H151992   2.393   0.541  12.280  0.0349  0.1307  0.6773
10167TIP3    H251993   2.470   0.631  12.185 -1.1044 -0.5298 -0.9045
10168TIP3   OH251994   1.810   5.156   1.883 -0.3728  0.1379  0.3022
10168TIP3    H151995   1.806   5.106   1.801 -1.6668  0.5001  0.1329
10168TIP3    H251996   1.806   5.089   1.951 -1.4666 -0.0586  0.0685
10169TIP3   OH251997   0.766   5.436  11.798 -0.7892 -0.4483  0.0300
10169TIP3    H151998   0.673   5.426  11.819 -0.8815  1.7301  0.8516
10169TIP3    H251999   0.810   5.367  11.847 -1.8773 -0.7412  0.6088
10170TIP3   OH252000   6.819   1.561  13.721 -0.2705  0.5746  0.1140
10170TIP3    H152001   6.797   1.469  13.706  0.0180  0.1599  2.0625
10170TIP3    H252002   6.744   1.609  13.685 -0.3221 -0.3954 -1.1112
10171TIP3   OH252003   2.659   2.565  12.552 -0.4745 -0.5131  0.5696
10171TIP3    H152004   2.733   2.617  12.582 -2.2163  2.3205  0.1284
10171TIP3    H252005   2.698   2.489  12.510  2.1721  0.7964  0.5777
10172TIP3   OH252006   0.116   4.483  15.591  0.1206  0.0494  0.0000
10172TIP3    H152007   0.067   4.529  15.523  0.5508 -0.1808 -0.4613
10172TIP3    H252008   0.061   4.492  15.670 -0.5572 -0.0118 -0.4597
10173TIP3   OH252009   6.387   5.798  15.300 -0.7800  0.0208 -0.1444
10173TIP3    H152010   6.438   5.848  15.362 -1.1097  0.8881 -0.5577
10173TIP3    H252011   6.334   5.739  15.353  1.3975 -1.6268  0.2414
10174TIP3   OH252012   0.435   2.338  14.084 -0.6666 -0.0976 -0.4294
10174TIP3    H152013   0.448   2.371  14.173 -2.4940  0.1548 -0.2287
10174TIP3    H252014   0.412   2.245  14.096  0.4034 -0.4021 -0.7252
10175TIP3   OH252015   6.584   3.661  12.340  0.1145 -0.1881 -0.5942
10175TIP3    H152016   6.609   3.665  12.432  1.7971  0.1173 -1.0495
10175TIP3    H252017   6.582   3.752  12.312 -1.4711 -0.2040 -0.6012
10176TIP3   OH252018   0.292   4.626  17.042 -0.4894 -0.3543 -0.1635
10176TIP3    H152019   0.237   4.676  16.982 -0.3822  0.2264  0.2202
10176TIP3    H252020   0.365   4.595  16.988 -0.9063 -0.6723 -0.5523
10177TIP3   OH252021   1.628   4.794   4.078 -0.2586  0.3792 -0.5848
10177TIP3    H152022   1.714   4.824   4.109 -1.6312  0.7203  3.2014
10177TIP3    H252023   1.648   4.718   4.024  2.3404 -1.2270  2.4246
10178TIP3   OH252024   0.057   5.271   4.705  0.2234 -0.1695 -1.1786
10178TIP3    H152025   0.122   5.209   4.737 -0.5393 -0.6394 -0.5104
10178TIP3    H252026   0.078   5.353   4.750 -0.6648 -0.7511  0.3665
10179TIP3   OH252027   4.579   6.505  13.394 -0.0636 -0.1259 -0.2389
10179TIP3    H152028   4.541   6.537  13.476  0.5129 -1.6858  0.6435
10179TIP3    H252029   4.529   6.550  13.326  0.2092  2.0708  0.9579
10180TIP3   OH252030   0.534   6.502  16.238 -0.3504  0.4914 -0.2218
10180TIP3    H152031   0.627   6.521  16.248  0.0087  0.1205 -2.6807
10180TIP3    H252032   0.529   6.407  16.230 -0.7660  0.6257 -1.7271
10181TIP3   OH252033   2.258   3.644   4.758 -0.1808 -0.3028 -0.0936
10181TIP3    H152034   2.190   3.689   4.709  0.2674  0.5975  0.1081
10181TIP3    H252035   2.334   3.643   4.699  0.0403 -0.1272  0.1855
10182TIP3   OH252036   1.472   1.241   0.203 -0.3124 -0.6830 -0.3838
10182TIP3    H152037   1.402   1.303   0.227  0.9693  0.1937  1.2108
10182TIP3    H252038   1.429   1.156   0.206 -1.9204  0.0307 -1.8669
10183TIP3   OH252039   2.390   5.851  15.125  0.5179 -0.7948 -0.2590
10183TIP3    H152040   2.344   5.801  15.057  0.6179 -0.7179 -0.3845
10183TIP3    H252041   2.393   5.940  15.090 -1.2766 -0.3051  0.7714
10184TIP3   OH252042   0.686   1.436  13.559  0.1838  0.4352 -0.2309
10184TIP3    H152043   0.687   1.514  13.615 -0.4170  0.1249  0.2292
10184TIP3    H252044   0.752   1.378  13.598 -1.4032 -0.4753  1.2076
10185TIP3   OH252045   4.941   5.407  11.169  0.5467 -0.0961  0.1666
10185TIP3    H152046   4.973   5.403  11.260  0.4808 -0.3765  0.1779
10185TIP3    H252047   4.892   5.326  11.158  0.6851 -0.1314 -0.1730
10186TIP3   OH252048   6.411   2.758   0.167  0.4525 -0.0664  0.4809
10186TIP3    H152049   6.439   2.824   0.230  1.0895 -0.2317  0.3724
10186TIP3    H252050   6.492   2.719   0.135  0.0880 -0.7617  0.3931
10187TIP3   OH252051   4.467   3.575   5.398 -0.0643 -0.1718 -0.1181
10187TIP3    H152052   4.406   3.541   5.332 -1.3836  1.0172  0.4482
10187TIP3    H252053   4.541   3.608   5.348 -1.1252  0.8813 -1.0276
10188TIP3   OH252054   5.005   3.850   4.159 -0.2915 -0.1581  0.2192
10188TIP3    H152055   5.094   3.883   4.174 -0.9655  2.7506 -1.6723
10188TIP3    H252056   4.948   3.915   4.200 -1.5815 -2.3950  2.0987
10189TIP3   OH252057   3.550   5.836   5.425 -0.2455 -0.5079  0.0274
10189TIP3    H152058   3.478   5.774   5.418 -0.2239 -0.2979 -2.9092
10189TIP3    H252059   3.629   5.785   5.408 -0.0505 -0.0692 -0.4234
10190TIP3   OH252060   6.783   3.694  15.704  0.3050 -0.2564  0.2109
10190TIP3    H152061   6.790   3.789  15.699  1.3140 -0.3593 -0.4624
10190TIP3    H252062   6.842   3.669  15.775 -1.1855 -0.2550  1.4800
10191TIP3   OH252063   0.902   4.983  12.458 -0.4689  0.0889 -0.3960
10191TIP3    H152064   0.833   5.019  12.402 -0.0198  1.6409  0.0528
10191TIP3    H252065   0.975   5.043  12.449  0.8990 -1.6036 -0.9480
10192TIP3   OH252066   3.702   5.578   2.529 -0.6378 -0.0575  0.3211
10192TIP3    H152067   3.615   5.618   2.538 -0.5829 -0.4695  3.0381
10192TIP3    H252068   3.760   5.651   2.508 -1.5027  0.3267 -0.7932
10193TIP3   OH252069   6.254   0.465   5.715  0.6053  0.4679 -0.5706
10193TIP3    H152070   6.217   0.501   5.795  1.2422 -0.1566  0.0081
10193TIP3    H252071   6.183   0.470   5.651 -0.7597 -1.5484  0.7640
10194TIP3   OH252072   3.523   0.793  13.443 -0.2002 -0.5108  0.5625
10194TIP3    H152073   3.546   0.845  13.520 -2.7094  0.5197  0.6672
10194TIP3    H252074   3.522   0.702  13.474 -1.7280 -0.0579  1.9047
10195TIP3   OH252075   5.516   2.200  14.934 -0.0321  0.1829 -0.5195
10195TIP3    H152076   5.522   2.141  15.009 -2.9284  0.1984 -0.2386
10195TIP3    H252077   5.488   2.283  14.971  0.5506  0.7652 -1.3720
10196TIP3   OH252078   2.670   4.150   5.367 -0.4004  0.1142  0.4823
10196TIP3    H152079   2.740   4.154   5.302 -1.9207 -0.5074 -1.2224
10196TIP3    H252080   2.632   4.238   5.367 -0.0723  0.2596  0.9195
10197TIP3   OH252081   5.935   2.191   4.186  0.1466 -0.0273  0.1223
10197TIP3    H152082   6.026   2.161   4.187  0.0980 -0.3117 -2.5284
10197TIP3    H252083   5.883   2.113   4.206  0.4283  0.0783  1.3599
10198TIP3   OH252084   0.993   2.818  16.807  0.1268  0.3402  0.5557
10198TIP3    H152085   0.967   2.842  16.718 -0.3619 -2.7461 -0.2026
10198TIP3    H252086   0.948   2.880  16.863  0.2359  2.1809 -1.3275
10199TIP3   OH252087   3.591   1.824   1.800  0.0455 -0.2960  0.0658
10199TIP3    H152088   3.519   1.875   1.837 -0.1846 -1.4791  1.2849
10199TIP3    H252089   3.574   1.735   1.829  3.0720 -0.2887  2.0806
10200TIP3   OH252090   4.563   0.793   2.553 -0.0034 -0.2153  0.0780
10200TIP3    H152091   4.546   0.765   2.643  2.5615 -0.3343  0.5847
10200TIP3    H252092   4.477   0.813   2.517 -1.0063  0.9481  2.9357
10201TIP3   OH252093   1.777   4.519   4.371 -0.4523 -0.0483 -0.0202
10201TIP3    H152094   1.791   4.432   4.334 -1.4333  0.9818 -2.9523
10201TIP3    H252095   1.683   4.524   4.386 -0.4219  0.5575 -0.0206
10202TIP3   OH252096   5.370   5.351   1.329 -0.4278  0.2953 -0.0544
10202TIP3    H152097   5.302   5.392   1.275  0.3562  0.8433 -0.6531
10202TIP3    H252098   5.417   5.294   1.268 -1.1648 -1.0804  0.6556
10203TIP3   OH252099   2.429   2.105   5.027  0.4267  0.3405  0.4483
10203TIP3    H152100   2.355   2.085   5.084  0.2826  0.0302  0.1539
10203TIP3    H252101   2.449   2.022   4.984  0.3829  0.6309 -0.1319
10204TIP3   OH252102   5.509   2.543   5.889 -0.0334  0.1647  0.6483
10204TIP3    H152103   5.602   2.565   5.897 -0.2451  0.9614  0.9403
10204TIP3    H252104   5.466   2.591   5.960 -0.8945  1.1569 -0.5233
10205TIP3   OH252105   2.827   5.365  15.869  0.6047 -0.3768  0.1455
10205TIP3    H152106   2.812   5.290  15.812  1.0454 -1.1687  1.0626
10205TIP3    H252107   2.829   5.440  15.809 -1.5138 -0.8703 -0.6048
10206TIP3   OH252108   2.218   0.006   0.565 -0.3283  0.4646  0.2317
10206TIP3    H152109   2.283  -0.004   0.634 -2.5635  0.9973  2.4622
10206TIP3    H252110   2.251   0.079   0.511  2.7331 -1.6514 -0.8529
10207TIP3   OH252111   2.548   4.547  14.066  0.5668  0.5136 -0.1017
10207TIP3    H152112   2.458   4.528  14.038  0.0944 -0.1888  1.8289
10207TIP3    H252113   2.538   4.612  14.136  1.2732 -2.1937  2.6202
10208TIP3   OH252114   3.169   1.192   4.639 -0.4620  0.2353  0.0932
10208TIP3    H152115   3.215   1.134   4.578 -1.6738 -0.6674  0.0145
10208TIP3    H252116   3.126   1.257   4.583  2.9373  2.8017  0.3015
10209TIP3   OH252117   6.362   2.775  11.482  0.2232  0.2781 -0.3457
10209TIP3    H152118   6.439   2.777  11.426 -1.1889  1.0652 -2.3142
10209TIP3    H252119   6.333   2.684  11.481  2.9259 -0.7178  3.0074
10210TIP3   OH252120   0.696   5.868   0.434  0.2830  0.5869  0.1912
10210TIP3    H152121   0.683   5.869   0.340 -0.0247 -2.1223  0.1700
10210TIP3    H252122   0.681   5.959   0.461  1.6043  1.6650 -2.4898
10211TIP3   OH252123   0.826   4.466  14.553 -0.3159 -0.4562  0.0278
10211TIP3    H152124   0.885   4.423  14.491 -0.1665  0.3156 -0.3645
10211TIP3    H252125   0.848   4.559  14.548  1.5366 -0.6453  3.1592
10212TIP3   OH252126   2.072   1.789  11.348  0.0480 -0.2783 -0.4483
10212TIP3    H152127   2.057   1.864  11.290 -0.1365  1.3477  1.6108
10212TIP3    H252128   2.166   1.789  11.363 -0.0588  0.1439  0.2819
10213TIP3   OH252129   0.661   1.432  13.048  0.1214 -0.4942  0.3407
10213TIP3    H152130   0.641   1.392  13.132  1.0781  1.3886  1.4958
10213TIP3    H252131   0.754   1.455  13.054 -0.3968  1.8497 -0.2789
10214TIP3   OH252132   4.774   4.998   1.054 -0.4673 -0.5640  0.1418
10214TIP3    H152133   4.714   4.956   1.115 -2.3160 -0.1332 -1.3054
10214TIP3    H252134   4.807   4.927   1.000 -1.5180 -0.5373 -0.5652
10215TIP3   OH252135   2.211   1.149   3.147 -0.3389  0.0262  0.1522
10215TIP3    H152136   2.198   1.242   3.126 -1.1544 -0.5013 -1.7802
10215TIP3    H252137   2.131   1.125   3.195 -0.2475  0.2390  0.4179
10216TIP3   OH252138   6.742   1.480  12.772 -0.2819  0.2505 -0.6555
10216TIP3    H152139   6.739   1.505  12.680 -0.2962  1.5003 -0.3182
10216TIP3    H252140   6.824   1.518  12.805  0.7247 -1.8708 -0.6244
10217TIP3   OH252141   5.986   0.694  12.899  0.1461 -0.7690  0.2706
10217TIP3    H152142   5.988   0.608  12.940 -0.9143 -1.3503 -0.8801
10217TIP3    H252143   5.893   0.713  12.886  0.4400 -0.2491 -1.1226
10218TIP3   OH252144   3.952   3.692   1.734  0.6444  0.5214  0.9827
10218TIP3    H152145   4.024   3.634   1.759  0.8798  0.6355  0.5819
10218TIP3    H252146   3.888   3.634   1.692  1.8962  0.8727 -1.5065
10219TIP3   OH252147   2.368   0.383  10.529 -0.3145  0.4509 -0.1743
10219TIP3    H152148   2.445   0.329  10.514 -0.6363 -0.3077  0.8276
10219TIP3    H252149   2.374   0.408  10.622 -1.6440 -0.2244  0.1019
10220TIP3   OH252150   0.683   4.481   5.578  0.2202 -0.2645 -0.5721
10220TIP3    H152151   0.619   4.467   5.648  0.1318  0.3374 -0.5318
10220TIP3    H252152   0.764   4.442   5.612  0.1810  0.0360 -0.1261
10221TIP3   OH252153   6.335   6.102  11.604  0.4507  0.2459 -0.1805
10221TIP3    H152154   6.295   6.082  11.688 -0.0346 -2.9390 -1.1294
10221TIP3    H252155   6.262   6.101  11.542  1.3857 -1.6957 -1.2897
10222TIP3   OH252156   5.547   5.334  13.472 -0.5976 -0.0536 -0.0506
10222TIP3    H152157   5.640   5.337  13.451 -0.4874 -0.1921  0.4070
10222TIP3    H252158   5.536   5.403  13.538 -0.4940 -1.1631  1.1461
10223TIP3   OH252159   3.028   6.648   2.331  0.0492 -0.3973  0.3493
10223TIP3    H152160   2.959   6.615   2.388 -0.1199  1.2761  1.1566
10223TIP3    H252161   3.080   6.571   2.309 -0.9543 -1.3624  1.2822
10224TIP3   OH252162   4.223   6.778   3.706  0.8335  0.2204  0.0284
10224TIP3    H152163   4.131   6.800   3.694  0.4116 -0.1782  2.3462
10224TIP3    H252164   4.250   6.829   3.783  2.2225 -0.5920  0.0884
10225TIP3   OH252165   2.094   3.189   2.433 -0.3197 -0.1532 -0.3978
10225TIP3    H152166   2.008   3.163   2.399 -0.1452  0.5246 -1.3663
10225TIP3    H252167   2.137   3.233   2.360 -0.0028  1.4955  0.7539
10226TIP3   OH252168   1.845   5.994   3.463  0.3361 -0.1302 -0.1790
10226TIP3    H152169   1.887   5.911   3.487  0.9688  0.4130  0.6421
10226TIP3    H252170   1.872   6.055   3.532  0.8615  1.0616 -1.4087
10227TIP3   OH252171   0.623   5.554   3.307  0.0091  0.4554 -0.5316
10227TIP3    H152172   0.596   5.634   3.353  1.4336 -0.3346  1.7724
10227TIP3    H252173   0.639   5.583   3.217 -2.6806  2.0819 -0.5384
10228TIP3   OH252174   3.509   1.915  11.340  0.5311 -0.1303 -0.2399
10228TIP3    H152175   3.468   1.832  11.362 -0.7250  0.8562  1.1884
10228TIP3    H252176   3.472   1.938  11.255  0.8010 -0.9522 -0.5920
10229TIP3   OH252177   3.627   2.193   4.141  0.0189  0.2780  0.4332
10229TIP3    H152178   3.653   2.141   4.217  2.8788  0.2526 -0.5083
10229TIP3    H252179   3.559   2.141   4.099 -0.4184 -0.4900  2.0406
10230TIP3   OH252180   1.126   6.054   2.310 -0.2942  0.2066 -0.3479
10230TIP3    H152181   1.181   6.109   2.255  0.1979 -0.3670 -0.4383
10230TIP3    H252182   1.054   6.111   2.337 -0.1011  0.7227 -0.9099
10231TIP3   OH252183   3.359   2.339  11.406 -0.1560  0.4929 -0.2952
10231TIP3    H152184   3.323   2.321  11.492  0.0919  0.2103 -0.2501
10231TIP3    H252185   3.451   2.316  11.413 -0.4706 -1.0988 -1.0897
10232TIP3   OH252186   2.509   2.117   1.129 -0.5788  0.7957 -0.2990
10232TIP3    H152187   2.582   2.055   1.127 -1.0929  0.0495  1.8076
10232TIP3    H252188   2.437   2.071   1.087 -0.3942  0.7325 -0.5448
10233TIP3   OH252189   2.696   1.939   4.900 -0.2997  0.1592  0.9341
10233TIP3    H152190   2.754   1.919   4.827  0.6290 -1.2232  2.0336
10233TIP3    H252191   2.620   1.882   4.887  0.7307 -1.5050  2.0871
10234TIP3   OH252192   1.515   4.115   0.064 -0.8729 -0.1009 -0.7538
10234TIP3    H152193   1.518   4.116  -0.032  1.4728 -1.4644 -0.7468
10234TIP3    H252194   1.491   4.025   0.086  1.2759 -0.5418 -0.0757
10235TIP3   OH252195   3.426   5.610   1.901  0.0957 -0.3609  0.0139
10235TIP3    H152196   3.358   5.624   1.835 -2.5121 -2.8710  2.0235
10235TIP3    H252197   3.425   5.516   1.918  1.6085  0.0213  2.6706
10236TIP3   OH252198   3.147   2.927  16.250  0.2275 -0.0499 -0.0991
10236TIP3    H152199   3.219   2.989  16.262  1.2555 -1.2490  0.0274
10236TIP3    H252200   3.126   2.932  16.157  0.1819  0.6156 -0.0538
10237TIP3   OH252201   4.632   0.807   1.276  0.1465 -0.2089 -0.0200
10237TIP3    H152202   4.547   0.792   1.316  0.6549 -1.2568  0.7110
10237TIP3    H252203   4.625   0.892   1.233 -1.2876 -0.3353 -0.0375
10238TIP3   OH252204   1.975   2.267   5.507  0.6576  0.8868  0.5535
10238TIP3    H152205   2.011   2.188   5.468 -0.8123  0.1632  0.6802
10238TIP3    H252206   1.995   2.259   5.600 -1.9132 -0.6418  0.9880
10239TIP3   OH252207   0.379   0.970   4.652  0.1896  0.2551 -0.7317
10239TIP3    H152208   0.409   0.893   4.604  1.2035  0.4469 -0.4289
10239TIP3    H252209   0.447   1.036   4.637  1.1133 -0.0347  1.8512
10240TIP3   OH252210   0.954   3.519   3.770  0.0707 -0.5279 -0.2717
10240TIP3    H152211   1.046   3.506   3.794 -0.1517  1.4488  1.8365
10240TIP3    H252212   0.952   3.606   3.729 -0.9917 -0.1032  0.6466
10241TIP3   OH252213   4.034   4.239  12.723  0.0312  0.2627 -0.0357
10241TIP3    H152214   4.009   4.330  12.742 -1.2091  0.1407 -1.0229
10241TIP3    H252215   3.981   4.215  12.648  1.8732 -0.6071 -1.0912
10242TIP3   OH252216   2.891   2.684  11.821  0.4412  0.3784 -0.5030
10242TIP3    H152217   2.883   2.754  11.886 -0.5793  0.8521 -1.1341
10242TIP3    H252218   2.868   2.726  11.738  0.5728 -0.5228 -0.9986
10243TIP3   OH252219   6.058   1.102  15.503 -0.8480  0.6298 -0.2290
10243TIP3    H152220   5.989   1.058  15.452 -1.7029  0.3847  1.1348
10243TIP3    H252221   6.011   1.160  15.563  0.1125  0.1474  1.0110
10244TIP3   OH252222   2.222   4.563   2.226  0.0982  0.9759  0.3906
10244TIP3    H152223   2.197   4.627   2.292 -2.9461 -1.4521  1.7669
10244TIP3    H252224   2.215   4.609   2.143 -2.4263  2.3401  1.3106
10245TIP3   OH252225   4.436   3.871   2.079 -0.8278  0.0039 -0.3648
10245TIP3    H152226   4.383   3.830   2.149  2.0030 -0.8609  1.3473
10245TIP3    H252227   4.489   3.800   2.045 -2.5080  0.3274 -3.8263
10246TIP3   OH252228   4.673   0.054  16.873  0.6288 -0.2612  1.0252
10246TIP3    H152229   4.722   0.043  16.955 -1.8495  0.8004  2.7247
10246TIP3    H252230   4.671   0.149  16.860  0.5174 -0.3975  0.0396
10247TIP3   OH252231   3.515   0.830   3.465 -0.2035  0.5918  0.2537
10247TIP3    H152232   3.455   0.892   3.507  0.1002  1.7928 -1.0560
10247TIP3    H252233   3.463   0.750   3.454 -0.6682  0.6727  1.7510
10248TIP3   OH252234   1.219   4.116  10.565 -0.1007 -0.2429  0.5496
10248TIP3    H152235   1.277   4.191  10.552 -1.7415  0.7328 -1.6050
10248TIP3    H252236   1.273   4.050  10.608  1.6468  1.8172  1.5702
10249TIP3   OH252237   6.234   3.122  15.711  0.2636 -0.0032  0.1513
10249TIP3    H152238   6.224   3.030  15.734 -1.9839  0.3545  0.7026
10249TIP3    H252239   6.145   3.158  15.713  1.2948  2.6282  1.8733
10250TIP3   OH252240   5.788   2.103   1.415 -0.2725 -0.0645  0.5927
10250TIP3    H152241   5.867   2.055   1.441 -0.1260  0.9012  1.9735
10250TIP3    H252242   5.821   2.180   1.370 -0.3859  0.6159  1.6421
10251TIP3   OH252243   4.033   6.740   4.967 -0.1579  0.4224  0.4717
10251TIP3    H152244   3.969   6.709   4.903  1.4041 -0.8022 -0.5573
10251TIP3    H252245   4.078   6.813   4.923  0.4302  0.0446  0.4387
10252TIP3   OH252246   0.734   6.289   0.088  0.1031  0.1160 -0.6141
10252TIP3    H152247   0.729   6.383   0.106  0.7739 -0.0940  0.7016
10252TIP3    H252248   0.815   6.279   0.038  0.0029  0.2386 -0.8040
10253TIP3   OH252249   2.867   2.338  12.743 -0.1551  0.1110  0.6547
10253TIP3    H152250   2.810   2.349  12.666  2.9447  1.6349 -1.5200
10253TIP3    H252251   2.876   2.426  12.779  2.9131  0.4020 -0.6583
10254TIP3   OH252252   0.497   6.713   3.180 -0.2346  0.0289 -0.1382
10254TIP3    H152253   0.536   6.711   3.268  3.2211  0.3237 -1.5894
10254TIP3    H252254   0.438   6.789   3.183  1.4273  1.3304  1.3208
10255TIP3   OH252255   4.670   1.376  14.640  0.5129  0.2333 -0.3902
10255TIP3    H152256   4.706   1.440  14.579  0.3056  0.9936  0.2840
10255TIP3    H252257   4.732   1.375  14.713  0.8074 -0.7377 -0.6519
10256TIP3   OH252258   2.214   0.139  15.486 -0.0484 -0.3051  0.0855
10256TIP3    H152259   2.269   0.149  15.408  0.8783  1.1179  0.8972
10256TIP3    H252260   2.276   0.113  15.555 -0.4154  1.1549  0.9758
10257TIP3   OH252261   6.712   6.409   3.470 -0.0266  0.5235  0.2278
10257TIP3    H152262   6.634   6.388   3.420  0.1298 -1.3677  0.7269
10257TIP3    H252263   6.784   6.403   3.406  0.0072 -0.4392  0.3475
10258TIP3   OH252264   5.490   1.585  15.514  0.0487 -0.0074 -0.1251
10258TIP3    H152265   5.567   1.529  15.523 -0.2698 -0.4330 -0.0378
10258TIP3    H252266   5.485   1.632  15.598 -1.4479 -2.1114  1.0281
10259TIP3   OH252267   5.494   1.942   4.688 -0.0149  0.2620 -0.1195
10259TIP3    H152268   5.475   1.852   4.661  1.1456  0.2192 -0.8187
10259TIP3    H252269   5.408   1.982   4.699 -0.5319 -0.3227 -1.8780
10260TIP3   OH252270   3.827   1.617  12.174 -0.3420 -0.4871  0.6057
10260TIP3    H152271   3.822   1.625  12.269 -0.9019 -0.6221  0.5898
10260TIP3    H252272   3.766   1.546  12.152  0.2054 -0.8392  0.1988
10261TIP3   OH252273   0.953   2.236   0.433 -0.1911 -0.2023  0.2915
10261TIP3    H152274   1.036   2.280   0.448  1.5678 -2.6360 -1.8154
10261TIP3    H252275   0.951   2.165   0.497 -0.9186  0.2101  0.7259
10262TIP3   OH252276   3.470   2.628   0.747  0.5427 -0.0962  0.3513
10262TIP3    H152277   3.427   2.688   0.687  0.7590 -0.9851 -0.7026
10262TIP3    H252278   3.533   2.682   0.795  2.4652  0.0895 -2.2820
10263TIP3   OH252279   0.423   3.349  13.143 -0.1322 -0.1451 -0.1916
10263TIP3    H152280   0.360   3.304  13.086  0.0842 -0.0825 -0.4787
10263TIP3    H252281   0.378   3.429  13.170 -0.6571 -0.7001  0.6066
10264TIP3   OH252282   2.266   2.951   2.566  0.1310 -0.3708 -0.5138
10264TIP3    H152283   2.221   2.976   2.647  1.2246  2.5597 -0.7705
10264TIP3    H252284   2.200   2.963   2.498 -0.2961 -1.2752 -0.2714
10265TIP3   OH252285   0.770   6.025  14.812 -0.1706  0.1416 -0.2245
10265TIP3    H152286   0.689   5.976  14.796  1.3994 -2.1858 -1.2979
10265TIP3    H252287   0.809   6.037  14.726  2.7518 -2.5691  0.6242
10266TIP3   OH252288   5.921   4.946  15.399 -0.5082 -0.5095 -0.2521
10266TIP3    H152289   5.912   5.008  15.472  2.3832 -0.3888  0.0619
10266TIP3    H252290   5.916   5.001  15.321  0.1124 -0.1163 -0.0241
10267TIP3   OH252291   5.449   2.242   2.427 -0.1904 -0.6488  0.6838
10267TIP3    H152292   5.482   2.155   2.449 -3.2356 -1.6988  1.4534
10267TIP3    H252293   5.391   2.264   2.500 -2.2477  0.4379 -1.2183
10268TIP3   OH252294   5.578   6.500  11.031  0.4235  0.2052  0.6739
10268TIP3    H152295   5.527   6.439  10.978  1.4126 -0.6667  0.7008
10268TIP3    H252296   5.669   6.474  11.016  0.9401  2.3513 -0.1465
10269TIP3   OH252297   4.735   5.076  14.076 -0.1373  0.3919  0.0993
10269TIP3    H152298   4.657   5.090  14.130 -0.8760  0.9007 -1.0629
10269TIP3    H252299   4.701   5.037  13.995  1.1542 -1.9808  0.6675
10270TIP3   OH252300   5.776   6.252   4.264  0.4765  0.4353 -0.3802
10270TIP3    H152301   5.870   6.259   4.282  0.2379 -0.2458  1.2338
10270TIP3    H252302   5.734   6.266   4.348 -0.8884  0.7923 -1.1024
10271TIP3   OH252303   3.779   5.886  16.077 -0.3773 -0.1662 -0.4298
10271TIP3    H152304   3.848   5.820  16.073 -0.8837 -0.6643 -1.0548
10271TIP3    H252305   3.725   5.869  15.999  0.2439  1.8161 -1.3166
10272TIP3   OH252306   2.504   5.522   0.359  0.3586  0.0694 -0.4174
10272TIP3    H152307   2.412   5.501   0.375  0.9248 -2.0430  0.2475
10272TIP3    H252308   2.522   5.482   0.274  0.9965 -0.6669  0.0574
10273TIP3   OH252309   1.532   0.946  16.962  0.6509  0.2964  0.4174
10273TIP3    H152310   1.585   1.004  16.908  0.1170 -0.4406 -0.9073
10273TIP3    H252311   1.500   1.003  17.032 -0.0609  1.6807 -0.9993
10274TIP3   OH252312   2.192   1.909  14.642 -0.1882  0.1085  0.0820
10274TIP3    H152313   2.182   1.992  14.595  0.8667  0.4113  0.3672
10274TIP3    H252314   2.139   1.919  14.721 -0.7429  0.1888 -0.3048
10275TIP3   OH252315   2.268   1.901   5.200 -0.2348 -0.3495  0.1674
10275TIP3    H152316   2.236   1.825   5.250  1.4914 -0.7526  0.7134
10275TIP3    H252317   2.223   1.896   5.116 -0.6459 -1.6146  0.4568
10276TIP3   OH252318   0.269   6.782  16.151 -0.2987 -0.2860  0.3314
10276TIP3    H152319   0.333   6.740  16.093 -1.8878 -0.1507 -1.5951
10276TIP3    H252320   0.261   6.723  16.226  1.0724 -0.9710 -0.0572
10277TIP3   OH252321   4.580   5.419  13.345  0.2136  0.0139  0.2135
10277TIP3    H152322   4.509   5.364  13.378  1.1457 -1.1683  0.3105
10277TIP3    H252323   4.586   5.397  13.252 -1.5288  2.3576 -0.5051
10278TIP3   OH252324   0.262   3.163   5.454 -0.1003 -0.0419  0.1770
10278TIP3    H152325   0.308   3.082   5.475  0.0818 -0.7252 -2.6758
10278TIP3    H252326   0.285   3.181   5.363 -1.2255  2.4864  0.3477
10279TIP3   OH252327   0.687   4.295  12.783  0.1982  0.4755 -0.2241
10279TIP3    H152328   0.706   4.299  12.689 -1.7543  0.0036 -0.6641
10279TIP3    H252329   0.617   4.230  12.790 -0.6902  1.5774  1.3922
10280TIP3   OH252330   5.680   1.860  17.154 -0.3010 -1.1922 -0.1758
10280TIP3    H152331   5.708   1.901  17.236 -1.2430 -1.9672  0.5478
10280TIP3    H252332   5.621   1.924  17.114 -0.8630 -1.3560  0.3871
10281TIP3   OH252333   1.812   4.136  16.957 -0.0324  0.5351 -0.3556
10281TIP3    H152334   1.812   4.138  16.861 -2.3597  2.0086 -0.3547
10281TIP3    H252335   1.868   4.061  16.979  1.0020  0.5172 -2.8297
10282TIP3   OH252336   4.297   4.021   0.690 -0.0321 -0.7774 -0.0734
10282TIP3    H152337   4.207   3.998   0.666 -0.1534  2.3682 -2.9793
10282TIP3    H252338   4.291   4.109   0.726  1.7766 -0.8853  0.5238
10283TIP3   OH252339   1.926   2.440   4.541 -0.1878 -0.4299 -0.3034
10283TIP3    H152340   1.900   2.530   4.561  2.5519 -0.2553  2.7335
10283TIP3    H252341   1.971   2.447   4.456 -2.1950  0.6028 -1.3366
10284TIP3   OH252342   2.136   6.197   1.673  0.0958 -0.0709  0.0420
10284TIP3    H152343   2.121   6.229   1.584 -0.0784  0.8915  0.4140
10284TIP3    H252344   2.118   6.273   1.729 -1.0216 -1.0169  0.9864
10285TIP3   OH252345   4.369   1.588   6.319 -0.6479 -0.5615 -0.1818
10285TIP3    H152346   4.369   1.599   6.414  0.9548 -0.7215 -0.1425
10285TIP3    H252347   4.365   1.493   6.306  0.7692 -0.6311 -0.2250
10286TIP3   OH252348   6.150   1.575  12.461  0.3194  0.1500  0.0318
10286TIP3    H152349   6.203   1.654  12.448  0.4019  0.0919  0.0149
10286TIP3    H252350   6.214   1.504  12.462  0.2651  0.1053  0.2733
10287TIP3   OH252351   3.546   6.731  15.238  0.9284 -0.2811  0.1522
10287TIP3    H152352   3.619   6.718  15.298  0.8975 -1.8394 -0.1218
10287TIP3    H252353   3.491   6.654  15.249  1.1954 -0.8681 -2.2438
10288TIP3   OH252354   2.308   5.683   2.881 -0.1037 -0.6537 -0.8907
10288TIP3    H152355   2.350   5.676   2.966 -1.4059 -1.1161 -0.2810
10288TIP3    H252356   2.262   5.600   2.869  0.6446 -0.8694 -2.3544
10289TIP3   OH252357   5.570   6.541   2.829  0.5917  0.5224 -0.0693
10289TIP3    H152358   5.640   6.584   2.878  1.7058 -0.4177 -0.8061
10289TIP3    H252359   5.571   6.451   2.861  0.6274  0.1662 -1.0751
10290TIP3   OH252360   2.932   3.596   1.560 -0.1431  0.6428 -0.1105
10290TIP3    H152361   2.857   3.584   1.618  0.8004 -1.1139  0.7733
10290TIP3    H252362   2.951   3.509   1.526  1.0882  1.1871 -0.8560
10291TIP3   OH252363   1.609   3.706  16.927  0.4969  0.3613  0.8699
10291TIP3    H152364   1.520   3.672  16.935  1.0167 -1.2738 -0.0428
10291TIP3    H252365   1.665   3.630  16.945  1.6883  0.7670 -1.0323
10292TIP3   OH252366   3.321   3.448   0.877  0.1384  0.3637 -0.4497
10292TIP3    H152367   3.405   3.462   0.921  0.1643 -0.0434 -0.3689
10292TIP3    H252368   3.262   3.420   0.947  0.3655 -1.0086 -0.7944
10293TIP3   OH252369   5.597   2.749   1.281  0.1151 -0.6939 -0.0328
10293TIP3    H152370   5.664   2.706   1.335 -0.1735  0.6286  1.4145
10293TIP3    H252371   5.622   2.728   1.191  1.4744 -1.6874  0.5511
10294TIP3   OH252372   1.994   5.153   0.113 -0.4669 -0.0768 -0.1501
10294TIP3    H152373   1.992   5.246   0.088 -2.3139 -0.3036 -0.9574
10294TIP3    H252374   2.035   5.110   0.038  0.3796  0.0757  0.2194
10295TIP3   OH252375   5.077   2.356   2.134  0.1186  0.0862 -0.0100
10295TIP3    H152376   5.002   2.348   2.075  0.4553  0.5082 -0.4988
10295TIP3    H252377   5.146   2.396   2.080  0.3413  0.7295  0.7373
10296TIP3   OH252378   0.372   5.883  10.866  0.5017 -0.5325 -0.2453
10296TIP3    H152379   0.426   5.804  10.856  0.5603 -0.7724  1.7985
10296TIP3    H252380   0.282   5.850  10.869  0.4200 -0.3769 -0.8269
10297TIP3   OH252381   0.295   4.896   2.128 -0.4513  0.7387 -0.4332
10297TIP3    H152382   0.264   4.846   2.053  0.0696  0.0056 -0.1615
10297TIP3    H252383   0.240   4.974   2.129 -1.1581  0.2467 -0.9490
10298TIP3   OH252384   3.251   0.434   0.663 -0.5446  0.0048  0.2738
10298TIP3    H152385   3.165   0.392   0.656 -0.7429  0.5255 -0.4547
10298TIP3    H252386   3.246   0.485   0.744 -0.2965 -1.3712  1.1757
10299TIP3   OH252387   3.965   3.944  10.951 -0.4539  0.2159  0.1079
10299TIP3    H152388   4.057   3.970  10.961 -0.4618  0.1994  0.2250
10299TIP3    H252389   3.929   3.953  11.039 -1.3309  3.1451 -0.5137
10300TIP3   OH252390   6.436   5.281  11.687 -0.1267 -0.0466 -0.1001
10300TIP3    H152391   6.458   5.188  11.682  1.5444  0.3218  0.0201
10300TIP3    H252392   6.508   5.325  11.641 -0.5825  1.2275  0.3826
10301TIP3   OH252393   5.595   5.126  11.630  0.0522 -0.4275 -0.7201
10301TIP3    H152394   5.519   5.114  11.686  0.8650  0.7934  0.6741
10301TIP3    H252395   5.628   5.037  11.615 -1.6709 -0.9674 -1.4072
10302TIP3   OH252396   6.128   3.302  17.153  0.2080  0.3212  0.2952
10302TIP3    H152397   6.064   3.233  17.172  0.8073 -0.4114 -0.3118
10302TIP3    H252398   6.179   3.268  17.080  0.4091  1.4886 -0.1158
10303TIP3   OH252399   5.829   4.540   1.945 -0.3044  0.1864 -0.3232
10303TIP3    H152400   5.818   4.452   1.908  1.1780  0.2662 -1.0117
10303TIP3    H252401   5.754   4.551   2.004 -0.5158 -1.5394 -0.2278
10304TIP3   OH252402   2.108   0.446   1.896 -0.8256  0.1995 -0.4525
10304TIP3    H152403   2.148   0.502   1.962  0.6147 -1.4191  0.0657
10304TIP3    H252404   2.166   0.453   1.820 -0.8051 -0.3338 -0.4914
10305TIP3   OH252405   0.689   2.808   0.617 -0.0344 -0.4894 -0.1883
10305TIP3    H152406   0.732   2.728   0.589 -1.2552 -1.0844 -0.4026
10305TIP3    H252407   0.669   2.794   0.710  1.1890  0.2213  0.1968
10306TIP3   OH252408   6.077   3.717   2.985 -0.4832 -0.2057  0.2089
10306TIP3    H152409   6.127   3.699   3.065  0.9997 -0.1083 -0.6783
10306TIP3    H252410   6.036   3.633   2.963 -0.7219 -0.2840  0.9478
10307TIP3   OH252411   5.206   5.951   3.254  0.2962  0.4554 -0.2555
10307TIP3    H152412   5.246   5.926   3.171 -0.1857 -1.2549  0.0060
10307TIP3    H252413   5.175   6.041   3.240 -0.6371 -0.1598 -2.2412
10308TIP3   OH252414   3.515   6.329   3.617 -0.4594 -0.0519  0.2678
10308TIP3    H152415   3.600   6.370   3.637  0.1018 -1.3008  0.4846
10308TIP3    H252416   3.532   6.276   3.539 -1.2039  0.2037 -0.0702
10309TIP3   OH252417   4.225   1.999   0.379  0.2387  0.0742  0.8153
10309TIP3    H152418   4.150   2.019   0.435 -0.7597  0.5211 -0.6528
10309TIP3    H252419   4.215   1.907   0.357  0.4980 -0.0403  1.1796
10310TIP3   OH252420   6.786   5.220   6.890  0.5435  0.1155  0.1541
10310TIP3    H152421   6.849   5.148   6.895  0.5216 -0.0111 -1.2010
10310TIP3    H252422   6.704   5.182   6.922  0.5111 -0.4818 -0.6289
10311TIP3   OH252423   4.845   5.439  13.360  0.3420  0.0003  0.7797
10311TIP3    H152424   4.753   5.439  13.333  0.4565 -1.5808  0.3396
10311TIP3    H252425   4.890   5.490  13.293 -0.2647  1.1573  1.2326
10312TIP3   OH252426   2.304   3.900  13.509 -0.0837  1.0019 -0.6625
10312TIP3    H152427   2.323   3.824  13.565  0.1199  1.3361 -0.2750
10312TIP3    H252428   2.310   3.975  13.568 -1.8326  1.1909 -0.7017
10313TIP3   OH252429   5.752   1.358  12.348  0.3013  0.7550  0.6263
10313TIP3    H152430   5.669   1.326  12.384  0.6051  0.3555  0.9705
10313TIP3    H252431   5.761   1.446  12.384  1.0825 -0.0049  2.3069
10314TIP3   OH252432   1.405   1.271   6.118  0.0386 -0.1112  0.5365
10314TIP3    H152433   1.468   1.266   6.046 -0.6975 -0.5511 -0.0792
10314TIP3    H252434   1.458   1.254   6.196  0.8921  0.6241  0.1343
10315TIP3   OH252435   1.496   5.156   4.623 -0.1786 -0.8537 -0.2984
10315TIP3    H152436   1.461   5.116   4.544 -0.5815  1.9368 -1.6196
10315TIP3    H252437   1.547   5.231   4.591  2.2599 -1.5133  1.9241
10316TIP3   OH252438   3.414   3.757   4.593 -0.3364 -0.3205  0.1783
10316TIP3    H152439   3.386   3.840   4.632  1.1450  0.1004  0.3614
10316TIP3    H252440   3.351   3.741   4.522  0.8495  2.2170 -1.4915
10317TIP3   OH252441   5.676   4.431  14.078 -0.1349  0.6001 -0.6030
10317TIP3    H152442   5.658   4.338  14.072  0.0206  0.4849  0.5425
10317TIP3    H252443   5.715   4.443  14.165 -1.7011  1.9596 -0.0498
10318TIP3   OH252444   6.120   1.527  14.600  0.6077 -0.0757  0.3825
10318TIP3    H152445   6.141   1.487  14.516 -0.2588 -0.9428  0.5628
10318TIP3    H252446   6.132   1.456  14.664  0.2640  0.2964  0.8682
10319TIP3   OH252447   2.059   4.914  15.184 -0.5376 -0.0791  0.4551
10319TIP3    H152448   2.074   4.990  15.239  1.8443 -1.1488  1.3410
10319TIP3    H252449   2.038   4.843  15.246  1.7095 -1.1812 -0.0043
10320TIP3   OH252450   6.112   3.641  15.928 -0.5070  0.1111  0.2577
10320TIP3    H152451   6.180   3.597  15.878 -1.2408 -1.1497  0.3504
10320TIP3    H252452   6.136   3.626  16.020 -0.3641  0.5244  0.2896
10321TIP3   OH252453   6.588   3.400  14.683 -0.3805  0.1481  0.1106
10321TIP3    H152454   6.664   3.410  14.627 -1.0117 -0.9315 -0.9557
10321TIP3    H252455   6.541   3.484  14.675 -0.7446 -0.1918 -1.3976
10322TIP3   OH252456   6.095   2.788  12.973  0.1090 -0.1208  0.2764
10322TIP3    H152457   6.108   2.858  13.037 -1.4249  0.9132 -0.5150
10322TIP3    H252458   6.049   2.720  13.022  0.0812  0.1321  0.6084
10323TIP3   OH252459   2.528   5.818   0.777  0.0667  0.1592 -0.2648
10323TIP3    H152460   2.608   5.866   0.757  0.3597 -0.4551 -0.5836
10323TIP3    H252461   2.476   5.822   0.697  0.7001 -1.2366 -0.7673
10324TIP3   OH252462   4.390   6.138  13.334 -0.0468 -0.0462 -0.3299
10324TIP3    H152463   4.327   6.210  13.334 -0.8899 -0.7729 -0.3820
10324TIP3    H252464   4.456   6.163  13.269  0.8010  1.6412  1.1421
10325TIP3   OH252465   0.862   2.825   1.465  0.5268 -0.1923  0.2108
10325TIP3    H152466   0.957   2.830   1.455  0.2832 -0.1123 -2.5199
10325TIP3    H252467   0.829   2.827   1.375 -2.1193  1.2365  1.1650
10326TIP3   OH252468   5.126   4.933   4.769 -0.5353  0.0488 -0.3734
10326TIP3    H152469   5.080   4.986   4.834  0.7894  1.4895 -0.5712
10326TIP3    H252470   5.203   4.900   4.814 -1.3391 -1.7359 -0.2608
10327TIP3   OH252471   6.210   0.967   2.221  0.2768  0.4640 -0.0378
10327TIP3    H152472   6.132   0.947   2.169 -0.0213  1.0018  0.2002
10327TIP3    H252473   6.235   1.056   2.194  0.7746  0.3149 -0.0738
10328TIP3   OH252474   3.667   6.634   6.189  0.0421 -0.0701  0.3690
10328TIP3    H152475   3.586   6.592   6.157  0.5294  0.3312 -1.4453
10328TIP3    H252476   3.698   6.575   6.257 -2.6291  0.5752  2.2524
10329TIP3   OH252477   4.357   0.970   5.697 -0.3167 -0.0834 -0.9514
10329TIP3    H152478   4.324   0.893   5.743 -1.2173  1.2620  0.7228
10329TIP3    H252479   4.406   1.018   5.764  1.3446  0.1747 -2.3017
10330TIP3   OH252480   1.083   1.785   1.509 -0.2919  0.4642  0.5494
10330TIP3    H152481   1.119   1.711   1.459 -3.5275 -1.5555  1.0885
10330TIP3    H252482   1.141   1.792   1.585  1.4115  0.0110 -0.6615
10331TIP3   OH252483   6.227   2.120  16.417 -0.0297  0.1002  0.1303
10331TIP3    H152484   6.302   2.061  16.405  1.1687  1.5817  0.2825
10331TIP3    H252485   6.175   2.078  16.486  0.3875 -1.1890 -0.3080
10332TIP3   OH252486   3.893   0.999  14.127 -0.3471 -0.3671 -0.0499
10332TIP3    H152487   3.803   1.008  14.096 -0.2806  1.4439  0.2704
10332TIP3    H252488   3.945   1.049  14.064 -0.0753  2.3511  2.2532
10333TIP3   OH252489   5.113   0.466   5.363  0.1997  0.1187 -0.6757
10333TIP3    H152490   5.137   0.381   5.399  2.2110 -0.0306 -2.2952
10333TIP3    H252491   5.192   0.520   5.373 -0.1424  0.9438 -2.2020
10334TIP3   OH252492   3.434   6.272  16.247 -0.0137 -0.2446 -0.7451
10334TIP3    H152493   3.506   6.246  16.190 -0.4825 -1.8268 -0.6342
10334TIP3    H252494   3.430   6.368  16.238  2.1442 -0.1245 -0.6698
10335TIP3   OH252495   3.531   1.275   0.306  0.0468  0.3815 -0.1490
10335TIP3    H152496   3.490   1.199   0.265  0.2104 -0.1153  0.6085
10335TIP3    H252497   3.612   1.288   0.256 -0.6118  0.8662 -1.1177
10336TIP3   OH252498   3.587   3.253   4.508 -0.0255  0.2615  0.0699
10336TIP3    H152499   3.655   3.189   4.527 -0.2378 -0.3871 -1.3324
10336TIP3    H252500   3.596   3.318   4.578 -0.3641 -1.7125  1.9783
10337TIP3   OH252501   1.469   4.748  15.859  0.2819 -0.7520  0.2672
10337TIP3    H152502   1.551   4.699  15.860  0.9915  0.3693  3.7367
10337TIP3    H252503   1.410   4.697  15.914 -0.8759 -0.7143 -0.9074
10338TIP3   OH252504   0.862   6.367  16.792 -0.0898  0.1405 -0.0746
10338TIP3    H152505   0.801   6.317  16.737  1.7753 -2.2563 -0.0718
10338TIP3    H252506   0.885   6.307  16.863  1.7128  1.2407  0.3078
10339TIP3   OH252507   3.268   5.376  16.059 -0.0461  0.0383 -0.5427
10339TIP3    H152508   3.179   5.409  16.046 -0.2315 -0.3295 -0.1945
10339TIP3    H252509   3.261   5.317  16.134  0.7806  1.1760  0.4450
10340TIP3   OH252510   1.500   2.990  11.902 -0.0258  0.3133  0.2277
10340TIP3    H152511   1.575   2.986  11.843 -0.0111 -0.4610  0.2959
10340TIP3    H252512   1.537   3.012  11.987  0.2363 -1.0092  0.4591
10341TIP3   OH252513   6.653   3.759  17.200 -0.3696 -0.3313  0.0498
10341TIP3    H152514   6.605   3.839  17.220 -2.0421 -2.1100  3.7179
10341TIP3    H252515   6.744   3.779  17.222 -0.0456  1.8296 -3.1250
10342TIP3   OH252516   4.220   6.258   2.050 -0.5491  0.1071 -0.5757
10342TIP3    H152517   4.206   6.344   2.009 -1.0520  0.1569 -0.3006
10342TIP3    H252518   4.138   6.212   2.038  0.1596 -0.8306 -1.8768
10343TIP3   OH252519   1.330   6.374  15.812 -0.1682  0.7416  0.1768
10343TIP3    H152520   1.376   6.367  15.896  0.5536  0.6807 -0.2212
10343TIP3    H252521   1.395   6.347  15.747 -0.5179  1.4026 -0.4556
10344TIP3   OH252522   0.401   5.991  16.313 -0.0027  0.6048 -0.1340
10344TIP3    H152523   0.487   5.975  16.276 -0.9575 -0.3060 -2.0233
10344TIP3    H252524   0.407   5.959  16.403  0.8440 -1.8965 -1.0570
10345TIP3   OH252525   1.033   3.986  16.352 -0.2859  0.7439  0.2290
10345TIP3    H152526   0.978   3.968  16.428 -2.2682  1.6666 -0.9575
10345TIP3    H252527   1.019   3.911  16.293  0.6723  0.3969  0.4217
10346TIP3   OH252528   1.911   6.768  13.317  0.2384 -0.3030  0.5546
10346TIP3    H152529   1.861   6.753  13.236 -1.0330  1.9317  0.8865
10346TIP3    H252530   2.002   6.772  13.288  0.0006 -1.6459 -0.4508
10347TIP3   OH252531   3.776   3.805   6.125 -0.2918  0.6388 -0.1593
10347TIP3    H152532   3.695   3.810   6.176 -0.3376 -1.4923  0.0388
10347TIP3    H252533   3.824   3.884   6.149 -1.1304  0.5940  1.7897
10348TIP3   OH252534   3.447   2.985   3.563 -0.5061 -0.1440 -0.0470
10348TIP3    H152535   3.495   2.975   3.646  2.0269 -2.2520 -1.6949
10348TIP3    H252536   3.385   2.913   3.562  0.1898 -0.7381 -0.4540
10349TIP3   OH252537   4.945   0.698  14.522 -0.0733  0.0200 -0.6009
10349TIP3    H152538   5.024   0.750  14.535 -0.7890  1.1067 -0.5842
10349TIP3    H252539   4.901   0.739  14.447 -0.8774 -0.2610 -0.2870
10350TIP3   OH252540   2.015   3.726   2.990  0.0744 -0.3778 -0.5216
10350TIP3    H152541   2.070   3.784   2.936  0.4845 -0.4997 -0.2303
10350TIP3    H252542   1.933   3.719   2.940 -0.1735  0.8690 -0.3098
10351TIP3   OH252543   4.421   5.504   5.437 -0.0192 -0.1563  0.6695
10351TIP3    H152544   4.360   5.529   5.506 -0.3452 -1.3558  0.8252
10351TIP3    H252545   4.489   5.454   5.482 -0.5918 -1.5255  0.0261
10352TIP3   OH252546   4.282   0.738   4.686 -0.7181 -0.6048 -0.3085
10352TIP3    H152547   4.301   0.830   4.667  0.8038 -1.1476 -1.4767
10352TIP3    H252548   4.187   0.731   4.679 -0.8123  0.8021 -0.5395
10353TIP3   OH252549   4.286   6.167  15.802 -0.0534  0.5339  0.1498
10353TIP3    H152550   4.296   6.087  15.751  1.6089  1.2369 -0.6344
10353TIP3    H252551   4.349   6.158  15.874 -0.7330  0.5956  0.7613
10354TIP3   OH252552   5.838   0.896  10.691 -0.3148  0.4700 -0.3106
10354TIP3    H152553   5.794   0.969  10.733 -0.4046  0.0111  0.4020
10354TIP3    H252554   5.779   0.869  10.621 -1.7009 -0.8392  1.3206
10355TIP3   OH252555   0.212   6.282  10.807  0.1730 -0.5285  0.5657
10355TIP3    H152556   0.187   6.227  10.882 -0.1553 -2.0446 -0.6341
10355TIP3    H252557   0.194   6.227  10.731  0.9033  0.8558 -0.6074
10356TIP3   OH252558   6.078   4.431  15.151 -0.4051 -0.1738  0.2879
10356TIP3    H152559   6.165   4.429  15.111 -0.0446  3.4840  0.7381
10356TIP3    H252560   6.094   4.439  15.245 -1.2502 -1.5487  0.5616
10357TIP3   OH252561   0.414   2.378  16.115 -0.2004 -0.2263  0.8595
10357TIP3    H152562   0.391   2.334  16.033 -1.4298  0.9520  0.5489
10357TIP3    H252563   0.505   2.406  16.102 -1.0704  1.9198 -1.0333
10358TIP3   OH252564   5.218   4.145  11.009 -0.6819  0.4518  0.0358
10358TIP3    H152565   5.228   4.070  10.951  1.4787  2.3235 -2.1515
10358TIP3    H252566   5.303   4.152  11.053 -1.7918 -0.0173  2.3348
10359TIP3   OH252567   5.647   6.638  12.806 -0.1541 -0.2393  0.0493
10359TIP3    H152568   5.663   6.640  12.711  2.5243  0.5156  0.4738
10359TIP3    H252569   5.627   6.729  12.828  0.4359 -0.1908  0.3885
10360TIP3   OH252570   3.229   3.502  13.814  0.9142 -0.0435  0.3713
10360TIP3    H152571   3.272   3.465  13.737  0.3640  1.5112 -0.6963
10360TIP3    H252572   3.293   3.563  13.850  0.2917  0.9699 -0.2135
10361TIP3   OH252573   5.121   5.298  15.703 -0.1565  0.5471 -0.1040
10361TIP3    H152574   5.124   5.394  15.695 -0.9398  0.6501  0.7503
10361TIP3    H252575   5.204   5.269  15.667  1.2250  1.7319  2.0290
10362TIP3   OH252576   5.072   2.993   0.641 -0.2131  0.0913 -0.5125
10362TIP3    H152577   5.137   2.942   0.592  1.8556  3.1074 -1.0104
10362TIP3    H252578   5.022   3.040   0.574 -0.7632  0.2858  0.0297
10363TIP3   OH252579   0.257   3.554  16.420 -0.8607 -0.3452  0.3826
10363TIP3    H152580   0.253   3.499  16.498 -0.5126 -1.1795 -0.1808
10363TIP3    H252581   0.174   3.538  16.374 -0.6258 -0.6344  0.0582
10364TIP3   OH252582   1.648   0.567   2.434 -0.1800  0.2018 -0.1384
10364TIP3    H152583   1.695   0.509   2.373 -0.8877 -0.1514 -0.3657
10364TIP3    H252584   1.714   0.596   2.496  0.8045  1.4795 -1.7503
10365TIP3   OH252585   1.902   2.713   3.410  0.4803 -0.5762 -0.3153
10365TIP3    H152586   1.897   2.712   3.506  0.6742 -1.2181 -0.3110
10365TIP3    H252587   1.919   2.805   3.388 -0.0589 -0.3395  0.2411
10366TIP3   OH252588   3.141   5.862   3.902  0.1289 -0.4169  0.2798
10366TIP3    H152589   3.149   5.835   3.811 -1.3962  0.1346 -0.0320
10366TIP3    H252590   3.083   5.939   3.900  0.4072 -0.1415  1.6610
10367TIP3   OH252591   1.829   3.224   0.142  0.6847  0.1721  0.3672
10367TIP3    H152592   1.854   3.264   0.225  1.4886 -0.3841  0.3959
10367TIP3    H252593   1.794   3.297   0.090 -2.0876  0.0842  2.0540
10368TIP3   OH252594   0.624   3.459  13.604  0.0439  0.2312 -0.0314
10368TIP3    H152595   0.675   3.487  13.528 -1.1712 -0.2973 -1.0408
10368TIP3    H252596   0.548   3.415  13.567 -1.1335  0.9823  1.4889
10369TIP3   OH252597   1.280   4.076   6.520 -0.0175 -0.2979 -0.2176
10369TIP3    H152598   1.319   4.065   6.434 -0.4672 -0.2063 -0.4347
10369TIP3    H252599   1.310   4.000   6.571  0.7665 -0.0149 -0.2588
10370TIP3   OH252600   5.758   5.668  12.591 -0.3492 -0.3642 -0.2761
10370TIP3    H152601   5.671   5.633  12.571 -0.5956  0.1060 -0.0526
10370TIP3    H252602   5.769   5.651  12.684  0.0583 -0.9733 -0.4353
10371TIP3   OH252603   1.260   3.570  15.016  0.1046 -0.9994 -0.3638
10371TIP3    H152604   1.168   3.594  15.005  0.5962  1.0538 -0.2212
10371TIP3    H252605   1.265   3.535  15.104  0.1020  2.3155  1.0225
10372TIP3   OH252606   2.491   4.180  13.500 -0.1377 -0.3537 -0.3520
10372TIP3    H152607   2.422   4.193  13.564 -0.8396 -0.9393 -0.9826
10372TIP3    H252608   2.458   4.218  13.419  0.9257  0.7821 -0.2743
10373TIP3   OH252609   2.281   1.340   4.246  0.2997  0.1028 -0.2806
10373TIP3    H152610   2.206   1.290   4.214  1.3650 -2.6264  1.3123
10373TIP3    H252611   2.316   1.383   4.168 -0.1611 -2.3465 -1.9055
10374TIP3   OH252612   1.411   3.223  13.297 -0.1517 -0.2687  0.3329
10374TIP3    H152613   1.373   3.299  13.252  0.7472  0.7845  1.3084
10374TIP3    H252614   1.396   3.241  13.390  3.0423  0.3829  0.7671
10375TIP3   OH252615   4.905   4.604   3.902  0.6609  0.1333 -0.8955
10375TIP3    H152616   4.978   4.631   3.957  0.4452  0.6312 -0.8540
10375TIP3    H252617   4.937   4.527   3.855  0.4743 -0.9936  0.7735
10376TIP3   OH252618   2.351   3.564  13.008  0.0709  0.1052 -0.3470
10376TIP3    H152619   2.298   3.489  12.982 -0.0271  0.0148  0.1124
10376TIP3    H252620   2.306   3.600  13.084  0.7108 -0.0163  0.0933
10377TIP3   OH252621   5.733   1.187   3.206  0.0159  0.2070 -0.0663
10377TIP3    H152622   5.809   1.129   3.198  0.9788  1.4659 -0.2043
10377TIP3    H252623   5.738   1.244   3.129 -0.0320  1.4823  0.8470
10378TIP3   OH252624   1.002   2.413  16.576  0.0463  0.0651  0.2747
10378TIP3    H152625   0.985   2.349  16.506  0.5329  1.4068 -1.0968
10378TIP3    H252626   1.094   2.438  16.564  0.2867 -0.0656  1.7311
10379TIP3   OH252627   6.780   5.898  13.908  0.0730 -0.4894  0.2843
10379TIP3    H152628   6.785   5.923  13.815  1.3678 -1.5229  0.0632
10379TIP3    H252629   6.729   5.817  13.908  1.3557 -1.2970  0.3134
10380TIP3   OH252630   3.843   0.868   4.368  0.3260 -0.2532  0.2249
10380TIP3    H152631   3.757   0.877   4.408  0.1124  0.9671 -0.4930
10380TIP3    H252632   3.828   0.813   4.291  0.3831 -0.8943  0.6618
10381TIP3   OH252633   2.765   5.601  10.495 -0.5861 -0.3314 -0.0744
10381TIP3    H152634   2.860   5.607  10.486 -0.5437 -1.8209 -0.7841
10381TIP3    H252635   2.732   5.684  10.459  0.4568  0.4046  0.6464
10382TIP3   OH252636   0.526   6.363   3.686  0.9678 -0.0685  0.3085
10382TIP3    H152637   0.565   6.395   3.768  0.0994  0.8247  0.3750
10382TIP3    H252638   0.443   6.323   3.713  1.6633 -1.7013  0.1244
10383TIP3   OH252639   2.900   6.001  11.941  0.0291  0.0654 -0.4404
10383TIP3    H152640   2.921   6.074  12.000 -2.9738 -0.0837  0.8924
10383TIP3    H252641   2.861   5.935  11.998 -0.4553 -1.1924 -2.2077
10384TIP3   OH252642   1.870   6.324   2.608 -0.7320  0.4603 -0.2246
10384TIP3    H152643   1.802   6.348   2.546  0.9626  2.3984 -1.4081
10384TIP3    H252644   1.856   6.383   2.682 -0.7794  0.3737 -0.1648
10385TIP3   OH252645   0.299   2.980  15.751 -0.2745 -0.0593  0.7623
10385TIP3    H152646   0.387   3.000  15.782 -0.6119  0.8042  1.1738
10385TIP3    H252647   0.267   3.062  15.713 -0.7866 -0.4505  0.3301
10386TIP3   OH252648   2.906   5.357   2.342 -0.3199  0.4524 -0.1779
10386TIP3    H152649   2.957   5.332   2.419 -0.1587 -0.3223 -0.5255
10386TIP3    H252650   2.958   5.325   2.267 -2.1033 -1.9259 -0.4863
10387TIP3   OH252651   2.099   4.569  15.596 -0.0110 -0.5820  0.4702
10387TIP3    H152652   2.050   4.632  15.649  0.4308 -0.4098  0.6793
10387TIP3    H252653   2.042   4.492  15.592 -0.9941  0.1757 -0.6173
10388TIP3   OH252654   2.772   4.402  15.717  0.9074 -0.4991 -0.4646
10388TIP3    H152655   2.703   4.413  15.652 -1.1826  0.4432  1.8333
10388TIP3    H252656   2.758   4.314  15.753  0.8254 -0.2603  0.0925
10389TIP3   OH252657   0.959   2.335  16.063 -0.0838 -0.2685  0.2893
10389TIP3    H152658   1.002   2.419  16.074  0.3384 -0.6407  1.5550
10389TIP3    H252659   1.031   2.271  16.062 -0.3518 -0.5743 -1.2518
10390TIP3   OH252660   2.869   3.276   3.544 -0.7918 -0.2157 -0.4591
10390TIP3    H152661   2.808   3.271   3.618 -1.8721 -1.5699 -1.4192
10390TIP3    H252662   2.941   3.217   3.568  1.4716  3.2738  1.8076
10391TIP3   OH252663   1.320   2.082  15.725 -0.3700  0.0210 -0.1877
10391TIP3    H152664   1.258   2.010  15.709  0.5627 -0.6303 -0.9443
10391TIP3    H252665   1.289   2.153  15.668 -0.1603 -0.4659 -0.9279
10392TIP3   OH252666   1.715   1.445  11.650 -0.5809  0.0667  0.1112
10392TIP3    H152667   1.639   1.434  11.593 -0.3915 -0.0579 -0.1163
10392TIP3    H252668   1.787   1.401  11.604 -0.5346 -0.4380  0.6695
10393TIP3   OH252669   0.462   5.092   4.524 -0.6513 -0.5736  0.4097
10393TIP3    H152670   0.382   5.051   4.491  0.2421 -2.4363  0.5103
10393TIP3    H252671   0.530   5.064   4.463  0.4908 -1.6221  2.1437
10394TIP3   OH252672   1.060   5.741   3.104 -0.0063  0.2054 -0.4763
10394TIP3    H152673   1.085   5.823   3.061  0.5037  0.5510  0.4429
10394TIP3    H252674   1.089   5.753   3.195 -1.9824 -0.0890  0.2113
10395TIP3   OH252675   6.219   0.829   2.669  0.2062  0.2490 -0.1956
10395TIP3    H152676   6.243   0.815   2.578  0.0118 -2.8836  0.1844
10395TIP3    H252677   6.289   0.788   2.719 -0.9905 -0.3255  1.0315
10396TIP3   OH252678   6.176   6.536  17.102  0.2320  0.2646  0.2900
10396TIP3    H152679   6.242   6.468  17.089  1.3015  1.0105  1.7509
10396TIP3    H252680   6.184   6.592  17.025 -0.7799 -1.3310 -1.0142
10397TIP3   OH252681   3.144   3.094   0.280  0.0083  0.3829 -0.1233
10397TIP3    H152682   3.184   3.032   0.219  0.6401  1.6450 -1.0295
10397TIP3    H252683   3.134   3.045   0.361  3.0246 -0.1189  0.0190
10398TIP3   OH252684   1.095   2.642  14.312  0.0920  0.0108 -0.1726
10398TIP3    H152685   1.115   2.560  14.358 -1.2389 -0.2115  0.0268
10398TIP3    H252686   1.153   2.641  14.236 -1.1582 -1.9550 -1.1316
10399TIP3   OH252687   4.225   1.188  16.604 -0.0049 -0.0621 -0.8149
10399TIP3    H152688   4.138   1.162  16.634 -1.0294  3.1052 -0.8775
10399TIP3    H252689   4.228   1.158  16.512 -0.5786 -1.1458 -0.4996
10400TIP3   OH252690   5.550   0.100  13.482 -0.1554  0.5153 -0.3299
10400TIP3    H152691   5.537   0.069  13.571  1.7714 -1.1694 -0.5954
10400TIP3    H252692   5.475   0.157  13.465 -1.9408 -1.2546  1.4034
10401TIP3   OH252693   4.648   0.329   0.605  0.2130 -0.0495  0.2550
10401TIP3    H152694   4.571   0.372   0.566  2.1572  1.8355 -1.6726
10401TIP3    H252695   4.656   0.367   0.692 -0.4041  0.5478  0.0522
10402TIP3   OH252696   0.005   4.158  17.147 -0.1445 -0.3052  0.7903
10402TIP3    H152697   0.047   4.244  17.149  0.3974 -0.5740  1.1611
10402TIP3    H252698   0.006   4.133  17.054 -0.1705  0.0268  0.7012
10403TIP3   OH252699   3.746   0.904  10.668  0.3852  0.9657  0.4358
10403TIP3    H152700   3.759   0.816  10.632 -2.1474  0.0335  1.7092
10403TIP3    H252701   3.733   0.960  10.591  1.6246  0.1959 -0.3550
10404TIP3   OH252702   2.354   3.035   0.376  0.2919 -0.3310  0.1618
10404TIP3    H152703   2.314   2.979   0.444 -0.9513 -1.3379 -1.3600
10404TIP3    H252704   2.308   3.118   0.384 -0.6689 -0.8132 -0.1803
10405TIP3   OH252705   2.692   3.013   1.249 -0.1358  0.2493  0.3495
10405TIP3    H152706   2.709   3.105   1.229 -0.2672  0.4536  1.1631
10405TIP3    H252707   2.607   3.014   1.294  0.2908 -0.1718  1.1594
10406TIP3   OH252708   0.960   3.892  13.873  0.6971 -0.2955 -0.1008
10406TIP3    H152709   1.035   3.851  13.914  1.6462  0.5227 -0.9939
10406TIP3    H252710   0.990   3.916  13.786  0.0450  1.8531  0.2323
10407TIP3   OH252711   6.195   0.033   2.076  0.7346  0.5107  0.2531
10407TIP3    H152712   6.276   0.037   2.127  1.5159 -0.2531 -0.8858
10407TIP3    H252713   6.125   0.048   2.139  1.7251  0.2468  1.4179
10408TIP3   OH252714   1.033   6.132   0.467  0.3107  0.0200  0.2848
10408TIP3    H152715   1.038   6.051   0.417 -2.4837 -0.2395  0.3572
10408TIP3    H252716   1.112   6.132   0.522  0.9993 -1.9761 -0.6839
10409TIP3   OH252717   2.576   6.150   0.349  0.2533 -0.4778 -0.8460
10409TIP3    H152718   2.611   6.214   0.287  0.4338  0.0362 -0.2245
10409TIP3    H252719   2.653   6.122   0.399  0.1107 -0.8942 -0.8644
10410TIP3   OH252720   4.321   0.857   2.455 -0.1682  0.9077 -0.0482
10410TIP3    H152721   4.301   0.791   2.390 -0.7416  0.0393  0.9984
10410TIP3    H252722   4.288   0.939   2.417 -3.2565 -0.0433  0.4316
10411TIP3   OH252723   5.550   2.482   1.599  0.4985 -0.0497 -0.3241
10411TIP3    H152724   5.623   2.520   1.649  0.7377 -0.7955 -0.0953
10411TIP3    H252725   5.478   2.543   1.612  1.3090  1.1125 -1.2143
10412TIP3   OH252726   3.113   1.295   3.578  0.5800 -0.1662 -0.5902
10412TIP3    H152727   3.078   1.328   3.661 -0.6686  1.6865 -1.8084
10412TIP3    H252728   3.208   1.303   3.587  0.5331 -1.1442  1.0999
10413TIP3   OH252729   0.271   3.974   1.439  0.5276 -0.1259 -0.1818
10413TIP3    H152730   0.304   4.062   1.420  1.0958  0.0726  1.6707
10413TIP3    H252731   0.178   3.988   1.458 -0.1912 -0.3965 -3.1727
10414TIP3   OH252732   6.278   0.263   2.219  0.4014 -0.3677  0.0022
10414TIP3    H152733   6.314   0.224   2.299 -0.6718 -1.5796 -0.0844
10414TIP3    H252734   6.200   0.210   2.200  0.5546  0.0177 -1.7497
10415TIP3   OH252735   3.426   6.546  11.887 -0.5001  0.5659 -0.1559
10415TIP3    H152736   3.452   6.478  11.949 -0.3648  0.2329 -0.5728
10415TIP3    H252737   3.333   6.558  11.902 -0.1742  1.5282  1.1230
10416TIP3   OH252738   5.295   5.637   2.937  0.2992 -0.3193 -0.2858
10416TIP3    H152739   5.236   5.654   2.864  1.3312 -1.5101 -1.4020
10416TIP3    H252740   5.341   5.720   2.951  1.8090 -0.7505 -2.5444
10417TIP3   OH252741   3.696   4.016   5.529  0.1100 -0.0252 -0.2557
10417TIP3    H152742   3.646   3.949   5.482  0.1590 -1.1769  1.3106
10417TIP3    H252743   3.775   3.971   5.558  1.1588  1.2804 -1.0158
10418TIP3   OH252744   4.746   2.551  14.446  0.2701 -0.4238 -1.0448
10418TIP3    H152745   4.832   2.537  14.487 -0.1211 -0.0519 -0.0852
10418TIP3    H252746   4.698   2.471  14.464 -0.4533  0.3546  0.6421
10419TIP3   OH252747   6.571   0.223   4.547  0.1266  0.6929 -0.4562
10419TIP3    H152748   6.509   0.276   4.497 -0.4988 -0.1058 -0.5536
10419TIP3    H252749   6.599   0.279   4.619 -2.6244  0.2471  1.0355
10420TIP3   OH252750   4.463   0.826   1.985 -0.1756  0.0541  0.2851
10420TIP3    H152751   4.452   0.813   2.080  0.9017  0.1186  0.4168
10420TIP3    H252752   4.390   0.884   1.961 -0.6491 -0.2262  1.0112
10421TIP3   OH252753   1.273   4.679   4.871 -0.1613  0.2045 -0.2617
10421TIP3    H152754   1.198   4.647   4.821 -0.7654  0.4114  0.5009
10421TIP3    H252755   1.235   4.732   4.941  0.6063 -0.8590  1.0048
10422TIP3   OH252756   2.953   2.606   2.124  0.5354 -0.4719  0.2179
10422TIP3    H152757   2.932   2.643   2.209  0.8654 -1.6670  0.8265
10422TIP3    H252758   3.049   2.606   2.120  0.5121  0.2975 -0.4740
10423TIP3   OH252759   3.096   6.269  14.243  0.5244  0.2215 -0.0275
10423TIP3    H152760   3.180   6.315  14.242  0.2890  0.6766  0.4183
10423TIP3    H252761   3.095   6.219  14.161  2.0783 -1.3717  0.8916
10424TIP3   OH252762   5.187   4.924   3.380 -0.4790  0.1283 -0.1848
10424TIP3    H152763   5.270   4.878   3.366 -0.8059 -1.3558  2.4215
10424TIP3    H252764   5.194   5.003   3.325  1.8499 -0.8985 -1.4569
10425TIP3   OH252765   4.221   1.638  15.907  0.0406 -0.2054 -0.2460
10425TIP3    H152766   4.222   1.552  15.950  0.6498 -0.4182 -0.6692
10425TIP3    H252767   4.272   1.695  15.964  0.7492 -0.4584 -0.6176
10426TIP3   OH252768   4.960   6.230   2.109 -0.2549 -0.0493 -0.2773
10426TIP3    H152769   5.021   6.259   2.177 -0.8636 -0.0800  0.2890
10426TIP3    H252770   4.969   6.134   2.108  0.2158 -0.0045 -0.6851
10427TIP3   OH252771   6.507   1.324   0.601 -0.4583  0.2584  0.0869
10427TIP3    H152772   6.541   1.237   0.578 -0.0998  0.6873 -1.0749
10427TIP3    H252773   6.447   1.345   0.530  1.2199  1.9319 -0.8790
10428TIP3   OH252774   2.746   0.080   5.793 -0.1262  0.1012  0.0208
10428TIP3    H152775   2.683   0.151   5.787 -1.0719 -0.6485  0.9563
10428TIP3    H252776   2.825   0.114   5.751 -1.3410  0.8234 -1.7451
10429TIP3   OH252777   1.654   5.295   3.191 -0.2042 -0.3617  0.3204
10429TIP3    H152778   1.736   5.271   3.147 -0.6299 -0.4334 -0.4263
10429TIP3    H252779   1.679   5.306   3.283  0.8318  0.5340 -0.0560
10430TIP3   OH252780   1.114   4.407   3.904 -0.2816 -0.5035 -0.6445
10430TIP3    H152781   1.153   4.458   3.834 -0.4155  0.0642 -0.3093
10430TIP3    H252782   1.032   4.452   3.925  0.2192 -0.0905  0.5274
10431TIP3   OH252783   0.528   4.069   5.940  0.0636 -0.1220  0.6958
10431TIP3    H152784   0.512   4.085   6.033  0.6813 -0.1429  0.8071
10431TIP3    H252785   0.447   4.094   5.897 -1.7948 -4.0779  1.6440
10432TIP3   OH252786   3.254   1.576   2.347 -0.7097 -0.3784 -0.0613
10432TIP3    H152787   3.218   1.495   2.313  1.2069 -1.1103 -0.3813
10432TIP3    H252788   3.309   1.610   2.277 -0.1917  0.3367  0.6784
10433TIP3   OH252789   0.671   1.742  16.351 -0.3770 -0.3874 -0.6768
10433TIP3    H152790   0.730   1.759  16.425 -0.0968 -0.8128 -0.7966
10433TIP3    H252791   0.726   1.753  16.274  0.3769 -3.7346 -0.7281
10434TIP3   OH252792   1.804   4.036   1.832 -0.2188  0.1174 -0.0149
10434TIP3    H152793   1.764   4.056   1.747  1.6080  1.0332 -0.6808
10434TIP3    H252794   1.762   3.955   1.859 -0.6324 -0.3417 -1.9189
10435TIP3   OH252795   3.203   2.404  15.341 -0.4848 -0.1139  0.0658
10435TIP3    H152796   3.113   2.372  15.339 -0.6526  0.3919 -0.7581
10435TIP3    H252797   3.198   2.488  15.387 -0.4171 -0.1398  0.1210
10436TIP3   OH252798   3.323   3.116  12.182  0.9947 -0.4568  0.2408
10436TIP3    H152799   3.287   3.184  12.239  1.1454 -0.8318  0.7878
10436TIP3    H252800   3.278   3.036  12.209  0.6345 -0.5263 -0.5758
10437TIP3   OH252801   4.952   3.543   0.436 -0.7249 -0.2801 -0.0831
10437TIP3    H152802   4.947   3.625   0.387  0.5085 -0.0208  0.2032
10437TIP3    H252803   4.864   3.530   0.472 -1.2608  0.2454 -1.2043
10438TIP3   OH252804   0.753   6.221   5.760 -0.3550  0.6188 -0.4892
10438TIP3    H152805   0.775   6.251   5.849  1.1165  0.6987 -0.8672
10438TIP3    H252806   0.733   6.128   5.770 -1.8661  0.9989  0.1889
10439TIP3   OH252807   4.452   1.232  14.577  0.1557  0.0312 -0.3259
10439TIP3    H152808   4.540   1.265  14.597  0.7182 -1.5660 -0.1272
10439TIP3    H252809   4.409   1.306  14.533  0.9054  1.5063  1.3591
10440TIP3   OH252810   0.533   0.009  12.805 -0.0327  0.4972 -0.5918
10440TIP3    H152811   0.628   0.014  12.815 -0.1725  0.4075  0.8719
10440TIP3    H252812   0.519   0.014  12.711  1.4562 -0.0241 -0.8594
10441TIP3   OH252813   0.026   3.862  15.447 -0.1821  0.3891  0.6601
10441TIP3    H152814   0.022   3.911  15.529 -1.0425 -0.6648  1.2464
10441TIP3    H252815   0.092   3.795  15.462  0.3662  0.8018  0.1478
10442TIP3   OH252816   4.208   1.138   3.109 -0.3403 -0.2279  0.1736
10442TIP3    H152817   4.167   1.116   3.192 -0.9518 -0.6908 -0.2477
10442TIP3    H252818   4.144   1.113   3.042  1.0667 -2.0209 -0.5517
10443TIP3   OH252819   6.221   1.284  14.447 -0.3136  0.0835 -0.3744
10443TIP3    H152820   6.215   1.199  14.403  2.6858 -0.9970  1.1649
10443TIP3    H252821   6.191   1.267  14.536  1.9876  0.1624  0.4568
10444TIP3   OH252822   0.764   3.826  13.720  0.3379 -0.5500  0.4773
10444TIP3    H152823   0.811   3.786  13.647 -0.3551  0.9297 -0.8237
10444TIP3    H252824   0.831   3.843  13.785  1.8208  2.1852 -1.6442
10445TIP3   OH252825   6.076   1.064   1.617  0.0037 -0.2133 -0.0563
10445TIP3    H152826   6.106   1.039   1.530  1.9029 -0.2064  0.5666
10445TIP3    H252827   6.094   0.987   1.672  1.6810  0.8445  0.9359
10446TIP3   OH252828   6.248   0.613  15.740 -0.2054 -0.0648  0.3423
10446TIP3    H152829   6.236   0.613  15.835 -1.4852  1.9687  0.2122
10446TIP3    H252830   6.202   0.692  15.710  0.9828 -0.1756 -1.8665
10447TIP3   OH252831   6.734   3.691  12.899 -0.1391 -0.1983 -0.2715
10447TIP3    H152832   6.815   3.739  12.912  0.1177 -1.3479  2.9425
10447TIP3    H252833   6.761   3.599  12.896 -1.3684 -0.6765  1.9969
10448TIP3   OH252834   2.683   1.170   3.090  0.0553 -0.1821  0.3397
10448TIP3    H152835   2.775   1.145   3.099  0.1556  0.1502  0.2608
10448TIP3    H252836   2.640   1.091   3.057 -0.1351 -1.1051  2.7313
10449TIP3   OH252837   0.871   2.029  16.212 -0.1837 -0.0410  0.3851
10449TIP3    H152838   0.934   1.966  16.176  0.6135  0.8844  0.1451
10449TIP3    H252839   0.817   2.055  16.138  0.0014  0.1526  0.3173
10450TIP3   OH252840   0.821   6.624   2.832 -0.3095 -0.3184  0.0386
10450TIP3    H152841   0.788   6.534   2.834 -1.3268 -0.0912 -3.7592
10450TIP3    H252842   0.749   6.677   2.869  0.4500 -1.0346  2.6621
10451TIP3   OH252843   0.505   5.597   0.563 -0.4991 -0.6396 -0.2267
10451TIP3    H152844   0.484   5.688   0.539 -1.0010 -0.8658 -0.6619
10451TIP3    H252845   0.438   5.574   0.627  0.8195 -0.0446  1.4186
10452TIP3   OH252846   4.174   3.868  12.711 -0.1141 -0.2521 -0.4084
10452TIP3    H152847   4.197   3.848  12.621 -0.2873  0.5930 -0.6505
10452TIP3    H252848   4.221   3.949  12.730 -0.1096 -0.4075  0.2446
10453TIP3   OH252849   2.376   1.374   5.065 -0.1378  0.1329  0.6208
10453TIP3    H152850   2.455   1.319   5.065 -0.9106 -1.0037  0.5219
10453TIP3    H252851   2.378   1.418   4.980  1.1566  1.2560  1.2170
10454TIP3   OH252852   1.071   6.238   5.756  0.2332  0.0720 -0.0803
10454TIP3    H152853   1.106   6.305   5.815  1.0623 -0.5329  0.1139
10454TIP3    H252854   0.978   6.261   5.747  0.4218  1.0198  0.2928
10455TIP3   OH252855   1.080   4.086  11.933 -0.8336 -0.8118 -0.3693
10455TIP3    H152856   1.031   4.097  11.852  2.1877 -1.0602 -2.2862
10455TIP3    H252857   1.103   3.993  11.935 -2.4514 -1.2285  1.7713
10456TIP3   OH252858   0.383   3.227   2.609  0.2070 -0.6124  0.0902
10456TIP3    H152859   0.300   3.266   2.581  0.5345  1.3806  1.7243
10456TIP3    H252860   0.369   3.206   2.702  1.3633 -0.6656  0.2585
10457TIP3   OH252861   5.319   5.333   4.208 -0.1998 -0.1498 -0.8722
10457TIP3    H152862   5.262   5.256   4.202 -0.0020 -0.6065  2.2946
10457TIP3    H252863   5.261   5.407   4.192 -0.5804 -0.8636 -2.9901
10458TIP3   OH252864   0.902   6.316  11.699  0.1204 -0.5153 -0.2157
10458TIP3    H152865   0.919   6.240  11.643 -0.7324 -1.0266  0.2237
10458TIP3    H252866   0.853   6.376  11.644 -0.1720 -0.7527 -0.2139
10459TIP3   OH252867   2.899   1.756   2.314  0.4639 -0.1920 -0.6095
10459TIP3    H152868   2.814   1.728   2.349  0.0829 -0.6908 -1.8935
10459TIP3    H252869   2.877   1.820   2.246  1.2016  0.9134  0.1803
10460TIP3   OH252870   5.967   4.777  15.623  0.0403  0.3903  0.2061
10460TIP3    H152871   5.985   4.848  15.562 -0.1194  0.4351  0.2123
10460TIP3    H252872   6.032   4.788  15.693  0.7247 -0.1172 -0.3447
10461TIP3   OH252873   0.464   4.500  15.168  0.0581  0.1304  0.0042
10461TIP3    H152874   0.406   4.574  15.187  1.0122  0.8037  0.2728
10461TIP3    H252875   0.513   4.526  15.090 -0.2854 -0.6109 -0.4692
10462TIP3   OH252876   5.148   6.738  13.505 -0.0134  0.0261  0.4627
10462TIP3    H152877   5.129   6.665  13.446  0.8420  0.6627 -0.6137
10462TIP3    H252878   5.094   6.721  13.582  0.7607 -2.1708  0.5679
10463TIP3   OH252879   6.802   5.787  17.152 -0.5437  0.1277 -0.0176
10463TIP3    H152880   6.732   5.789  17.217 -0.8105  1.0945 -0.3326
10463TIP3    H252881   6.879   5.756  17.201 -1.3768 -1.8012  0.1248
10464TIP3   OH252882   3.339   6.493   1.293 -0.5632 -0.2202  0.3169
10464TIP3    H152883   3.377   6.427   1.350 -2.1120 -2.3789 -1.0772
10464TIP3    H252884   3.313   6.445   1.215 -1.2416  2.1489 -0.9655
10465TIP3   OH252885   2.957   2.720   2.702  0.0824 -0.2047 -0.4039
10465TIP3    H152886   2.971   2.676   2.786 -0.2837 -0.1323 -0.3030
10465TIP3    H252887   2.903   2.658   2.652 -0.3165  0.0735 -0.3138
10466TIP3   OH252888   5.925   0.934  13.794 -0.0802 -0.4880 -0.0112
10466TIP3    H152889   5.832   0.957  13.791 -0.4027 -1.8320 -0.5990
10466TIP3    H252890   5.934   0.881  13.874  0.5862  1.2980  1.1341
10467TIP3   OH252891   0.219   2.768  13.621  0.6484  0.3685 -0.6620
10467TIP3    H152892   0.246   2.796  13.708 -1.5738  0.6649 -0.0516
10467TIP3    H252893   0.248   2.677  13.614  1.6505  0.6296  0.0221
10468TIP3   OH252894   6.703   3.718  13.232 -0.1131  0.2354  0.2829
10468TIP3    H152895   6.755   3.676  13.163  1.5657  2.0757  0.3762
10468TIP3    H252896   6.642   3.775  13.186  0.2685  0.6323  0.2577
10469TIP3   OH252897   4.767   6.292  11.428  0.0218 -0.4905  0.2051
10469TIP3    H152898   4.701   6.257  11.368  0.1843 -0.3044 -0.0812
10469TIP3    H252899   4.850   6.255  11.398  0.1830  0.0615 -0.0430
10470TIP3   OH252900   4.505   0.327   3.613 -0.1678  0.1646  0.2849
10470TIP3    H152901   4.414   0.351   3.597 -0.2836 -0.9815 -0.7620
10470TIP3    H252902   4.507   0.232   3.606  1.3991  0.2857 -1.1945
10471TIP3   OH252903   1.894   0.654  12.493  0.7712  0.0522  0.1081
10471TIP3    H152904   1.942   0.678  12.573 -1.5286  0.3508  1.4407
10471TIP3    H252905   1.893   0.733  12.440  0.4511  0.4903  0.7625
10472TIP3   OH252906   5.034   3.551   4.418 -0.3351 -0.3724 -0.5919
10472TIP3    H152907   5.123   3.534   4.451 -0.9507 -0.1290  1.2051
10472TIP3    H252908   5.048   3.608   4.342  1.0799 -0.8465 -0.7197
10473TIP3   OH252909   4.537   0.991   3.035 -0.4213 -0.6059  0.1347
10473TIP3    H152910   4.468   1.029   2.980 -0.1834 -0.5417 -0.1180
10473TIP3    H252911   4.615   0.991   2.980 -0.5188 -1.8319 -0.0154
10474TIP3   OH252912   6.737   6.115  15.044 -0.3365 -0.2866  0.3277
10474TIP3    H152913   6.728   6.168  15.123 -0.6828  0.0321  0.0809
10474TIP3    H252914   6.827   6.130  15.015  0.0677 -1.0938  1.1438
10475TIP3   OH252915   4.650   6.792   5.340  0.2420 -0.0645 -0.0295
10475TIP3    H152916   4.673   6.825   5.253  0.0140 -0.2405 -0.1555
10475TIP3    H252917   4.709   6.718   5.355  1.8675  1.3640  0.9178
10476TIP3   OH252918   4.743   1.181   3.217 -0.1330  0.1955  0.2526
10476TIP3    H152919   4.650   1.198   3.199 -0.1040  0.3789  0.2752
10476TIP3    H252920   4.747   1.088   3.237 -0.3625  0.2500  0.5575
10477TIP3   OH252921   4.704   3.435  15.872  0.1207 -0.0601  0.2698
10477TIP3    H152922   4.677   3.353  15.913  0.3014  0.4829  1.5292
10477TIP3    H252923   4.682   3.425  15.780  1.6622 -2.1595  0.1074
10478TIP3   OH252924   6.784   6.326   5.784  0.1362  0.3224 -0.7384
10478TIP3    H152925   6.689   6.325   5.771  0.1438  0.8072 -0.8429
10478TIP3    H252926   6.797   6.380   5.862  0.1835 -1.4348  0.4985
10479TIP3   OH252927   3.954   5.474   6.086 -0.1615  0.8447  0.4285
10479TIP3    H152928   3.902   5.448   6.162 -0.5070  0.2623  0.0042
10479TIP3    H252929   4.009   5.546   6.117  1.2205 -0.7490  1.8169
10480TIP3   OH252930   6.380   1.836   0.840 -0.7139 -0.0055  0.2241
10480TIP3    H152931   6.302   1.787   0.812 -1.1698  1.3350 -0.9029
10480TIP3    H252932   6.345   1.912   0.887 -0.1220  0.9168 -0.8032
10481TIP3   OH252933   2.154   1.862  15.781  0.0949 -0.0047  0.4039
10481TIP3    H152934   2.158   1.911  15.863 -1.1346  0.0814  0.4151
10481TIP3    H252935   2.231   1.890  15.733  0.9910 -0.2728  1.6476
10482TIP3   OH252936   3.432   4.580  11.352  0.4600 -0.2590 -0.4186
10482TIP3    H152937   3.487   4.629  11.291 -0.0218  0.4797 -0.2622
10482TIP3    H252938   3.427   4.492  11.314  0.4378  0.1020 -1.2615
10483TIP3   OH252939   2.612   5.060   1.118  1.0897  0.4371  0.1625
10483TIP3    H152940   2.528   5.014   1.123  0.9669  0.5781 -0.6162
10483TIP3    H252941   2.673   4.996   1.082  1.0507  0.6998 -0.3763
10484TIP3   OH252942   3.455   5.791  15.986 -0.0943 -0.4091 -0.5044
10484TIP3    H152943   3.403   5.724  16.028 -0.5019 -0.1272 -0.5587
10484TIP3    H252944   3.478   5.851  16.057 -2.2196  0.9965 -0.9629
10485TIP3   OH252945   6.806   2.155   2.464  0.0372  0.0999  0.3189
10485TIP3    H152946   6.895   2.181   2.490  0.1521 -0.2500  0.2902
10485TIP3    H252947   6.749   2.220   2.504  0.2511 -0.1291  0.9977
10486TIP3   OH252948   0.674   1.681   5.572  0.3970 -0.2294  0.2869
10486TIP3    H152949   0.655   1.728   5.491  0.3932  0.6609  0.8076
10486TIP3    H252950   0.769   1.670   5.573  0.6032  1.5121  1.1306
10487TIP3   OH252951   4.694   2.876   0.498  0.3626 -0.1106  0.0734
10487TIP3    H152952   4.618   2.912   0.453 -0.1378  0.4758  1.3993
10487TIP3    H252953   4.768   2.927   0.465 -0.1332  1.0064  0.6767
10488TIP3   OH252954   2.390   3.507   1.041 -0.4584 -0.1540  0.4973
10488TIP3    H152955   2.482   3.500   1.016 -0.8739  1.1644 -1.4790
10488TIP3    H252956   2.390   3.558   1.122  0.3812  2.0597 -0.8707
10489TIP3   OH252957   2.773   1.114  16.997  0.0255  0.5555  0.4458
10489TIP3    H152958   2.799   1.099  16.906 -2.3271  0.9158 -0.3302
10489TIP3    H252959   2.854   1.139  17.041  0.9791  1.7409 -1.8620
10490TIP3   OH252960   6.162   0.049   0.014  0.0591 -0.2116 -0.1875
10490TIP3    H152961   6.076   0.056   0.056 -0.3692 -1.2252 -0.8800
10490TIP3    H252962   6.143   0.020  -0.075  1.2467 -2.4913  0.2629
10491TIP3   OH252963   5.231   0.993  13.447 -0.2522 -0.3616 -0.1984
10491TIP3    H152964   5.314   0.967  13.409 -0.6577 -3.4258  0.9026
10491TIP3    H252965   5.169   0.989  13.374  0.1778  0.1025 -0.5979
10492TIP3   OH252966   1.284   0.115  16.349 -0.1793 -0.3128 -0.0804
10492TIP3    H152967   1.251   0.203  16.329 -1.1330 -0.5156  0.5629
10492TIP3    H252968   1.206   0.065  16.372  0.6617 -0.6190  2.1641
10493TIP3   OH252969   3.509   1.544   3.634 -0.0120 -0.4072 -1.0447
10493TIP3    H152970   3.527   1.587   3.551  0.3403 -1.1970 -1.3882
10493TIP3    H252971   3.566   1.587   3.697  1.6304 -1.5327 -1.7284
10494TIP3   OH252972   1.343   4.346   5.438  0.4864 -0.0236 -0.5957
10494TIP3    H152973   1.339   4.251   5.434  0.7298 -0.0393 -0.5302
10494TIP3    H252974   1.259   4.373   5.473  1.7538 -0.4455  2.9987
10495TIP3   OH252975   0.288   3.953  14.620 -0.1122  0.0010  0.3295
10495TIP3    H152976   0.370   3.967  14.667 -0.6177 -0.7254  1.4586
10495TIP3    H252977   0.289   4.018  14.550  0.6524  1.1203  1.3566
10496TIP3   OH252978   6.359   6.247   2.529 -0.3349 -0.1599 -0.9002
10496TIP3    H152979   6.330   6.328   2.487  0.2111 -0.5061 -1.9640
10496TIP3    H252980   6.441   6.270   2.572  0.5501 -0.4769 -2.3860
10497TIP3   OH252981   6.558   0.120   4.155  0.4170  0.0343  0.5129
10497TIP3    H152982   6.502   0.110   4.079  1.4881 -0.1730 -0.2587
10497TIP3    H252983   6.555   0.035   4.199 -0.1650  0.1412  0.6831
10498TIP3   OH252984   6.819   4.998   4.974 -0.2805  0.1238  0.1687
10498TIP3    H152985   6.793   5.090   4.977 -0.8616 -0.0883  1.9822
10498TIP3    H252986   6.836   4.974   5.065  0.1953 -1.4761 -0.3198
10499TIP3   OH252987   0.007   4.244   0.988 -0.2720 -0.5919  0.0864
10499TIP3    H152988  -0.030   4.332   0.988  0.8353 -0.0967  1.1557
10499TIP3    H252989  -0.002   4.213   0.898 -0.0659  0.8812 -0.4534
10500TIP3   OH252990   4.410   2.544   2.225  0.0305 -0.0762 -0.2024
10500TIP3    H152991   4.360   2.464   2.236 -1.8317  0.9139 -1.1718
10500TIP3    H252992   4.457   2.533   2.142  1.1981 -0.8666  0.5442
10501TIP3   OH252993   3.207   2.385  12.649  0.0039 -0.1530 -0.1286
10501TIP3    H152994   3.207   2.457  12.586  2.1879 -0.0220 -0.0216
10501TIP3    H252995   3.129   2.399  12.702 -1.8372 -0.2085 -2.7190
10502TIP3   OH252996   6.232   3.752   1.578 -0.6978  0.8968 -0.6443
10502TIP3    H152997   6.318   3.712   1.581 -0.7246  0.7604 -1.5827
10502TIP3    H252998   6.247   3.838   1.538 -1.2580  0.1492 -2.5160
10503TIP3   OH252999   4.415   6.547   4.649 -0.2606  0.1653 -0.0856
10503TIP3    H153000   4.427   6.472   4.707 -1.7110 -0.2353 -0.2852
10503TIP3    H253001   4.504   6.581   4.635  0.2535 -0.6399  1.1489
10504TIP3   OH253002   5.276   2.722  16.031  0.0634  0.0811  0.8566
10504TIP3    H153003   5.328   2.728  16.111 -0.7374  0.7059  1.3286
10504TIP3    H253004   5.255   2.812  16.008  1.2815 -0.0032 -0.7184
10505TIP3   OH253005   5.731   2.979  16.368  0.4598 -0.6967  0.2189
10505TIP3    H153006   5.738   2.947  16.278 -0.9438 -1.7531  0.4582
10505TIP3    H253007   5.751   2.902  16.422  0.6942 -0.2246  0.8129
10506TIP3   OH253008   1.232   1.497  10.291 -0.0453  0.2139 -0.1726
10506TIP3    H153009   1.232   1.563  10.222  0.2537 -0.4095 -0.7735
10506TIP3    H253010   1.281   1.537  10.363 -0.6806  1.0126 -0.1741
10507TIP3   OH253011   1.184   3.051  13.425  0.7292  0.0761 -0.4323
10507TIP3    H153012   1.147   3.114  13.487  1.2078  1.1478 -1.2219
10507TIP3    H253013   1.178   2.967  13.470 -0.4860  0.5846  0.3948
10508TIP3   OH253014   0.498   0.486  16.810  0.4023  0.1151 -0.1691
10508TIP3    H153015   0.587   0.475  16.843 -0.2404 -0.4820  1.3925
10508TIP3    H253016   0.491   0.420  16.740  1.2184  0.2375 -0.3710
10509TIP3   OH253017   1.351   1.756  15.078 -0.5845  0.2646 -0.7200
10509TIP3    H153018   1.361   1.828  15.140 -1.5180  1.7775 -2.2695
10509TIP3    H253019   1.260   1.730  15.085 -0.0063 -1.5119  0.5885
10510TIP3   OH253020   2.949   5.435   4.913  0.1427 -0.4240  0.3036
10510TIP3    H153021   2.965   5.507   4.851 -2.6268  0.5327  0.6138
10510TIP3    H253022   2.930   5.360   4.857 -1.0917  0.1244 -0.0225
10511TIP3   OH253023   3.565   6.483  17.180 -0.2826  0.2345  0.1843
10511TIP3    H153024   3.570   6.419  17.251  1.5144  0.1216 -0.0064
10511TIP3    H253025   3.533   6.563  17.221  0.3258  0.0421  1.0461
10512TIP3   OH253026   5.573   0.626  14.185  0.0155 -0.8810  0.3259
10512TIP3    H153027   5.632   0.565  14.141 -0.2650 -1.2318  0.4341
10512TIP3    H253028   5.615   0.711  14.174 -0.0258 -0.9699 -0.5744
10513TIP3   OH253029   6.086   2.440   4.510 -0.5546 -0.6628  0.5235
10513TIP3    H153030   6.045   2.401   4.432 -0.8510  0.5525  0.0673
10513TIP3    H253031   6.168   2.477   4.478 -1.4888  1.3713  0.4344
10514TIP3   OH253032   0.316   4.160  14.457 -0.4308  0.8279 -0.3345
10514TIP3    H153033   0.389   4.222  14.462  0.5189 -0.2760 -0.3761
10514TIP3    H253034   0.260   4.196  14.387  1.4269  0.2853 -2.1626
10515TIP3   OH253035   2.729   3.367   5.141  0.9080  0.9784 -0.4311
10515TIP3    H153036   2.765   3.282   5.117  4.2276  2.2388 -0.2246
10515TIP3    H253037   2.704   3.407   5.057  0.3386  0.2581 -0.6109
10516TIP3   OH253038   4.826   5.644   4.163 -0.3163 -0.5156  0.0133
10516TIP3    H153039   4.836   5.709   4.093  1.5997 -1.0486 -0.2497
10516TIP3    H253040   4.863   5.687   4.241 -0.5274 -0.7051  0.2201
10517TIP3   OH253041   2.476   5.077  14.791  0.0932  0.3970 -0.8751
10517TIP3    H153042   2.479   5.091  14.886 -0.6926  1.9521 -1.0620
10517TIP3    H253043   2.446   4.986  14.781 -2.6297  1.0964  0.3692
10518TIP3   OH253044   5.368   4.624   4.013 -0.2931 -0.2162  0.4115
10518TIP3    H153045   5.419   4.678   4.073 -0.9116  0.1313  0.6334
10518TIP3    H253046   5.427   4.608   3.939 -0.4282  1.6135 -0.1313
10519TIP3   OH253047   3.293   3.769  14.738  0.1921  0.3683 -0.0041
10519TIP3    H153048   3.251   3.849  14.705 -3.0685 -0.9610  0.7215
10519TIP3    H253049   3.299   3.712  14.662  0.2557  0.3824 -0.0091
10520TIP3   OH253050   5.720   2.058  16.205 -0.1814 -0.2040 -0.1502
10520TIP3    H153051   5.798   2.113  16.209 -0.2894 -0.0501 -0.1879
10520TIP3    H253052   5.676   2.084  16.124 -0.0453 -0.5943 -0.3537
10521TIP3   OH253053   5.968   1.728   0.575 -0.0285  0.2847 -0.0033
10521TIP3    H153054   5.909   1.801   0.592  0.6047  0.9462 -0.6003
10521TIP3    H253055   6.015   1.715   0.657  1.2409  1.8300 -0.4737
10522TIP3   OH253056   4.261   6.607   3.473  0.2594 -0.0540  0.5303
10522TIP3    H153057   4.345   6.562   3.486  1.2201  1.2472 -1.0548
10522TIP3    H253058   4.250   6.661   3.551  1.8301  1.2199 -0.1127
10523TIP3   OH253059   5.085   1.579   5.560  0.0379  0.1170  0.0653
10523TIP3    H153060   5.136   1.515   5.511  0.1297  0.5938 -0.4709
10523TIP3    H253061   4.996   1.570   5.526 -0.1248 -0.3179  0.5982
10524TIP3   OH253062   2.814   6.728   4.338  0.1144  0.2502  0.0958
10524TIP3    H153063   2.749   6.663   4.312 -0.3105  1.3361 -1.5651
10524TIP3    H253064   2.897   6.680   4.336 -0.4538 -0.8028  1.0042
10525TIP3   OH253065   2.107   5.573  14.469 -0.1476 -0.0452 -0.5178
10525TIP3    H153066   2.125   5.486  14.433 -0.7269  0.1147 -1.1969
10525TIP3    H253067   2.155   5.633  14.412  0.0369  0.1101 -0.2047
10526TIP3   OH253068   1.063   5.199   3.479  0.8670  0.2815  0.0198
10526TIP3    H153069   1.015   5.165   3.403  1.1764 -0.6946  0.2504
10526TIP3    H253070   1.073   5.123   3.536 -1.6285  1.5539  2.2337
10527TIP3   OH253071   1.071   4.486  15.293 -0.1136 -0.1084 -0.4404
10527TIP3    H153072   1.063   4.392  15.309 -2.4486 -0.1572 -1.6319
10527TIP3    H253073   1.016   4.526  15.361  1.8445  0.5056  0.8362
10528TIP3   OH253074   0.655   6.403   1.126 -0.0491  0.5412 -0.3654
10528TIP3    H153075   0.581   6.409   1.066 -0.5753  1.0346  0.3311
10528TIP3    H253076   0.705   6.484   1.112 -0.6423  1.0605  0.4702
10529TIP3   OH253077   3.555   2.591   3.075  0.1809  0.1159  0.1167
10529TIP3    H153078   3.511   2.637   3.004  2.0619  2.3946  0.3279
10529TIP3    H253079   3.644   2.627   3.075  0.3074  0.0013  3.4112
10530TIP3   OH253080   1.251   1.333   4.033 -0.6161  0.1224  0.3581
10530TIP3    H153081   1.295   1.317   3.950  0.5261  1.7048  0.6301
10530TIP3    H253082   1.251   1.248   4.077  5.3879  0.6575  1.8591
10531TIP3   OH253083   3.238   5.406   3.295 -0.0931 -0.6424  0.0093
10531TIP3    H153084   3.177   5.403   3.221  0.4662 -1.9276 -0.4250
10531TIP3    H253085   3.273   5.317   3.300 -0.7449 -0.7923  2.3460
10532TIP3   OH253086   3.546   6.649  12.289  0.8141  0.5980 -0.0648
10532TIP3    H153087   3.475   6.585  12.282  0.1940  1.5336 -2.8972
10532TIP3    H253088   3.501   6.733  12.293  1.7180  1.0412  1.1781
10533TIP3   OH253089   6.606   4.253   2.178  0.0141  0.1388  0.3160
10533TIP3    H153090   6.534   4.199   2.213  0.5101  0.5331  1.9460
10533TIP3    H253091   6.562   4.321   2.127 -0.6005 -2.7555 -3.3026
10534TIP3   OH253092   5.934   1.988  11.409 -0.0064 -0.1972  0.2999
10534TIP3    H153093   5.882   2.036  11.474 -2.4241  0.7881 -2.2465
10534TIP3    H253094   5.869   1.949  11.350  2.0890 -1.6175 -1.1371
10535TIP3   OH253095   5.238   2.200   0.722 -0.4544  0.0482  0.2854
10535TIP3    H153096   5.306   2.133   0.708 -0.4182  0.1559 -0.0714
10535TIP3    H253097   5.283   2.283   0.707 -0.7353  0.1075 -0.2580
10536TIP3   OH253098   1.362   5.511  16.543  0.2623  0.0088  0.4572
10536TIP3    H153099   1.322   5.442  16.596 -0.1220  0.8031  1.2252
10536TIP3    H253100   1.394   5.574  16.608 -0.0663  0.9125 -0.2497
10537TIP3   OH253101   4.592   0.106   1.305  0.7109  0.2658 -0.2309
10537TIP3    H153102   4.547   0.130   1.386 -0.3259 -1.1838 -0.3464
10537TIP3    H253103   4.677   0.074   1.333  0.8970  1.1131  0.1698
10538TIP3   OH253104   2.432   2.445   3.817 -0.7072  0.2951 -0.4313
10538TIP3    H153105   2.478   2.505   3.759  0.2651  0.1647  0.1794
10538TIP3    H253106   2.497   2.422   3.883 -1.7035  0.2242  0.5473
10539TIP3   OH253107   0.387   2.119   0.813 -0.0782 -0.2404 -0.4734
10539TIP3    H153108   0.317   2.070   0.769 -1.1067  0.8060 -0.0397
10539TIP3    H253109   0.369   2.210   0.792  1.3084  0.0203 -0.5449
10540TIP3   OH253110   0.346   3.150   3.491 -0.1299  0.5905  0.4330
10540TIP3    H153111   0.361   3.177   3.582  1.2431  0.1657  0.3496
10540TIP3    H253112   0.431   3.119   3.461 -1.1789 -1.8895 -0.1183
10541TIP3   OH253113   5.263   6.175   5.934 -0.2618 -0.0697 -0.0874
10541TIP3    H153114   5.355   6.201   5.928 -0.5850  0.7324 -1.7304
10541TIP3    H253115   5.260   6.089   5.892 -0.9802  1.7644 -3.9954
10542TIP3   OH253116   4.728   4.067   0.527 -0.1131  0.3217 -0.5175
10542TIP3    H153117   4.681   4.091   0.607 -0.1606 -0.2123 -0.3870
10542TIP3    H253118   4.813   4.112   0.535 -0.3650  0.7947 -0.4731
10543TIP3   OH253119   2.732   2.351  15.043  0.1671 -0.6217 -0.1754
10543TIP3    H153120   2.807   2.313  15.089  1.7820  1.7876 -0.7133
10543TIP3    H253121   2.715   2.433  15.089 -2.6446 -1.4699  0.3774
10544TIP3   OH253122   0.688   5.359  16.777  0.7899  0.5140 -0.2846
10544TIP3    H153123   0.638   5.281  16.800  0.8186  0.7751  0.6741
10544TIP3    H253124   0.623   5.429  16.773  0.5595  0.2030 -2.4468
10545TIP3   OH253125   0.555   3.956  11.493  0.2135  0.0790  0.3660
10545TIP3    H153126   0.636   3.980  11.538  0.0426 -0.5955  1.0480
10545TIP3    H253127   0.521   3.881  11.543  0.1316 -0.8337 -1.0217
10546TIP3   OH253128   0.556   2.414  13.442  0.5221 -0.2482 -0.1267
10546TIP3    H153129   0.548   2.408  13.347  2.8181  0.8610 -0.4078
10546TIP3    H253130   0.587   2.327  13.469  1.8795  0.0625 -0.6388
10547TIP3   OH253131   3.623   2.769  11.388 -1.2217  0.3671 -0.4706
10547TIP3    H153132   3.576   2.844  11.424 -1.8013  0.1317 -0.7352
10547TIP3    H253133   3.642   2.793  11.297 -1.5935  0.1105 -0.6181
10548TIP3   OH253134   5.186   2.276  16.235 -0.2854  0.4246 -0.1684
10548TIP3    H153135   5.211   2.184  16.222  1.3102  0.7813  0.2567
10548TIP3    H253136   5.265   2.325  16.215 -0.6487  1.6119  1.1950
10549TIP3   OH253137   5.462   3.613  14.382 -0.2151 -0.3329 -0.8413
10549TIP3    H153138   5.433   3.692  14.427 -0.2111 -0.5832 -0.3901
10549TIP3    H253139   5.521   3.570  14.445  0.2063 -0.4174 -1.2884
10550TIP3   OH253140   3.556   6.559   3.233 -0.1003  0.2375 -0.3486
10550TIP3    H153141   3.615   6.623   3.273  0.1931  0.8311 -1.7053
10550TIP3    H253142   3.559   6.484   3.293  2.1665  0.1850 -0.4559
10551TIP3   OH253143   1.722   4.256   0.980 -0.0984 -0.1311  0.1703
10551TIP3    H153144   1.745   4.250   0.887 -0.1797 -1.0040  0.1993
10551TIP3    H253145   1.805   4.276   1.024  0.8816 -4.1109  0.3653
10552TIP3   OH253146   3.958   4.381   0.046  0.0839  0.2082 -0.0365
10552TIP3    H153147   3.975   4.325  -0.029 -0.4344  0.0436 -0.0376
10552TIP3    H253148   3.925   4.463   0.008  0.6530  0.4468 -0.0259
10553TIP3   OH253149   5.156   0.651  16.467 -0.1395 -0.2333  0.0708
10553TIP3    H153150   5.232   0.707  16.483  0.1524 -0.8533  0.8477
10553TIP3    H253151   5.094   0.708  16.420  0.8993  0.1921 -0.7983
10554TIP3   OH253152   4.266   0.675  15.133 -0.0403  0.3577  0.3865
10554TIP3    H153153   4.332   0.645  15.070  0.2653  0.3323  0.7189
10554TIP3    H253154   4.182   0.656  15.091  0.1553 -0.6386  0.4447
10555TIP3   OH253155   0.780   5.396  16.512  0.2919  0.1492 -0.0229
10555TIP3    H153156   0.874   5.379  16.517 -0.1418 -2.4159  0.1280
10555TIP3    H253157   0.746   5.368  16.596 -0.5398  1.6458  0.1503
10556TIP3   OH253158   3.214   6.665   2.889 -0.0586  0.1344  0.9023
10556TIP3    H153159   3.231   6.740   2.946  0.5486  0.8911 -0.2621
10556TIP3    H253160   3.119   6.668   2.874  0.0838  1.1894  0.1640
10557TIP3   OH253161   0.036   4.333  16.350  0.4561  0.1378 -0.5657
10557TIP3    H153162   0.036   4.334  16.254 -0.4274  0.2214 -0.5664
10557TIP3    H253163   0.099   4.265  16.373 -0.5463 -1.0275 -1.2282
10558TIP3   OH253164   3.523   1.775  12.050 -0.0300  0.1044 -0.3554
10558TIP3    H153165   3.468   1.814  12.119  0.4074 -0.0865  0.1023
10558TIP3    H253166   3.494   1.817  11.969 -1.4496 -0.6173 -0.2363
10559TIP3   OH253167   6.037   2.045  13.910  0.8503 -0.2553 -0.0535
10559TIP3    H153168   6.086   1.981  13.961 -0.3812 -0.1265  1.3061
10559TIP3    H253169   6.063   2.129  13.946  0.9337 -0.0979 -0.4818
10560TIP3   OH253170   6.146   2.896   6.247  0.4085 -0.2583 -0.4917
10560TIP3    H153171   6.100   2.966   6.293 -1.0028 -0.9532 -0.8137
10560TIP3    H253172   6.217   2.940   6.202 -0.3947  0.9570 -0.6031
10561TIP3   OH253173   4.947   4.034  12.229 -0.0055  0.3145 -0.1614
10561TIP3    H153174   4.981   4.123  12.222  0.7048  0.0819  0.2049
10561TIP3    H253175   5.025   3.980  12.243 -0.3605 -0.4462 -1.0489
10562TIP3   OH253176   4.867   0.736  11.650  0.2365 -0.1362  0.0164
10562TIP3    H153177   4.956   0.726  11.683  0.6432  1.6951 -0.4690
10562TIP3    H253178   4.817   0.770  11.724 -0.1740 -1.6143  0.4264
10563TIP3   OH253179   2.550   1.123   2.806 -0.1875 -0.0302 -0.3491
10563TIP3    H153180   2.520   1.073   2.882  0.0996 -1.7916 -1.3842
10563TIP3    H253181   2.581   1.206   2.843 -2.4786  0.1875  1.1661
10564TIP3   OH253182   2.848   4.784  12.874 -0.2909  0.1822 -0.3438
10564TIP3    H153183   2.830   4.875  12.854  0.3399  0.2793 -0.4825
10564TIP3    H253184   2.863   4.743  12.788  4.1274  0.9590 -0.0586
10565TIP3   OH253185   2.901   3.554   0.390  0.0737 -0.3514  0.3629
10565TIP3    H153186   2.906   3.504   0.308 -0.1930  0.6923 -0.3044
10565TIP3    H253187   2.940   3.639   0.368 -2.8578  1.0700  0.4250
10566TIP3   OH253188   3.694   6.626  14.228 -0.2608 -0.1708 -0.2852
10566TIP3    H153189   3.782   6.619  14.265  0.6878 -0.7602 -2.5587
10566TIP3    H253190   3.673   6.719  14.234  0.2314 -0.1227  0.8824
10567TIP3   OH253191   3.262   2.328  17.166 -0.3694 -0.1117  0.4459
10567TIP3    H153192   3.265   2.304  17.073 -1.7444  0.3022  0.2775
10567TIP3    H253193   3.218   2.254  17.208 -0.7315  0.1966  0.6013
10568TIP3   OH253194   5.818   1.656   2.118  0.1435  0.1644  0.1745
10568TIP3    H153195   5.880   1.613   2.177  0.6227  0.3876 -0.1690
10568TIP3    H253196   5.778   1.725   2.171  0.5131  0.3120  0.2590
10569TIP3   OH253197   5.703   3.302   3.068 -0.1012  0.4068 -0.0829
10569TIP3    H153198   5.648   3.380   3.061 -1.1315 -0.3309 -0.3717
10569TIP3    H253199   5.718   3.291   3.162 -1.6869 -0.2135  0.1217
10570TIP3   OH253200   5.497   3.163  14.439  0.5180  0.5619  0.1672
10570TIP3    H153201   5.588   3.134  14.442  0.4997  0.2834 -1.6773
10570TIP3    H253202   5.495   3.240  14.495  1.8223  0.3945  0.4603
10571TIP3   OH253203   0.906   5.717   5.341  0.8850  0.7250  0.2640
10571TIP3    H153204   0.830   5.765   5.376  1.2122  1.1713  0.3654
10571TIP3    H253205   0.946   5.778   5.279 -0.1688 -0.3720 -1.5160
10572TIP3   OH253206   3.373   0.603   3.975 -0.0781 -0.2910 -0.3973
10572TIP3    H153207   3.358   0.687   3.932 -1.7308  0.2202  1.1456
10572TIP3    H253208   3.287   0.561   3.976  0.8251 -2.2528 -1.6215
10573TIP3   OH253209   4.286   6.808   6.118 -0.1197 -0.0261  0.2218
10573TIP3    H153210   4.371   6.848   6.137 -1.1288  1.3176  2.1165
10573TIP3    H253211   4.297   6.715   6.138  1.5025 -0.2500 -1.6434
10574TIP3   OH253212   1.465   4.915  11.308  0.1117  0.5163  0.3250
10574TIP3    H153213   1.404   4.987  11.292  0.7531  0.6287 -1.7247
10574TIP3    H253214   1.541   4.936  11.253 -0.3093 -2.4932 -1.4803
10575TIP3   OH253215   1.046   1.444  16.794 -0.6624 -0.1310  0.3858
10575TIP3    H153216   1.027   1.534  16.766 -2.3212 -0.3286  0.8098
10575TIP3    H253217   1.055   1.450  16.890 -1.9236 -0.5886  0.5455
10576TIP3   OH253218   5.858   4.241   1.366 -0.4008  0.5015 -0.3149
10576TIP3    H153219   5.875   4.150   1.340 -1.6881 -0.0078  0.5651
10576TIP3    H253220   5.764   4.244   1.383  0.0495  1.2675  2.4254
10577TIP3   OH253221   3.567   0.300  12.726 -0.0994  0.1371  0.1361
10577TIP3    H153222   3.550   0.368  12.791 -0.6283 -0.1381  0.2861
10577TIP3    H253223   3.483   0.255  12.715  0.3032 -0.6547  0.2296
10578TIP3   OH253224   3.510   1.655   3.366 -0.7127  0.0365  0.2573
10578TIP3    H153225   3.583   1.636   3.307 -0.6006 -1.2034  0.7799
10578TIP3    H253226   3.450   1.581   3.355  0.2079 -1.2015  3.0711
10579TIP3   OH253227   5.889   6.457   3.952 -0.1787  0.2635  0.4966
10579TIP3    H153228   5.805   6.411   3.950  0.0245 -0.1422  1.2401
10579TIP3    H253229   5.888   6.513   3.874 -1.0801  0.1582  0.4352
10580TIP3   OH253230   1.027   4.798   3.949  0.0851  0.7865  0.1326
10580TIP3    H153231   0.933   4.814   3.942 -0.8755 -3.1632  2.4598
10580TIP3    H253232   1.055   4.782   3.859 -1.9330 -0.2144 -0.3440
10581TIP3   OH253233   6.130   1.099  14.134 -0.6656 -0.1608  0.0676
10581TIP3    H153234   6.048   1.148  14.136  0.6626  2.0894  2.5421
10581TIP3    H253235   6.140   1.065  14.222  0.7706 -0.9126 -0.3726
10582TIP3   OH253236   3.255   6.222   2.019 -0.3523  0.6767  0.2268
10582TIP3    H153237   3.191   6.240   1.950 -0.3905  0.1064  0.1092
10582TIP3    H253238   3.211   6.158   2.076 -0.1984  0.9021  0.6024
10583TIP3   OH253239   5.749   0.604   0.849 -0.1313  0.1486 -0.1025
10583TIP3    H153240   5.685   0.608   0.921 -0.4225 -0.8792 -0.2981
10583TIP3    H253241   5.697   0.586   0.771  0.4183 -0.9505 -0.2247
10584TIP3   OH253242   0.480   1.145  14.041  0.6664  0.3996 -0.1174
10584TIP3    H153243   0.520   1.062  14.015  0.0144 -0.2299  0.8545
10584TIP3    H253244   0.502   1.154  14.134 -1.8977 -0.2286  0.5816
10585TIP3   OH253245   4.670   2.352   3.316  0.2842 -0.7873  0.1881
10585TIP3    H153246   4.596   2.406   3.341  1.5896  0.2974  1.8020
10585TIP3    H253247   4.649   2.265   3.351  0.5358 -0.0846  2.1295
10586TIP3   OH253248   2.877   1.222   1.443 -0.4848  0.2137 -0.7722
10586TIP3    H153249   2.922   1.182   1.369 -1.6717 -1.8364 -0.4294
10586TIP3    H253250   2.793   1.251   1.407 -0.5974  0.2515 -0.4797
10587TIP3   OH253251   4.697   5.415   5.906 -0.5800 -0.5703 -0.0027
10587TIP3    H153252   4.621   5.467   5.877  1.0757  1.5155 -0.7653
10587TIP3    H253253   4.717   5.449   5.993  1.0712  0.7768 -0.8695
10588TIP3   OH253254   3.773   4.720   1.539  0.3517 -0.0425 -0.3618
10588TIP3    H153255   3.838   4.658   1.573  0.1175 -1.5403 -2.5377
10588TIP3    H253256   3.709   4.665   1.494 -1.2284  1.5976 -0.1764
10589TIP3   OH253257   4.675   1.520  12.206  0.5565 -0.3608 -0.2245
10589TIP3    H153258   4.608   1.577  12.167  0.4788 -0.5469 -0.3683
10589TIP3    H253259   4.718   1.480  12.130  0.8228 -0.2485 -0.1301
10590TIP3   OH253260   6.219   5.670  15.470  0.4982  0.1251 -0.3112
10590TIP3    H153261   6.176   5.652  15.554 -0.5071  3.1781 -0.1326
10590TIP3    H253262   6.152   5.651  15.405  0.3915  0.3899 -0.2784
10591TIP3   OH253263   1.642   1.677   3.871  0.4081  0.0954  0.5140
10591TIP3    H153264   1.624   1.757   3.822  1.8748  0.7938  1.0588
10591TIP3    H253265   1.583   1.681   3.946  0.4428  0.6525  0.5153
10592TIP3   OH253266   6.178   5.592  16.642 -0.0274 -0.0336  0.6748
10592TIP3    H153267   6.177   5.514  16.587  0.5114  0.0684  0.5187
10592TIP3    H253268   6.244   5.649  16.602  1.1955 -0.4255  2.0840
10593TIP3   OH253269   4.801   5.886   5.156  0.0181  0.2914 -0.5446
10593TIP3    H153270   4.773   5.797   5.134 -1.5707  0.3541  1.0888
10593TIP3    H253271   4.758   5.941   5.090 -1.2220  0.0909  0.0811
10594TIP3   OH253272   1.702   0.869   0.277 -0.0270  0.4782 -0.3983
10594TIP3    H153273   1.694   0.862   0.182 -2.6099  1.3167 -0.2857
10594TIP3    H253274   1.754   0.793   0.303 -0.1125 -0.2764 -2.3955
10595TIP3   OH253275   4.336   0.847  14.107 -0.5952  0.4233 -0.1188
10595TIP3    H153276   4.335   0.757  14.075 -2.4891  1.0009 -1.8314
10595TIP3    H253277   4.266   0.849  14.173  0.2839  0.3433  0.8221
10596TIP3   OH253278   4.953   1.743   4.519 -0.1519  0.3718  0.4482
10596TIP3    H153279   4.966   1.793   4.439  1.1202  1.4930  1.3535
10596TIP3    H253280   4.863   1.712   4.513 -0.2426  0.9079 -1.1524
10597TIP3   OH253281   4.897   0.663  11.065 -0.2630  0.5183 -0.1749
10597TIP3    H153282   4.895   0.622  10.979 -0.2617  0.1821 -0.0144
10597TIP3    H253283   4.987   0.654  11.094 -0.1981  0.8842 -0.2572
10598TIP3   OH253284   5.974   2.163   2.636 -0.6889  0.4295 -0.5467
10598TIP3    H153285   6.040   2.208   2.689 -1.8120  3.0565 -1.3051
10598TIP3    H253286   5.962   2.078   2.680  2.0848  0.4746  0.4270
10599TIP3   OH253287   1.469   5.482   3.266  0.3885  0.5539  0.1130
10599TIP3    H153288   1.389   5.442   3.302  1.1301  0.3022  1.4994
10599TIP3    H253289   1.515   5.410   3.224  0.6612  0.3968  0.6910
10600TIP3   OH253290   1.399   6.701   0.064 -0.2815 -0.8636  0.1490
10600TIP3    H153291   1.347   6.643   0.120 -1.6981  1.3092  1.1198
10600TIP3    H253292   1.380   6.789   0.096 -0.6235  0.4037 -3.3557
10601TIP3   OH253293   1.310   0.190   2.825  0.2871 -0.4403  0.0173
10601TIP3    H153294   1.376   0.188   2.756 -0.8344  0.2725 -1.0973
10601TIP3    H253295   1.348   0.138   2.896  1.3633 -1.3805 -1.2181
10602TIP3   OH253296   1.308   3.854   4.139  0.3978 -0.2566 -0.0578
10602TIP3    H153297   1.293   3.907   4.061 -0.4460 -2.3951 -1.4256
10602TIP3    H253298   1.392   3.810   4.123 -0.7040 -2.2097 -0.7174
10603TIP3   OH253299   4.957   2.118   3.421  0.6463  0.5364  1.1654
10603TIP3    H153300   4.940   2.024   3.411  0.6271  0.7249 -0.6912
10603TIP3    H253301   4.914   2.159   3.347  0.2680  2.0841  2.2032
10604TIP3   OH253302   0.618   3.607   2.889 -0.6718 -0.4134 -0.4305
10604TIP3    H153303   0.578   3.665   2.953  1.2605 -0.5085  0.9093
10604TIP3    H253304   0.633   3.525   2.938  0.1070 -0.7422 -1.2161
10605TIP3   OH253305   6.367   5.159  16.733  0.0985 -0.2277 -0.4360
10605TIP3    H153306   6.443   5.194  16.687 -0.3900  0.9736 -0.3487
10605TIP3    H253307   6.404   5.103  16.802  0.8509 -1.4555 -1.7917
10606TIP3   OH253308   3.743   1.138   3.611  0.1104 -1.0113 -0.2074
10606TIP3    H153309   3.839   1.138   3.607  0.1751 -0.7067  1.1155
10606TIP3    H253310   3.721   1.219   3.658 -0.7953 -1.1381 -0.4004
10607TIP3   OH253311   6.206   3.877   4.080  0.1156  0.4336 -0.3236
10607TIP3    H153312   6.222   3.972   4.085 -0.2301  0.5262 -0.9964
10607TIP3    H253313   6.286   3.838   4.117  0.3631  0.9805 -0.2723
10608TIP3   OH253314   3.741   2.559   1.054  0.0175  0.1375 -0.0736
10608TIP3    H153315   3.806   2.586   1.120 -1.8408  2.8304  0.7579
10608TIP3    H253316   3.725   2.638   1.002 -3.1739 -0.1933  0.2845
10609TIP3   OH253317   2.168   0.803  10.504 -0.0874 -0.0923  0.2924
10609TIP3    H153318   2.138   0.883  10.548 -0.4220 -0.1883  0.2437
10609TIP3    H253319   2.246   0.777  10.551 -1.4190 -1.1764  1.9405
10610TIP3   OH253320   6.784   6.193   0.659  0.4928 -0.5081 -0.3056
10610TIP3    H153321   6.756   6.269   0.607  0.5175  1.2232  2.1378
10610TIP3    H253322   6.702   6.155   0.692  0.5967 -0.3490  0.1305
10611TIP3   OH253323   0.742   5.818   3.915  0.2461 -0.1935  0.6857
10611TIP3    H153324   0.817   5.878   3.926  1.2421 -0.4669 -3.6550
10611TIP3    H253325   0.781   5.731   3.915 -0.5173 -0.5434  1.5450
10612TIP3   OH253326   6.029   3.402   0.468 -0.1028  0.2256  0.4845
10612TIP3    H153327   6.080   3.466   0.517  3.4226  0.0028 -2.6490
10612TIP3    H253328   5.938   3.424   0.487  0.9849  5.6223  0.2316
10613TIP3   OH253329   4.060   0.057  16.691 -0.0286  0.3257  0.0845
10613TIP3    H153330   4.013   0.077  16.610 -1.6688 -0.1821  0.8844
10613TIP3    H253331   3.991   0.040  16.756  1.2423 -1.7810  0.9576
10614TIP3   OH253332   6.506   2.314   2.034  0.0312  0.6670 -0.5318
10614TIP3    H153333   6.467   2.363   1.962  2.3099  1.6216 -1.1512
10614TIP3    H253334   6.530   2.229   1.996 -0.5121  0.4587 -0.4096
10615TIP3   OH253335   2.333   2.874  14.976 -0.5453  0.0154 -0.0179
10615TIP3    H153336   2.270   2.853  15.045  0.6206  0.9976  1.3472
10615TIP3    H253337   2.289   2.845  14.896 -2.0486 -0.8417  1.0740
10616TIP3   OH253338   3.178   1.923  11.467  0.0088 -0.4890  0.0728
10616TIP3    H153339   3.172   1.875  11.385 -2.5260 -0.0702 -0.0317
10616TIP3    H253340   3.183   1.855  11.534  0.4661 -0.8442 -0.3166
10617TIP3   OH253341   2.895   3.970  12.116 -0.5136  0.0351  0.0868
10617TIP3    H153342   2.935   3.883  12.121 -2.3873 -0.8460 -0.0918
10617TIP3    H253343   2.915   3.999  12.027 -0.4128 -0.4781 -0.0635
10618TIP3   OH253344   4.600   3.711  16.446  0.1759  0.2744 -0.7580
10618TIP3    H153345   4.569   3.622  16.425  1.4672 -0.0594 -1.2838
10618TIP3    H253346   4.636   3.704  16.534 -0.0411  0.3637 -0.6584
10619TIP3   OH253347   2.989   2.282   3.304 -0.6118 -0.1190 -0.1012
10619TIP3    H153348   3.065   2.318   3.349  0.3589 -1.5885 -0.5185
10619TIP3    H253349   3.014   2.282   3.211 -1.6917  0.7356 -0.4086
10620TIP3   OH253350   1.148   6.739   3.512  0.5286 -0.1546  0.3716
10620TIP3    H153351   1.195   6.724   3.594  0.4922 -1.1591  0.2084
10620TIP3    H253352   1.197   6.691   3.446 -0.5883 -1.0247  0.1583
10621TIP3   OH253353   0.724   0.278   1.267  0.2524  0.1491  0.0017
10621TIP3    H153354   0.657   0.243   1.209 -0.8993  0.5584  1.0712
10621TIP3    H253355   0.679   0.293   1.350  2.0078 -1.0078  1.2023
10622TIP3   OH253356   3.118   5.756   4.891  0.1102  0.3841  0.2251
10622TIP3    H153357   3.174   5.689   4.930  0.6408  0.6783 -0.0246
10622TIP3    H253358   3.151   5.838   4.928 -0.5865  0.4994  0.5931
10623TIP3   OH253359   4.638   0.248  11.947 -0.6444  0.7305  0.8744
10623TIP3    H153360   4.689   0.188  12.001 -0.5385  0.5423  0.5677
10623TIP3    H253361   4.591   0.303  12.009  0.0967  1.0462  1.1655
10624TIP3   OH253362   3.545   5.692  14.708 -0.1379  0.0066 -0.2795
10624TIP3    H153363   3.451   5.707  14.710 -0.2572 -0.6141 -0.8927
10624TIP3    H253364   3.570   5.709  14.617 -0.0057 -1.7947 -0.6094
10625TIP3   OH253365   6.796   0.810   2.720  0.0944  0.0562  0.1674
10625TIP3    H153366   6.716   0.863   2.720 -0.7827 -1.2468 -1.4894
10625TIP3    H253367   6.767   0.722   2.697  2.1125 -0.2656 -1.2961
10626TIP3   OH253368   5.404   3.050   2.786 -0.5243  0.3393  0.3209
10626TIP3    H153369   5.329   3.099   2.753 -0.2088  1.0902  0.7068
10626TIP3    H253370   5.473   3.116   2.799  0.0095 -0.2508  0.5219
10627TIP3   OH253371   5.170   4.078   5.312  0.4632 -0.5558  0.5353
10627TIP3    H153372   5.075   4.093   5.306  0.5930 -0.1293 -0.6569
10627TIP3    H253373   5.202   4.153   5.362  0.1962 -0.5842  0.7523
10628TIP3   OH253374   4.340   3.985   5.239 -0.3067 -0.1431 -1.0054
10628TIP3    H153375   4.276   4.019   5.302  0.2299  1.5553 -1.3351
10628TIP3    H253376   4.323   4.034   5.159 -0.7800 -2.0789 -2.1252
10629TIP3   OH253377   5.695   3.416  11.462 -0.6812 -0.0492  0.4336
10629TIP3    H153378   5.636   3.483  11.497 -2.0052 -0.2361 -1.3208
10629TIP3    H253379   5.708   3.442  11.370  0.2513 -1.2015  0.2310
10630TIP3   OH253380   2.931   3.053  12.257 -0.3726 -0.0896  0.2258
10630TIP3    H153381   2.989   3.125  12.281  0.8445 -0.4349 -1.5372
10630TIP3    H253382   2.873   3.091  12.190 -0.9037 -0.2673  0.5839
10631TIP3   OH253383   4.608   5.708   4.562 -0.5828  0.3033  0.2996
10631TIP3    H153384   4.517   5.731   4.544 -0.8676 -0.3585  0.8833
10631TIP3    H253385   4.656   5.791   4.554 -1.0501  0.4506 -1.1871
10632TIP3   OH253386   5.514   6.661  13.145  0.0510  0.4892  0.6134
10632TIP3    H153387   5.511   6.743  13.097  1.4719 -0.5259 -1.2767
10632TIP3    H253388   5.429   6.620  13.129 -1.1764  2.1552  2.6592
10633TIP3   OH253389   4.818   1.264   0.825  0.1453 -0.4448  0.1911
10633TIP3    H153390   4.724   1.261   0.809  0.3896 -0.8615 -1.1970
10633TIP3    H253391   4.832   1.204   0.899 -0.6082 -0.7624  0.0789
10634TIP3   OH253392   2.013   0.680   5.620 -0.1415  0.2998 -0.5238
10634TIP3    H153393   1.997   0.586   5.605 -3.5555  0.9046 -0.9686
10634TIP3    H253394   2.099   0.695   5.580 -0.1179 -2.3631 -1.6473
10635TIP3   OH253395   1.927   4.039  15.227 -0.2729 -0.3185  0.8493
10635TIP3    H153396   1.969   3.965  15.184  0.0236  1.1507 -1.4894
10635TIP3    H253397   1.844   4.050  15.181 -0.6025  0.4047  1.5984
10636TIP3   OH253398   2.675   3.081  11.049  0.8326 -0.0319 -0.2934
10636TIP3    H153399   2.671   3.127  10.965  1.8305 -0.7747 -0.7517
10636TIP3    H253400   2.623   3.001  11.035  0.8791 -0.0872 -0.1568
10637TIP3   OH253401   4.051   0.749  11.596 -0.3486  0.1598  0.5594
10637TIP3    H153402   4.144   0.737  11.614 -0.1975  1.2898  0.5500
10637TIP3    H253403   4.007   0.689  11.657  0.3892 -0.5574  0.3885
10638TIP3   OH253404   5.940   3.148  16.355 -0.1597 -0.2162  0.7159
10638TIP3    H153405   5.971   3.177  16.441 -2.2322 -0.4637  1.5826
10638TIP3    H253406   5.872   3.084  16.375 -2.8534  1.9839 -1.0644
10639TIP3   OH253407   5.329   2.076  15.419 -0.5498  0.2122 -0.1917
10639TIP3    H153408   5.287   1.991  15.431  0.1770 -0.1182  0.0863
10639TIP3    H253409   5.260   2.140  15.433 -1.2748 -0.3520 -1.1512
10640TIP3   OH253410   0.514   5.325   1.905 -0.1646 -0.2034 -0.1646
10640TIP3    H153411   0.545   5.275   1.830  0.7791  0.9708 -0.5714
10640TIP3    H253412   0.546   5.278   1.981 -2.1370 -2.0711 -0.4470
10641TIP3   OH253413   5.152   0.679  11.433 -0.0203  0.2017  0.5080
10641TIP3    H153414   5.148   0.602  11.490 -1.5374  0.6740  1.0568
10641TIP3    H253415   5.082   0.664  11.369 -0.0958  0.9530  0.4141
10642TIP3   OH253416   6.508   5.817  12.420 -0.1172  0.4148 -0.4654
10642TIP3    H153417   6.512   5.751  12.351  0.5537 -0.3769  0.3353
10642TIP3    H253418   6.591   5.864  12.412  1.2120 -1.5149  1.6263
10643TIP3   OH253419   0.842   4.507  16.661 -0.1324 -0.4144  0.2825
10643TIP3    H153420   0.912   4.444  16.647 -1.5793 -2.0337  0.1925
10643TIP3    H253421   0.774   4.482  16.599 -1.5204  0.0133  1.5932
10644TIP3   OH253422   4.099   2.792   4.738 -0.0153  0.4645  0.3255
10644TIP3    H153423   4.064   2.707   4.767  2.4955 -0.9809 -0.7216
10644TIP3    H253424   4.172   2.809   4.798 -0.7923  2.1278  0.8131
10645TIP3   OH253425   5.211   0.085  11.117 -0.1503  0.3202  0.5786
10645TIP3    H153426   5.264   0.087  11.196  1.4611  2.4582 -0.4951
10645TIP3    H253427   5.121   0.093  11.148  0.4503  0.7810  2.2154
10646TIP3   OH253428   4.836   5.960   6.388 -0.2210 -0.4320  0.1627
10646TIP3    H153429   4.878   5.928   6.468 -1.7294 -0.3004  1.0178
10646TIP3    H253430   4.806   6.048   6.411 -0.6071 -0.3686 -0.5663
10647TIP3   OH253431   2.998   6.100   0.251 -0.1765  0.6795 -0.0384
10647TIP3    H153432   2.981   6.194   0.251 -0.8496  0.5612  1.5274
10647TIP3    H253433   3.005   6.076   0.343 -1.5498 -1.0991 -0.3707
10648TIP3   OH253434   5.915   0.167  16.995 -0.4751 -0.0028  0.2951
10648TIP3    H153435   5.857   0.241  16.980 -0.1131  0.0314 -1.0085
10648TIP3    H253436   6.003   0.201  16.979 -0.3752 -0.9323 -1.3337
10649TIP3   OH253437   4.542   3.158  11.715  0.0376 -0.4385 -0.3284
10649TIP3    H153438   4.522   3.074  11.674  1.4174 -1.6210  1.3832
10649TIP3    H253439   4.522   3.222  11.647 -2.0771 -2.0558 -1.2974
10650TIP3   OH253440   2.995   1.830  16.296  0.3141 -0.2716 -0.4981
10650TIP3    H153441   3.027   1.740  16.286  0.1360 -0.4158  0.2273
10650TIP3    H253442   2.956   1.833  16.383  0.1067  0.4469 -0.6071
10651TIP3   OH253443   2.620   2.141   3.270  0.2392  0.7170 -0.3626
10651TIP3    H153444   2.584   2.221   3.231  0.3550  0.9225 -0.0491
10651TIP3    H253445   2.656   2.092   3.196 -0.7860  0.4555 -0.7013
10652TIP3   OH253446   1.832   0.160   1.835 -0.2436  0.2742  0.2314
10652TIP3    H153447   1.787   0.103   1.772 -0.9373  1.2911 -0.2032
10652TIP3    H253448   1.919   0.174   1.798 -0.5800  0.7000 -0.4088
10653TIP3   OH253449   2.205   6.023   5.861  0.4155  0.0228 -0.1562
10653TIP3    H153450   2.203   6.022   5.956  1.2261 -0.4897 -0.1355
10653TIP3    H253451   2.233   6.112   5.838 -0.5804  0.3955  0.0560
10654TIP3   OH253452   2.715   1.568   0.279  0.1769 -0.4680  0.3350
10654TIP3    H153453   2.732   1.604   0.192 -1.6322 -0.8012 -0.1793
10654TIP3    H253454   2.773   1.492   0.285 -0.7775 -1.3608 -1.2119
10655TIP3   OH253455   0.746   2.470  15.670 -0.1157 -0.6424  0.0679
10655TIP3    H153456   0.711   2.477  15.758  2.6556 -0.3751  1.2101
10655TIP3    H253457   0.714   2.548  15.624 -2.4487 -1.3266  0.4590
10656TIP3   OH253458   4.773   0.600   5.289 -0.3359 -0.1155 -0.5407
10656TIP3    H153459   4.859   0.631   5.319 -1.2092  0.1654  1.8233
10656TIP3    H253460   4.735   0.676   5.245 -0.3663  0.5424  0.6027
10657TIP3   OH253461   0.030   3.415  13.015 -0.4227  0.3619 -0.0681
10657TIP3    H153462   0.106   3.365  12.986 -0.0132  1.7944 -1.4938
10657TIP3    H253463   0.054   3.446  13.103 -0.3006 -1.0999  0.4324
10658TIP3   OH253464   3.141   5.023   1.063 -0.6355  0.5979 -0.0548
10658TIP3    H153465   3.237   5.027   1.061 -0.6714  2.6297  0.6444
10658TIP3    H253466   3.120   4.931   1.045  1.4641 -0.0709  0.7647
10659TIP3   OH253467   0.533   2.632   2.409 -0.5943 -0.5370  0.2133
10659TIP3    H153468   0.625   2.658   2.413 -0.7155 -0.2490  1.6366
10659TIP3    H253469   0.499   2.675   2.330  0.2420  0.2244  0.2586
10660TIP3   OH253470   3.156   3.139  13.646 -0.1934  0.5260 -0.4008
10660TIP3    H153471   3.206   3.192  13.708  1.9881  0.3810 -1.9833
10660TIP3    H253472   3.119   3.202  13.584 -0.0631  0.4390 -0.5658
10661TIP3   OH253473   4.050   5.247   1.675  0.0927  0.5741  0.0232
10661TIP3    H153474   4.016   5.231   1.587  0.3056  1.0868 -0.1497
10661TIP3    H253475   3.986   5.204   1.733 -0.6408  1.1956 -0.3210
10662TIP3   OH253476   1.961   6.475  16.683  0.6636 -0.0601  0.1228
10662TIP3    H153477   1.871   6.480  16.650  0.6497  0.5806  0.2408
10662TIP3    H253478   1.956   6.514  16.771  1.1175  0.2691  0.0031
10663TIP3   OH253479   5.098   1.624  11.341 -0.1433 -0.1831 -0.4871
10663TIP3    H153480   5.081   1.618  11.435 -0.8795  1.8617 -0.4550
10663TIP3    H253481   5.056   1.547  11.303  0.2406 -1.0661  0.8776
10664TIP3   OH253482   5.922   3.522   1.283 -0.0099 -0.4770 -0.5237
10664TIP3    H153483   5.903   3.467   1.358 -1.7226  2.5420  1.3328
10664TIP3    H253484   6.004   3.566   1.305  0.4767 -0.9722 -1.2831
10665TIP3   OH253485   1.309   2.474  13.618  0.0455 -0.3814  0.0678
10665TIP3    H153486   1.377   2.540  13.632 -0.0835 -0.5951  1.7737
10665TIP3    H253487   1.259   2.473  13.699 -1.5861 -0.7162 -0.9170
10666TIP3   OH253488   6.189   3.901   2.494  0.1561  0.2161  0.4870
10666TIP3    H153489   6.128   3.883   2.422  2.0473 -0.7618 -0.9191
10666TIP3    H253490   6.134   3.938   2.563 -2.4095 -2.7703  0.1442
10667TIP3   OH253491   2.518   1.619   5.301 -0.4694  0.5262 -0.1987
10667TIP3    H153492   2.530   1.683   5.371 -1.4911 -0.0915  0.5593
10667TIP3    H253493   2.427   1.632   5.273 -0.3460  0.1459 -0.7780
10668TIP3   OH253494   2.289   3.485  15.941  1.1253 -0.3913  0.1158
10668TIP3    H153495   2.236   3.551  15.897  1.6458 -0.0015  0.0755
10668TIP3    H253496   2.335   3.533  16.009  0.6578 -0.9125  0.8144
10669TIP3   OH253497   2.127   6.746  17.018  0.1091  0.2298  0.5610
10669TIP3    H153498   2.122   6.836  17.052 -0.1111  0.5028 -0.1578
10669TIP3    H253499   2.220   6.724  17.019  0.0310 -0.0646  2.0679
10670TIP3   OH253500   4.077   6.079   0.036  0.0979 -0.9563 -0.2775
10670TIP3    H153501   4.016   6.049  -0.031 -1.4586  0.4458  0.4832
10670TIP3    H253502   4.068   6.017   0.108  0.0755 -1.1372 -0.4368
10671TIP3   OH253503   2.111   0.733   2.664 -0.2992 -0.0786 -0.2437
10671TIP3    H153504   2.118   0.654   2.611  1.2294 -0.9557  1.2238
10671TIP3    H253505   2.199   0.771   2.663 -0.1493 -0.3353  1.9880
10672TIP3   OH253506   3.573   4.616   4.024  0.2426 -0.6395  0.1458
10672TIP3    H153507   3.603   4.673   4.094  1.3329  0.9438 -1.5521
10672TIP3    H253508   3.624   4.535   4.036  3.0371  0.8991 -0.8670
10673TIP3   OH253509   0.661   1.183   2.949 -0.0105 -1.0448 -0.2532
10673TIP3    H153510   0.580   1.132   2.954  0.3453 -1.8531 -2.2632
10673TIP3    H253511   0.720   1.128   2.897  0.3277  1.4739 -2.6296
10674TIP3   OH253512   0.336   1.952  12.323  0.1637 -0.0613  0.1723
10674TIP3    H153513   0.274   1.951  12.395 -0.0393  1.2771  0.0238
10674TIP3    H253514   0.293   1.904  12.253  0.4141 -1.4798  0.9743
10675TIP3   OH253515   4.887   0.149  13.793 -0.3586  0.0368  0.2906
10675TIP3    H153516   4.972   0.186  13.813 -0.3881  0.0013  0.4773
10675TIP3    H253517   4.888   0.136  13.698 -0.2449  0.2549  0.2613
10676TIP3   OH253518   5.966   6.006   0.716 -0.1760  0.0124 -0.4658
10676TIP3    H153519   6.055   6.036   0.735 -0.4616  0.5367  0.0667
10676TIP3    H253520   5.938   5.961   0.795 -0.6023  0.3756 -0.4044
10677TIP3   OH253521   4.571   6.208   1.811 -0.3918  0.3235  0.3619
10677TIP3    H153522   4.574   6.258   1.729 -0.1680 -1.5333 -0.7978
10677TIP3    H253523   4.634   6.253   1.868  2.3880 -0.6076 -1.8325
10678TIP3   OH253524   2.363   2.018  10.349 -0.3820 -0.1124 -0.7260
10678TIP3    H153525   2.374   2.099  10.299  0.0618 -1.0723 -2.2201
10678TIP3    H253526   2.279   2.028  10.393 -0.5920  0.9240 -1.3356
10679TIP3   OH253527   5.779   1.682   4.436  0.0324  0.5748 -0.4181
10679TIP3    H153528   5.756   1.612   4.496 -1.2294  1.1175 -0.2721
10679TIP3    H253529   5.865   1.712   4.466 -0.8277  1.2099  1.4395
10680TIP3   OH253530   5.884   6.809  15.280 -0.0740  0.2275  0.5949
10680TIP3    H153531   5.954   6.844  15.335  1.5804 -1.5545 -0.3150
10680TIP3    H253532   5.909   6.833  15.191 -1.6737  1.3266  0.4319
10681TIP3   OH253533   1.939   1.504   4.223 -0.5179  0.5974  0.2237
10681TIP3    H153534   1.980   1.418   4.225  1.5779  1.5862  0.2221
10681TIP3    H253535   1.873   1.501   4.292 -0.1919 -0.8669  0.4808
10682TIP3   OH253536   1.202   0.762  12.786  0.6148  0.1832  0.4063
10682TIP3    H153537   1.292   0.796  12.787  1.1093 -1.1228  2.0896
10682TIP3    H253538   1.155   0.818  12.847  0.7794 -0.4404  1.1040
10683TIP3   OH253539   6.036   2.830  16.512  0.0976  0.5316 -0.0278
10683TIP3    H153540   6.070   2.755  16.463 -0.5546 -0.6721  1.3030
10683TIP3    H253541   5.941   2.826  16.500 -0.0120  0.6208  0.7732
10684TIP3   OH253542   3.374   1.596  15.161 -0.2004 -0.1666  0.4714
10684TIP3    H153543   3.460   1.586  15.119 -0.0471  1.1019  0.4670
10684TIP3    H253544   3.380   1.542  15.240  1.7037  2.2848  2.0747
10685TIP3   OH253545   4.852   1.429  14.848  0.1020 -0.2673 -0.3492
10685TIP3    H153546   4.870   1.384  14.930  1.0816 -1.8346 -1.3801
10685TIP3    H253547   4.937   1.431  14.803 -0.4652  0.3433 -1.4186
10686TIP3   OH253548   3.940   5.209   5.424 -0.2267  0.4440 -0.2359
10686TIP3    H153549   3.850   5.181   5.412 -0.1574  0.7947 -1.6346
10686TIP3    H253550   3.993   5.136   5.391 -0.0204  0.9767 -1.0910
10687TIP3   OH253551   0.169   4.172   0.692  0.3043  0.4389 -0.1559
10687TIP3    H153552   0.131   4.180   0.605  0.8019  0.2123 -0.3962
10687TIP3    H253553   0.232   4.244   0.697  0.2488  0.4753  0.0323
10688TIP3   OH253554   3.738   3.066  15.670 -0.3360  0.0307 -0.3573
10688TIP3    H153555   3.820   3.076  15.717 -1.8416  0.7720  2.2093
10688TIP3    H253556   3.677   3.124  15.715 -2.9838 -2.5615 -0.4699
10689TIP3   OH253557   3.398   2.692   3.831 -0.0442 -0.4455 -0.3573
10689TIP3    H153558   3.450   2.612   3.825  1.0037  0.1943 -0.0704
10689TIP3    H253559   3.351   2.684   3.914  1.4493  0.0373  0.5551
10690TIP3   OH253560   4.739   4.483  13.134 -0.0588  0.8185 -0.6091
10690TIP3    H153561   4.667   4.544  13.149 -0.8767 -0.1934 -0.3649
10690TIP3    H253562   4.703   4.418  13.074  0.7998  0.5603 -0.8515
10691TIP3   OH253563   0.362   4.234   1.410 -0.8122  0.4273  0.0240
10691TIP3    H153564   0.396   4.260   1.324 -1.4132 -0.2076 -0.4133
10691TIP3    H253565   0.436   4.189   1.452 -0.7123  0.1681 -0.4235
10692TIP3   OH253566   6.495   5.452   4.394 -0.9204  0.2942  0.1642
10692TIP3    H153567   6.416   5.491   4.356 -1.4505  0.2747  1.2411
10692TIP3    H253568   6.477   5.447   4.488  0.2278 -0.0295  0.3746
10693TIP3   OH253569   1.626   3.055  14.779  0.0333 -0.5141  0.0025
10693TIP3    H153570   1.531   3.046  14.786 -0.0839 -1.2083 -2.0731
10693TIP3    H253571   1.661   2.998  14.848 -1.0551 -0.5292  0.5464
10694TIP3   OH253572   1.545   4.022  14.225  0.1157 -0.0319  0.0713
10694TIP3    H153573   1.593   3.988  14.300  1.1839  0.5771 -0.3242
10694TIP3    H253574   1.612   4.062  14.170 -0.9279  1.4611 -0.1468
10695TIP3   OH253575   5.862   5.164   0.731  0.0961 -0.3025 -0.0702
10695TIP3    H153576   5.843   5.247   0.686  0.6113 -0.3147 -0.3111
10695TIP3    H253577   5.949   5.176   0.766 -0.3183 -0.2855  0.9579
10696TIP3   OH253578   5.918   6.676   5.793 -0.1310 -0.4425  0.1579
10696TIP3    H153579   5.967   6.699   5.872  0.8518 -0.3625 -0.4729
10696TIP3    H253580   5.932   6.582   5.782  0.0627 -0.3755 -0.1561
10697TIP3   OH253581   1.418   2.918   1.344 -0.1080 -0.7959 -0.6805
10697TIP3    H153582   1.469   2.957   1.415 -1.1405 -0.3368 -0.1774
10697TIP3    H253583   1.480   2.913   1.270  0.3795  0.7429 -0.4089
10698TIP3   OH253584   1.111   0.797   4.809  0.3072  0.0023 -0.1692
10698TIP3    H153585   1.124   0.848   4.729  0.6878  0.9541  0.4823
10698TIP3    H253586   1.044   0.844   4.858 -0.7159 -1.1759 -0.4115
10699TIP3   OH253587   0.946   6.420  13.383  0.0610  0.2884 -0.2636
10699TIP3    H153588   0.919   6.452  13.297  0.5393  0.6325 -0.2884
10699TIP3    H253589   0.880   6.354  13.405 -1.3005  1.7218  0.0696
10700TIP3   OH253590   3.042   5.840  10.949 -0.1232  1.1047  0.4142
10700TIP3    H153591   3.035   5.834  11.044  1.1346  1.4677  0.5314
10700TIP3    H253592   3.074   5.754  10.922 -0.7920  0.8929  0.2809
10701TIP3   OH253593   4.183   2.615   5.083  0.0306 -0.5136  0.2490
10701TIP3    H153594   4.210   2.597   4.993  0.3828  0.8540  0.0705
10701TIP3    H253595   4.256   2.663   5.121 -2.3415  3.9393 -0.4776
10702TIP3   OH253596   0.001   4.939  11.246 -0.0090 -0.3572 -0.0369
10702TIP3    H153597   0.085   4.984  11.253  0.6586 -1.4577 -0.8468
10702TIP3    H253598   0.023   4.850  11.217 -1.3444 -1.0415  0.9640
10703TIP3   OH253599   4.223   0.307   0.419 -0.3141  0.6606 -0.6266
10703TIP3    H153600   4.160   0.350   0.477 -0.1676 -0.1997  0.1657
10703TIP3    H253601   4.240   0.222   0.459 -0.7827 -0.2561 -2.2988
10704TIP3   OH253602   0.277   1.442   0.139  0.2469  1.0541  0.2034
10704TIP3    H153603   0.209   1.499   0.174 -1.3381 -2.1125  2.6158
10704TIP3    H253604   0.348   1.446   0.204  0.9152  1.6946 -0.5578
10705TIP3   OH253605   5.346   3.602  15.955 -0.2245  0.0037 -0.2419
10705TIP3    H153606   5.406   3.675  15.936 -0.4635 -0.1154 -1.4806
10705TIP3    H253607   5.260   3.634  15.927 -0.0338 -1.4335 -2.6343
10706TIP3   OH253608   0.739   2.461  12.881  0.0824 -0.3759  0.7772
10706TIP3    H153609   0.785   2.471  12.965  1.2700 -0.4309  0.1396
10706TIP3    H253610   0.742   2.549  12.842 -2.4244  0.1862  1.7751
10707TIP3   OH253611   2.062   0.537  11.350  0.1098  0.0286  0.3607
10707TIP3    H153612   2.111   0.455  11.359  0.4961  0.1573 -0.5095
10707TIP3    H253613   1.973   0.515  11.378  0.0263 -0.8822 -0.5835
10708TIP3   OH253614   5.297   1.834  15.055 -0.2227 -0.7554  0.5020
10708TIP3    H153615   5.202   1.825  15.046 -0.2355  0.2981 -0.5260
10708TIP3    H253616   5.318   1.789  15.137 -1.9592  1.1153  2.0215
10709TIP3   OH253617   0.034   3.918   1.296  0.7391  0.2566 -0.1919
10709TIP3    H153618   0.083   3.964   1.228 -0.2796 -0.2410 -1.2760
10709TIP3    H253619  -0.011   3.988   1.344  0.8551  0.5587 -0.5192
10710TIP3   OH253620   5.509   6.399  12.464  0.7177  0.1129  0.3436
10710TIP3    H153621   5.463   6.446  12.533  1.0368  0.9133  0.0174
10710TIP3    H253622   5.501   6.307  12.487 -1.7265  0.1866 -0.1396
10711TIP3   OH253623   3.219   0.240  16.535  1.1034  0.1213  0.3035
10711TIP3    H153624   3.212   0.239  16.631 -1.0801  1.0779  0.1854
10711TIP3    H253625   3.141   0.195  16.505  2.3825 -1.2416 -1.0389
10712TIP3   OH253626   1.065   0.977  16.800  0.6127 -0.6621  0.0168
10712TIP3    H153627   1.042   1.059  16.757 -0.8034 -0.5842  0.9183
10712TIP3    H253628   1.153   0.956  16.766  0.3167  0.3802 -1.4307
10713TIP3   OH253629   0.990   4.246  14.066 -0.4489  0.7057  0.1805
10713TIP3    H153630   0.923   4.200  14.015 -0.9417  0.7048  0.8143
10713TIP3    H253631   1.066   4.189  14.064 -0.7930  0.2401  0.2858
10714TIP3   OH253632   1.949   3.172  13.292 -0.0309 -0.3767 -0.8401
10714TIP3    H153633   1.868   3.215  13.266 -1.2419 -1.9588  0.1879
10714TIP3    H253634   1.983   3.134  13.211  0.3057  1.2833 -1.4823
10715TIP3   OH253635   0.336   3.623  12.973 -0.1959 -0.2560 -0.1274
10715TIP3    H153636   0.309   3.557  12.909  0.8955 -0.8117 -0.0287
10715TIP3    H253637   0.413   3.664  12.934  0.0970 -0.1621  0.5434
10716TIP3   OH253638   0.528   1.501  14.861 -0.0579 -0.2444 -0.2591
10716TIP3    H153639   0.481   1.453  14.793  0.9260 -2.3860  0.5193
10716TIP3    H253640   0.502   1.459  14.943  0.5637  0.7789  0.4771
10717TIP3   OH253641   3.682   5.274  12.746  0.6252  0.2449 -0.2316
10717TIP3    H153642   3.593   5.259  12.715  0.5240 -0.3688  0.3559
10717TIP3    H253643   3.737   5.260  12.668  0.4258 -1.8673 -0.0029
10718TIP3   OH253644   2.767   1.917  15.506 -0.0241  0.4294 -0.5881
10718TIP3    H153645   2.771   1.844  15.444 -2.7697 -0.8731  0.7128
10718TIP3    H253646   2.757   1.995  15.451 -0.8794 -0.5491 -1.8393
10719TIP3   OH253647   5.695   5.516   1.974  0.0432 -0.0578  0.3138
10719TIP3    H153648   5.623   5.491   2.032 -0.6309  2.2429  0.5173
10719TIP3    H253649   5.661   5.504   1.886 -0.4387  0.6038  0.4105
10720TIP3   OH253650   0.331   5.127  17.277  0.1819 -0.0796  0.0228
10720TIP3    H153651   0.285   5.054  17.236 -1.3315  1.5883 -1.3041
10720TIP3    H253652   0.267   5.164  17.338  0.3976  1.1201 -0.4780
10721TIP3   OH253653   4.967   0.470  12.113  0.1515  0.3716  0.2932
10721TIP3    H153654   4.976   0.418  12.033 -2.2113 -0.0907  0.2808
10721TIP3    H253655   4.908   0.541  12.089  1.2754  1.5732  1.0261
10722TIP3   OH253656   0.944   1.810  13.249  0.0559 -0.5055  0.1498
10722TIP3    H153657   0.995   1.767  13.180  0.5011 -1.3265  0.9870
10722TIP3    H253658   0.872   1.750  13.267 -1.0734  0.5240 -0.8342
10723TIP3   OH253659   6.518   4.950  15.865 -0.1390  0.0959  0.0753
10723TIP3    H153660   6.509   5.045  15.867 -1.8123 -0.0590  0.1179
10723TIP3    H253661   6.492   4.920  15.952  0.5411 -0.3967  0.1200
10724TIP3   OH253662   4.167   1.056   1.257  0.4985  0.1271  0.1347
10724TIP3    H153663   4.116   0.983   1.223  0.6764  0.7622 -1.5535
10724TIP3    H253664   4.102   1.119   1.287  0.3226 -0.1993  0.4312
10725TIP3   OH253665   0.479   2.607  14.376  0.1588 -0.4044 -0.2972
10725TIP3    H153666   0.564   2.631  14.341  1.2374 -1.0060  1.8174
10725TIP3    H253667   0.445   2.688  14.415 -0.2839 -0.1488 -1.1970
10726TIP3   OH253668   6.672   3.230   4.422 -0.3793  0.1237  0.6203
10726TIP3    H153669   6.594   3.278   4.450  1.5755  2.7389  1.7757
10726TIP3    H253670   6.682   3.254   4.329 -1.0499 -0.4039  0.4030
10727TIP3   OH253671   1.797   3.143   3.915  0.1289 -0.2149 -0.0324
10727TIP3    H153672   1.704   3.165   3.918 -0.0277 -1.0651  1.8647
10727TIP3    H253673   1.829   3.162   4.003  1.8745  0.5073 -0.7989
10728TIP3   OH253674   6.381   5.311   3.833  0.1371  0.0846 -0.3384
10728TIP3    H153675   6.343   5.375   3.892  1.6106  1.9983 -1.3907
10728TIP3    H253676   6.475   5.325   3.839  0.3967 -0.8441 -1.8570
10729TIP3   OH253677   4.755   0.595  12.023 -0.1165  0.7624 -0.1059
10729TIP3    H153678   4.746   0.538  11.947  0.6069  0.9892 -0.3603
10729TIP3    H253679   4.666   0.625  12.041 -0.5365 -0.5997  0.1459
10730TIP3   OH253680   4.377   4.224   6.640 -0.1022  0.6757  0.1912
10730TIP3    H153681   4.461   4.179   6.650 -1.6671 -2.7680 -1.3110
10730TIP3    H253682   4.370   4.280   6.717  2.2528 -1.2175  1.8447
10731TIP3   OH253683   1.979   6.529  16.955  0.0981  0.2738  0.0311
10731TIP3    H153684   2.033   6.594  17.000 -0.9789  1.3695 -0.2217
10731TIP3    H253685   1.895   6.533  17.000 -0.0462 -0.7934 -0.1400
10732TIP3   OH253686   5.983   3.364   1.029 -0.0337 -0.2892  0.1880
10732TIP3    H153687   5.938   3.405   1.103  0.7044  1.4833 -0.3163
10732TIP3    H253688   6.073   3.351   1.060 -0.9138 -4.2429  1.3564
10733TIP3   OH253689   5.734   4.871   1.990  0.0774  0.1183 -0.0104
10733TIP3    H153690   5.718   4.787   2.033  1.3693  0.4066  1.0569
10733TIP3    H253691   5.767   4.848   1.903  1.9190 -0.5154  0.8233
10734TIP3   OH253692   0.235   6.609   5.519  0.4955  0.1535  0.4140
10734TIP3    H153693   0.260   6.575   5.605  2.4206  1.8463  0.5739
10734TIP3    H253694   0.263   6.542   5.457  0.9254 -0.2048  0.9867
10735TIP3   OH253695   5.459   3.870  11.073  0.2257 -0.0147 -0.2768
10735TIP3    H153696   5.385   3.811  11.055 -0.6157  0.7839  0.4918
10735TIP3    H253697   5.532   3.833  11.023 -0.2537 -1.7628  0.2794
10736TIP3   OH253698   3.523   4.641   2.020 -0.1899 -0.3700  0.5823
10736TIP3    H153699   3.525   4.550   1.989  0.0404  0.0994 -0.7821
10736TIP3    H253700   3.562   4.637   2.107  1.5665 -1.2912 -0.2200
10737TIP3   OH253701   1.655   3.089  14.029  0.3986 -0.5008  0.1520
10737TIP3    H153702   1.636   3.110  14.120 -0.1672 -0.9293  0.1367
10737TIP3    H253703   1.635   3.169  13.981  4.0267  0.8748  0.8057
10738TIP3   OH253704   4.137   3.883   6.204  0.2240  0.3905  0.4622
10738TIP3    H153705   4.098   3.909   6.121  0.0781 -1.8382 -0.1924
10738TIP3    H253706   4.126   3.788   6.207  1.4555  0.2888  2.3989
10739TIP3   OH253707   5.590   0.193  10.478  0.4932 -0.4498 -0.0429
10739TIP3    H153708   5.636   0.122  10.523  1.9495  0.7261  0.3754
10739TIP3    H253709   5.580   0.262  10.544 -0.7462 -0.1899 -0.4854
10740TIP3   OH253710   2.956   4.074  15.928 -0.2892  0.0134  0.4234
10740TIP3    H153711   2.889   4.126  15.883 -0.3776  0.6790  1.3197
10740TIP3    H253712   2.922   3.985  15.927 -0.3910  0.0572 -0.6347
10741TIP3   OH253713   0.604   3.881   4.351 -0.2381 -0.1264  0.2943
10741TIP3    H153714   0.538   3.925   4.404 -1.8059  0.2577 -1.8792
10741TIP3    H253715   0.671   3.947   4.336  0.0371 -0.1289  1.4653
10742TIP3   OH253716   0.166   2.610  17.072 -0.2278 -0.0368  0.1791
10742TIP3    H153717   0.111   2.598  17.150  0.3755 -2.3375  0.2858
10742TIP3    H253718   0.249   2.569  17.096  0.0241 -0.5875 -1.6182
10743TIP3   OH253719   1.870   1.749   4.716  0.0512 -0.2383  0.0456
10743TIP3    H153720   1.891   1.698   4.638  1.2115 -0.4143  0.4755
10743TIP3    H253721   1.919   1.830   4.707 -0.7029  0.2298  0.0479
10744TIP3   OH253722   5.945   2.995  12.320 -0.0589  0.0063  0.0454
10744TIP3    H153723   5.975   3.002  12.230  1.1517 -0.6726  0.3821
10744TIP3    H253724   5.850   2.997  12.314  0.0274  0.7109 -1.1778
10745TIP3   OH253725   5.888   4.299  15.408  0.1390  0.0579 -0.0552
10745TIP3    H153726   5.841   4.380  15.422  1.0732  0.6107 -0.0758
10745TIP3    H253727   5.822   4.230  15.416 -0.3569  0.7126  1.5353
10746TIP3   OH253728   2.300   3.770   1.697  0.2286  0.5821 -0.3107
10746TIP3    H153729   2.346   3.844   1.656  0.2232  1.0335  0.4786
10746TIP3    H253730   2.362   3.698   1.694  0.0555  0.4657 -1.5443
10747TIP3   OH253731   1.319   3.475   2.998  0.2256  0.0489  0.3140
10747TIP3    H153732   1.237   3.430   3.020  1.0726 -1.3803  0.5710
10747TIP3    H253733   1.375   3.406   2.963  0.2421  1.5605 -2.8393
10748TIP3   OH253734   1.428   5.995   2.956  0.5393  0.2505  0.4885
10748TIP3    H153735   1.488   5.995   2.881 -1.2909  0.6567 -1.0254
10748TIP3    H253736   1.444   5.911   3.000  0.7483 -0.5708 -1.1107
10749TIP3   OH253737   5.273   3.561   4.613 -0.5436  0.0548  0.0929
10749TIP3    H153738   5.197   3.612   4.643 -0.1156 -0.0647  1.3874
10749TIP3    H253739   5.325   3.547   4.691  0.6839 -0.1189 -0.7387
10750TIP3   OH253740   2.021   0.474   4.849  0.1174 -0.1426  0.1891
10750TIP3    H153741   2.084   0.542   4.824 -0.5118 -0.2038 -1.6670
10750TIP3    H253742   1.968   0.460   4.770 -2.0137 -0.3276  1.6135
10751TIP3   OH253743   4.559   0.562   6.247 -0.3702 -0.1169 -0.1185
10751TIP3    H153744   4.598   0.621   6.312 -0.9136  0.1268 -0.0135
10751TIP3    H253745   4.622   0.563   6.174 -0.6494  1.0485 -0.3574
10752TIP3   OH253746   1.758   1.538  10.192  0.1619  0.1334  0.7363
10752TIP3    H153747   1.732   1.616  10.241 -0.0413  0.3690  0.2617
10752TIP3    H253748   1.831   1.567  10.137 -0.8517  0.3748 -0.5202
10753TIP3   OH253749   2.182   3.170   3.557 -0.5623 -0.1594 -1.0092
10753TIP3    H153750   2.146   3.104   3.617 -0.6927  1.2840  0.5057
10753TIP3    H253751   2.122   3.168   3.482 -0.7784 -1.4932 -0.8142
10754TIP3   OH253752   3.293   4.573   5.090 -0.5338 -0.4351  0.4075
10754TIP3    H153753   3.350   4.649   5.097 -2.6659  1.0919  1.7396
10754TIP3    H253754   3.261   4.575   4.999 -0.1710 -0.0469  0.2899
10755TIP3   OH253755   4.531   1.175   0.779 -0.0284  0.1725 -0.2356
10755TIP3    H153756   4.535   1.103   0.841 -0.2927  0.6500  0.3369
10755TIP3    H253757   4.446   1.216   0.795 -0.3179 -0.0147 -1.2573
10756TIP3   OH253758   5.371   0.449   0.010 -0.0173 -0.4780  0.2104
10756TIP3    H153759   5.325   0.421   0.089 -1.3091 -1.8566 -1.0071
10756TIP3    H253760   5.385   0.369  -0.039  3.2429 -0.0234  0.2843
10757TIP3   OH253761   2.848   4.079   2.296  0.4676 -0.0783  1.0931
10757TIP3    H153762   2.930   4.078   2.247 -0.6937  0.6764 -0.9794
10757TIP3    H253763   2.781   4.060   2.230 -1.0184 -0.7670  2.7476
10758TIP3   OH253764   6.415   0.507  14.446  0.7240  0.4585 -0.5569
10758TIP3    H153765   6.453   0.455  14.517  2.0097  1.4688 -0.4946
10758TIP3    H253766   6.331   0.464  14.428  0.9492 -0.5631  0.7092
10759TIP3   OH253767   5.477   0.099  14.528  0.1866 -0.4271  0.3366
10759TIP3    H153768   5.492   0.150  14.449  0.0220 -0.6236  0.1770
10759TIP3    H253769   5.411   0.148  14.577  1.6956  0.7040  1.2838
10760TIP3   OH253770   0.212   2.037  15.655  0.4203  0.1300 -0.4748
10760TIP3    H153771   0.285   2.042  15.717  0.6015 -0.1699 -0.6627
10760TIP3    H253772   0.153   2.107  15.682  1.2371  0.9980 -0.9209
10761TIP3   OH253773   5.637   0.571   5.985  0.1911 -0.0561 -0.1759
10761TIP3    H153774   5.712   0.626   5.962  0.1283 -0.4466 -1.3710
10761TIP3    H253775   5.585   0.625   6.045  0.9351  0.5802 -0.0880
10762TIP3   OH253776   6.221   4.827  15.776  0.1270  0.3524  0.1554
10762TIP3    H153777   6.256   4.898  15.829 -0.8699  0.5014  0.6246
10762TIP3    H253778   6.266   4.835  15.692  1.3993  0.3804  0.8272
10763TIP3   OH253779   3.135   6.194  14.897 -0.0975 -0.0489 -0.7020
10763TIP3    H153780   3.068   6.180  14.963 -0.1604  1.1652 -0.4950
10763TIP3    H253781   3.173   6.107  14.882  0.6644 -0.1803  1.7202
10764TIP3   OH253782   0.039   6.494  13.393 -0.1149 -0.0748 -0.7400
10764TIP3    H153783   0.040   6.502  13.298 -1.7486  0.8530 -0.6881
10764TIP3    H253784  -0.052   6.507  13.417 -0.1179 -2.4872  0.7750
10765TIP3   OH253785   1.097   2.802   2.312 -0.1724  0.6577 -0.0365
10765TIP3    H153786   1.097   2.712   2.344 -0.8311  0.1554 -1.4070
10765TIP3    H253787   1.185   2.814   2.274 -0.0913  0.5822  0.1299
10766TIP3   OH253788   0.663   2.155  17.195 -0.3482 -0.0499 -0.2478
10766TIP3    H153789   0.730   2.210  17.235 -2.7218  2.7161  0.0730
10766TIP3    H253790   0.701   2.129  17.111  1.2698  1.1885  0.0607
10767TIP3   OH253791   5.138   6.431  16.411 -0.3592 -0.2002 -0.4918
10767TIP3    H153792   5.205   6.365  16.394 -1.7752 -1.7673 -0.1004
10767TIP3    H253793   5.119   6.468  16.325 -0.0945 -0.8563 -0.8357
10768TIP3   OH253794   3.772   1.265   2.565 -0.9208  0.5382  0.2691
10768TIP3    H153795   3.695   1.272   2.622 -1.6540  0.0846 -0.6482
10768TIP3    H253796   3.739   1.289   2.478  0.3603  2.0101  0.1546
10769TIP3   OH253797   5.230   0.453  12.773  0.1199 -0.2806 -0.0918
10769TIP3    H153798   5.226   0.547  12.754 -0.6137 -0.7002 -2.1448
10769TIP3    H253799   5.222   0.411  12.687  0.1018 -2.2324  0.8462
10770TIP3   OH253800   3.047   5.805  12.930  0.0846 -0.1155 -0.0771
10770TIP3    H153801   3.079   5.761  12.851 -0.3194 -0.2271 -0.1762
10770TIP3    H253802   3.082   5.753  13.002  2.7018  1.4829 -0.1145
10771TIP3   OH253803   0.440   2.676  13.347 -0.6589  0.7124  0.2099
10771TIP3    H153804   0.448   2.732  13.424 -0.8013  0.8008  0.1616
10771TIP3    H253805   0.406   2.593  13.381 -0.6362  0.7220  0.2549
10772TIP3   OH253806   2.576   0.616  11.665  0.2730  0.2254  0.2943
10772TIP3    H153807   2.545   0.700  11.702  0.2045  0.0918  0.5438
10772TIP3    H253808   2.542   0.616  11.576 -1.6640 -0.5488  1.0072
10773TIP3   OH253809   3.705   1.965  15.458 -0.6560  0.1436  0.4186
10773TIP3    H153810   3.691   1.881  15.501  0.3330  0.2894  1.0433
10773TIP3    H253811   3.773   2.008  15.511  0.7082  0.2527 -1.4032
10774TIP3   OH253812   0.549   4.029  15.245  0.1582  0.5701 -0.0830
10774TIP3    H153813   0.564   4.031  15.339 -2.1556 -0.1463  0.3358
10774TIP3    H253814   0.586   4.111  15.213  1.0625  0.7707  1.4258
10775TIP3   OH253815   6.525   3.683  14.631  0.0900 -0.3918 -0.0106
10775TIP3    H153816   6.432   3.661  14.632 -0.8722  3.2136 -2.0288
10775TIP3    H253817   6.537   3.739  14.707  0.3247  0.2314 -0.5068
10776TIP3   OH253818   5.709   1.495   0.150  0.3026  0.7640 -0.4374
10776TIP3    H153819   5.628   1.538   0.175  0.0739 -0.6473  1.2775
10776TIP3    H253820   5.778   1.558   0.173 -0.1526  0.9874  0.3163
10777TIP3   OH253821   1.058   4.128  11.343  0.0356  0.3328 -0.5129
10777TIP3    H153822   1.044   4.151  11.251 -0.0871  1.9727 -0.1147
10777TIP3    H253823   1.070   4.213  11.387 -1.4487 -0.3151  1.2279
10778TIP3   OH253824   0.177   2.769  15.302 -0.2062 -0.0171 -0.1873
10778TIP3    H153825   0.211   2.692  15.257 -0.4782  0.3481 -1.0167
10778TIP3    H253826   0.193   2.841  15.242  0.1455  0.5946  0.6338
10779TIP3   OH253827   4.177   2.355   5.815  0.3645  0.2781 -0.1086
10779TIP3    H153828   4.109   2.290   5.835  0.9179 -0.4387 -0.5309
10779TIP3    H253829   4.195   2.397   5.899  1.1051 -1.1830  0.4710
10780TIP3   OH253830   1.030   5.074   0.455  0.6605  0.5200 -0.1373
10780TIP3    H153831   1.054   5.130   0.528  1.9867  2.8866 -2.3186
10780TIP3    H253832   0.941   5.101   0.432  0.6136  0.4476 -0.0443
10781TIP3   OH253833   3.377   4.842   3.628 -0.7828 -0.4973 -0.2095
10781TIP3    H153834   3.396   4.831   3.722 -0.6814  0.8402 -0.0716
10781TIP3    H253835   3.284   4.863   3.625 -0.4706  0.9115 -0.2952
10782TIP3   OH253836   5.443   1.688  13.677 -0.0386 -0.0397  1.0580
10782TIP3    H153837   5.361   1.717  13.638 -1.2362 -1.0726  2.7270
10782TIP3    H253838   5.417   1.649  13.761  2.1728 -0.2201  1.6928
10783TIP3   OH253839   0.763   2.939   5.490  0.0664  0.2432 -0.5873
10783TIP3    H153840   0.749   3.025   5.528 -1.4580  0.5684 -1.8414
10783TIP3    H253841   0.777   2.955   5.397  2.7254 -0.6275 -0.3931
10784TIP3   OH253842   4.922   3.476   3.922  0.1735  0.1068 -0.0693
10784TIP3    H153843   4.986   3.496   3.990 -1.5063  1.7149  1.0811
10784TIP3    H253844   4.837   3.496   3.962 -0.9431 -0.3190 -2.1481
10785TIP3   OH253845   2.405   2.105  13.283  0.2605  0.2524 -0.3997
10785TIP3    H153846   2.416   2.114  13.189  0.5812  0.8696 -0.3067
10785TIP3    H253847   2.310   2.102  13.296  0.2143  0.2840 -0.7352
10786TIP3   OH253848   5.484   2.800  14.089  0.2290 -0.5660 -0.1315
10786TIP3    H153849   5.496   2.800  14.184 -2.3177  0.2724  0.2332
10786TIP3    H253850   5.568   2.829  14.054  0.1284  2.6209  2.0507
10787TIP3   OH253851   0.473   6.683  10.997 -0.1211  0.5256  0.1041
10787TIP3    H153852   0.534   6.641  10.937 -0.6781 -1.5398  0.9117
10787TIP3    H253853   0.387   6.656  10.966 -0.4893  0.9297  0.7573
10788TIP3   OH253854   6.439   3.328  13.737  0.0865 -0.1176 -0.4624
10788TIP3    H153855   6.528   3.360  13.755  0.6572 -0.7115 -2.1355
10788TIP3    H253856   6.390   3.348  13.816  0.9269  3.0744 -0.6974
10789TIP3   OH253857   2.876   4.811  11.275  0.0147 -0.1622  0.4008
10789TIP3    H153858   2.847   4.785  11.363  1.6635 -0.6492  0.8282
10789TIP3    H253859   2.878   4.907  11.278 -0.1128 -0.1711  0.8410
10790TIP3   OH253860   4.698   3.215   6.031  0.5210 -0.0368 -0.2410
10790TIP3    H153861   4.690   3.132   6.078 -1.0288  0.3590  0.2215
10790TIP3    H253862   4.695   3.281   6.100  1.4416  0.4318 -0.6382
10791TIP3   OH253863   6.097   5.637  15.105 -0.7444 -0.2857 -0.4566
10791TIP3    H153864   6.174   5.691  15.087  0.4345 -1.8365 -0.1959
10791TIP3    H253865   6.089   5.581  15.028 -1.1065 -0.7302 -0.0934
10792TIP3   OH253866   2.863   4.969   6.495  0.1036 -0.9027 -0.6227
10792TIP3    H153867   2.956   4.990   6.483  0.7711 -2.9261  0.6818
10792TIP3    H253868   2.853   4.883   6.454 -0.9727 -1.0954  0.0440
10793TIP3   OH253869   1.274   1.486   4.275 -0.4911  0.5280  0.1782
10793TIP3    H153870   1.313   1.569   4.249  0.5695  0.5341  1.6862
10793TIP3    H253871   1.283   1.430   4.199 -1.2771  1.8061 -0.8817
10794TIP3   OH253872   0.339   6.117  11.216  0.1305  0.5543 -0.2777
10794TIP3    H153873   0.268   6.118  11.152  0.6386  0.8217 -0.8447
10794TIP3    H253874   0.419   6.124  11.163  0.5611  0.5582  0.3707
10795TIP3   OH253875   1.615   1.943  15.224  0.3422  0.3185  0.2517
10795TIP3    H153876   1.664   2.022  15.245  0.5131  0.1174  0.5970
10795TIP3    H253877   1.564   1.924  15.303 -0.9168  0.9938 -0.3860
10796TIP3   OH253878   2.420   5.805   4.433  0.0032 -0.1067  0.2013
10796TIP3    H153879   2.391   5.860   4.506 -1.0346 -0.3474 -0.0300
10796TIP3    H253880   2.343   5.754   4.409  1.2966 -2.6433  1.2699
10797TIP3   OH253881   0.333   6.725  12.467 -0.0294  0.2227 -0.7664
10797TIP3    H153882   0.265   6.764  12.522 -0.1457  0.2315 -0.9172
10797TIP3    H253883   0.358   6.645  12.514  0.2098  0.4767 -0.4555
10798TIP3   OH253884   5.267   2.281   3.453 -0.3705  0.3034 -0.2730
10798TIP3    H153885   5.286   2.368   3.419 -1.0587  0.9463  0.9483
10798TIP3    H253886   5.263   2.292   3.548  0.5442 -1.2634 -0.0272
10799TIP3   OH253887   6.736   5.090   3.384 -0.4386 -0.2227  0.0914
10799TIP3    H153888   6.665   5.092   3.320  0.6359  3.0331 -1.0917
10799TIP3    H253889   6.714   5.161   3.445  0.4589 -0.9234  1.2469
10800TIP3   OH253890   6.145   1.195   3.563  0.1329 -0.3066 -0.1123
10800TIP3    H153891   6.102   1.267   3.610  0.7289 -1.4148  2.1928
10800TIP3    H253892   6.226   1.234   3.530 -0.2291  0.4525 -0.1415
10801TIP3   OH253893   1.158   0.294  12.466  0.5196  0.1919  0.2994
10801TIP3    H153894   1.225   0.249  12.415  1.1273 -0.2645  1.4710
10801TIP3    H253895   1.208   0.347  12.528 -0.2003  1.1810  0.0451
10802TIP3   OH253896   2.798   6.156  15.989 -0.4401  0.5729 -0.5330
10802TIP3    H153897   2.815   6.231  15.932  0.0648 -0.3363 -1.6083
10802TIP3    H253898   2.729   6.107  15.944  1.0815 -1.0080 -1.2146
10803TIP3   OH253899   3.328   0.227  12.641 -0.0263  0.2063  0.5051
10803TIP3    H153900   3.265   0.280  12.593 -0.8809 -1.3157 -0.0654
10803TIP3    H253901   3.282   0.202  12.722  0.5058  0.6244  0.9458
10804TIP3   OH253902   0.723   1.711  14.914  0.4690 -0.0123 -0.1702
10804TIP3    H153903   0.772   1.639  14.954  1.4786  0.0183 -1.3577
10804TIP3    H253904   0.656   1.668  14.861 -0.0246 -0.0551  0.4742
10805TIP3   OH253905   3.275   0.296  15.821  0.2719  0.5545  0.2143
10805TIP3    H153906   3.181   0.308  15.836  0.0963  0.3816 -0.7591
10805TIP3    H253907   3.294   0.347  15.742  0.2761 -2.3523 -1.7149
10806TIP3   OH253908   2.321   3.374  16.614 -0.1705  0.0439 -0.1130
10806TIP3    H153909   2.252   3.316  16.581  0.1535 -0.6352  0.3815
10806TIP3    H253910   2.401   3.323  16.605 -0.1262 -0.3085  2.0399
10807TIP3   OH253911   2.871   1.697  12.695  0.7816  0.2318 -0.1184
10807TIP3    H153912   2.927   1.714  12.619  1.4442 -0.8044  0.1190
10807TIP3    H253913   2.782   1.710  12.663  1.1089  0.7737 -0.8152
10808TIP3   OH253914   0.628   1.551   6.238 -0.3872 -0.1530 -0.2316
10808TIP3    H153915   0.600   1.469   6.279  0.2554 -0.8831 -1.2412
10808TIP3    H253916   0.715   1.569   6.274  0.3935 -1.0596 -1.6257
10809TIP3   OH253917   1.313   5.206   2.292  0.1552  0.5410  0.2119
10809TIP3    H153918   1.225   5.218   2.327 -0.9677 -1.8943 -1.6223
10809TIP3    H253919   1.301   5.149   2.216  3.1832  1.1056 -0.7562
10810TIP3   OH253920   5.434   6.250  13.668  0.1934 -0.1804 -0.4552
10810TIP3    H153921   5.415   6.329  13.718  0.4818 -0.8990  0.8007
10810TIP3    H253922   5.360   6.192  13.686 -0.1697 -0.0914 -1.6153
10811TIP3   OH253923   2.842   4.994   5.240  0.2200 -0.0771 -0.8532
10811TIP3    H153924   2.866   4.996   5.148  0.1006  0.5043 -0.8763
10811TIP3    H253925   2.845   5.086   5.268 -1.7281  0.0114 -0.8063
10812TIP3   OH253926   4.614   3.446  16.863  0.1274  0.0461 -0.3033
10812TIP3    H153927   4.671   3.411  16.931  0.2423  0.5335 -0.1499
10812TIP3    H253928   4.526   3.441  16.900 -0.0630 -1.6400 -0.9223
10813TIP3   OH253929   1.398   0.750  16.540  0.0659  0.1947  0.1122
10813TIP3    H153930   1.331   0.690  16.507 -0.4317  1.6924 -1.6688
10813TIP3    H253931   1.453   0.770  16.465  2.0335 -0.3394  1.3693
10814TIP3   OH253932   5.010   6.457  14.780 -0.2494 -0.0185  0.1087
10814TIP3    H153933   5.033   6.533  14.835 -1.5450  0.2797  0.2624
10814TIP3    H253934   4.922   6.477  14.749  0.0769 -0.6876 -1.2389
10815TIP3   OH253935   2.284   3.843  16.463  0.3743  0.3941  0.1213
10815TIP3    H153936   2.243   3.891  16.535  0.5845  0.3574  0.2654
10815TIP3    H253937   2.324   3.911  16.408  2.2352  0.2809  1.3065
10816TIP3   OH253938   1.537   5.912  14.006  0.1718 -0.0247  0.1716
10816TIP3    H153939   1.449   5.898  13.972  0.8868 -2.5431 -0.8158
10816TIP3    H253940   1.536   6.001  14.040 -2.6159  0.1456 -0.2097
10817TIP3   OH253941   2.935   0.534  14.955  0.2485  0.2919  0.0375
10817TIP3    H153942   2.887   0.535  14.873  0.1631 -0.2090  0.0812
10817TIP3    H253943   2.875   0.494  15.018  0.9881 -1.0239 -0.0742
10818TIP3   OH253944   2.663   5.911  16.228 -0.4058 -0.1915 -0.2677
10818TIP3    H153945   2.609   5.845  16.185  2.1493 -1.3721 -1.7671
10818TIP3    H253946   2.752   5.877  16.222  0.2536  0.4358  4.5150
10819TIP3   OH253947   5.842   2.449   3.611  0.0181 -0.4714  0.6277
10819TIP3    H153948   5.841   2.492   3.697 -2.2161 -1.7754  1.2844
10819TIP3    H253949   5.884   2.365   3.627 -0.1029 -0.5801  0.3755
10820TIP3   OH253950   1.358   0.922  16.734  0.5364 -0.2181 -0.1824
10820TIP3    H153951   1.371   0.855  16.667 -2.8355 -2.8874  1.6570
10820TIP3    H253952   1.407   0.890  16.810  0.1523  0.1604  0.2276
10821TIP3   OH253953   0.015   2.942  11.822 -0.1929 -0.4586 -0.0051
10821TIP3    H153954   0.013   2.969  11.730  2.0057 -0.2258 -0.0273
10821TIP3    H253955   0.007   3.024  11.871  0.5163 -0.3739 -0.0210
10822TIP3   OH253956   2.994   5.691   0.898 -0.6840  0.2205  0.2431
10822TIP3    H153957   2.924   5.756   0.909  0.8460  1.5706  2.5332
10822TIP3    H253958   3.070   5.742   0.869  0.0925 -0.8006  0.4614
10823TIP3   OH253959   4.996   0.792   5.450 -0.0161 -0.0206  0.0848
10823TIP3    H153960   5.018   0.790   5.357  0.2540 -1.1026  0.1714
10823TIP3    H253961   5.025   0.879   5.480 -1.0033  0.7077 -1.0497
10824TIP3   OH253962   3.532   2.365   6.179  0.4302 -0.1197  0.1387
10824TIP3    H153963   3.486   2.282   6.192 -0.1659  0.5197  2.4809
10824TIP3    H253964   3.475   2.415   6.120  0.7124 -1.3017 -1.1498
10825TIP3   OH253965   1.083   2.167   6.348  0.4393 -0.5383  0.2763
10825TIP3    H153966   1.053   2.096   6.290 -0.9863  1.0578 -0.9929
10825TIP3    H253967   1.141   2.219   6.292 -1.5222  1.4330  0.0042
10826TIP3   OH253968   2.314   3.052   1.842  0.7650 -0.2853 -0.0479
10826TIP3    H153969   2.237   2.996   1.847  0.4493  0.2073  0.6185
10826TIP3    H253970   2.362   3.034   1.923  0.2407  1.0202  0.5647
10827TIP3   OH253971   4.607   5.076   5.221  0.3368  0.3453 -0.1763
10827TIP3    H153972   4.682   5.133   5.242 -0.2705  0.5922  1.3665
10827TIP3    H253973   4.549   5.131   5.170  0.9139  0.3467 -0.8381
10828TIP3   OH253974   3.005   5.023  14.174 -0.5495 -0.0989 -0.0017
10828TIP3    H153975   3.041   5.038  14.261  1.8232 -2.0897 -0.5633
10828TIP3    H253976   2.983   4.930  14.172 -1.5354  0.1380 -1.1872
10829TIP3   OH253977   3.037   6.577  10.993  0.0758 -0.3736  0.2666
10829TIP3    H153978   3.024   6.508  10.927  0.9555 -1.3718  1.1226
10829TIP3    H253979   3.067   6.530  11.071 -2.0304  0.6689  1.7471
10830TIP3   OH253980   3.493   6.771  13.005 -0.3216 -0.0376 -0.3319
10830TIP3    H153981   3.484   6.701  12.940 -0.1582  0.5602 -1.0042
10830TIP3    H253982   3.569   6.821  12.975 -0.5757  0.5602  0.0282
10831TIP3   OH253983   6.705   1.950  11.398 -0.1194 -0.3277 -0.3682
10831TIP3    H153984   6.664   2.029  11.432  2.4401  0.9925 -0.2165
10831TIP3    H253985   6.729   1.899  11.476 -0.8964 -0.8068 -0.4364
10832TIP3   OH253986   3.231   6.797  15.602 -0.2877  0.8934  0.7083
10832TIP3    H153987   3.161   6.733  15.618  0.2938  0.0559 -0.1197
10832TIP3    H253988   3.250   6.790  15.509  0.8046  1.2285  0.9023
10833TIP3   OH253989   3.021   3.962   2.066 -0.4675 -0.4467  0.5275
10833TIP3    H153990   3.096   3.962   2.125 -0.5959 -2.3068  0.7281
10833TIP3    H253991   3.039   3.890   2.005 -0.1688  1.6357 -1.9390
10834TIP3   OH253992   5.364   6.080  10.577 -0.0712 -0.6940  0.3576
10834TIP3    H153993   5.328   6.010  10.523  1.4074 -0.9620 -0.3081
10834TIP3    H253994   5.318   6.159  10.549 -1.4318 -1.3094  0.8023
10835TIP3   OH253995   3.249   5.002   1.634  0.5934 -0.4497  0.2612
10835TIP3    H153996   3.165   5.045   1.649  1.2826  1.3777 -1.0688
10835TIP3    H253997   3.228   4.908   1.640 -0.9689  0.0067  2.8731
10836TIP3   OH253998   5.036   4.524   2.524 -0.4102 -0.3562  0.3295
10836TIP3    H153999   5.000   4.471   2.595  0.8674 -1.4134  0.1964
10836TIP3    H254000   5.107   4.472   2.487 -0.0103  0.8634 -0.6970
10837TIP3   OH254001   1.723   1.519   0.606  0.2514  0.3513  0.0979
10837TIP3    H154002   1.647   1.513   0.663  0.9101  0.2939  0.9813
10837TIP3    H254003   1.709   1.599   0.555 -0.2723  0.4797  0.4392
10838TIP3   OH254004   0.492   0.157  15.959 -0.3203 -0.3235  0.4763
10838TIP3    H154005   0.425   0.218  15.930  0.0492 -0.2348 -0.2000
10838TIP3    H254006   0.488   0.085  15.896  0.8542  0.1237 -0.1076
10839TIP3   OH254007   1.571   5.884  17.223 -0.9038 -0.2818  0.3071
10839TIP3    H154008   1.530   5.799  17.207 -2.0074 -0.0642  1.8180
10839TIP3    H254009   1.569   5.894  17.318  1.3332  0.4253  0.3170
10840TIP3   OH254010   4.518   0.833  16.877 -0.6602 -0.0840 -0.0162
10840TIP3    H154011   4.436   0.880  16.863 -0.0811  1.5925  2.0152
10840TIP3    H254012   4.532   0.837  16.971  2.6363  1.1646 -0.4992
10841TIP3   OH254013   6.484   0.409   1.325 -0.0623 -0.2437 -0.1404
10841TIP3    H154014   6.400   0.408   1.371 -0.4434  0.9628 -0.7796
10841TIP3    H254015   6.547   0.375   1.388 -1.3094 -2.9398 -0.2498
10842TIP3   OH254016   2.449   3.449  12.225 -0.3915 -0.3880 -0.4262
10842TIP3    H154017   2.455   3.440  12.130  1.2642  0.5402 -0.4279
10842TIP3    H254018   2.409   3.535  12.239 -0.8284 -0.6125 -0.2744
10843TIP3   OH254019   2.907   6.218  12.534 -0.6409  0.2887 -0.2014
10843TIP3    H154020   2.958   6.298  12.539  0.4739 -0.4197 -0.0525
10843TIP3    H254021   2.835   6.231  12.596 -0.6775  1.3150 -0.4555
10844TIP3   OH254022   6.338   1.120   3.751  0.0326  0.1754  0.2180
10844TIP3    H154023   6.300   1.100   3.836  0.5482  2.1615  0.9503
10844TIP3    H254024   6.264   1.124   3.691 -0.3760 -0.8123  0.6509
10845TIP3   OH254025   6.709   6.355   2.966  0.3748 -0.1568  0.3607
10845TIP3    H154026   6.745   6.266   2.957 -1.5227 -1.0849  1.6417
10845TIP3    H254027   6.775   6.411   2.925  1.2509 -2.2220 -1.1870
10846TIP3   OH254028   1.148   0.973   0.598  0.8057 -0.1471 -0.2141
10846TIP3    H154029   1.162   0.894   0.546  0.2875  0.4479 -1.2601
10846TIP3    H254030   1.196   1.042   0.553 -0.3393  0.5573 -0.3880
10847TIP3   OH254031   5.196   4.932  14.947  0.1785  0.4313  0.1124
10847TIP3    H154032   5.278   4.899  14.910  0.2891  0.9942 -0.1432
10847TIP3    H254033   5.140   4.855  14.954  1.1112 -0.1669  1.3142
10848TIP3   OH254034   1.852   1.948   3.081 -0.1845 -0.3835 -0.2893
10848TIP3    H154035   1.891   1.931   2.995 -0.1990  1.5808 -0.7025
10848TIP3    H254036   1.807   1.866   3.103  1.0800 -1.4172 -1.4615
10849TIP3   OH254037   3.256   3.688  10.509  0.1617 -0.0262  0.1536
10849TIP3    H154038   3.320   3.758  10.499  0.5204 -0.2262  1.0271
10849TIP3    H254039   3.171   3.732  10.500  0.3877  0.5128  0.6268
10850TIP3   OH254040   5.570   2.807   4.015 -0.1084  0.0131  0.1853
10850TIP3    H154041   5.519   2.885   3.993  0.5985  0.2750 -0.5588
10850TIP3    H254042   5.540   2.742   3.952 -0.8276 -0.3824  0.9201
10851TIP3   OH254043   1.811   0.143   2.642  0.0069  0.5379 -0.3101
10851TIP3    H154044   1.823   0.128   2.736  0.0549  1.3417 -0.1899
10851TIP3    H254045   1.827   0.057   2.603  0.3063  0.2695  0.3858
10852TIP3   OH254046   4.944   0.184  12.558 -0.3002  0.0693 -0.3382
10852TIP3    H154047   4.892   0.264  12.545 -1.3733 -0.4782  0.4829
10852TIP3    H254048   4.879   0.117  12.582  0.9107 -0.3258  1.9929
10853TIP3   OH254049   0.661   0.057  13.511  0.3883 -0.5260 -0.1232
10853TIP3    H154050   0.691   0.021  13.594  0.3191 -2.5665 -0.9736
10853TIP3    H254051   0.742   0.080  13.464  0.4168  1.4091  0.8102
10854TIP3   OH254052   5.137   0.813   0.854 -0.0228  0.3770  0.1390
10854TIP3    H154053   5.198   0.877   0.892  0.4839  0.7150 -1.2453
10854TIP3    H254054   5.053   0.835   0.893  0.3159  1.3257  0.3549
10855TIP3   OH254055   5.263   4.783  13.843  0.2046  0.4817  0.1080
10855TIP3    H154056   5.295   4.763  13.755  2.1771  1.0640  0.6699
10855TIP3    H254057   5.326   4.740  13.901 -1.7823 -0.9461  1.2364
10856TIP3   OH254058   4.080   3.268  15.720 -0.6239  0.2150 -0.3032
10856TIP3    H154059   4.007   3.223  15.762 -0.2435 -0.0238  0.1028
10856TIP3    H254060   4.104   3.212  15.647 -0.1553 -0.2315  0.1960
10857TIP3   OH254061   6.728   6.668   3.187  0.3146  0.1405 -0.2918
10857TIP3    H154062   6.813   6.664   3.143  0.4758 -1.6868  0.1153
10857TIP3    H254063   6.747   6.648   3.279 -0.5426 -0.2891 -0.1970
10858TIP3   OH254064   6.785   4.082   6.639 -0.3104 -0.0915 -0.8552
10858TIP3    H154065   6.859   4.095   6.580  0.7794 -1.7251  0.1125
10858TIP3    H254066   6.791   4.155   6.701  0.3983 -0.1164 -0.8913
10859TIP3   OH254067   4.363   4.723  12.297  0.4344  0.0567  0.6307
10859TIP3    H154068   4.373   4.643  12.348 -1.6482  1.0447  2.6832
10859TIP3    H254069   4.436   4.779  12.326  1.9396 -1.0822 -0.8695
10860TIP3   OH254070   5.234   5.219   0.505 -0.3042  1.1278 -0.1943
10860TIP3    H154071   5.272   5.140   0.543 -0.7073  1.0842  0.1263
10860TIP3    H254072   5.148   5.227   0.547 -1.4427  0.1986 -2.3029
10861TIP3   OH254073   3.656   5.549  16.037 -0.1201  0.3839 -0.0570
10861TIP3    H154074   3.608   5.625  16.067  0.0464 -0.4444  2.4746
10861TIP3    H254075   3.747   5.579  16.029  0.1639  0.2301  2.0732
10862TIP3   OH254076   3.751   0.735   2.217  0.0488 -0.2764 -0.4804
10862TIP3    H154077   3.774   0.642   2.208  2.3800  0.2887 -0.8155
10862TIP3    H254078   3.822   0.772   2.270  0.5523  1.8151 -2.5345
10863TIP3   OH254079   3.947   3.066  15.865 -0.6675 -0.4897  0.2423
10863TIP3    H154080   3.927   3.135  15.928 -1.2775 -0.3803 -0.0640
10863TIP3    H254081   4.007   3.007  15.911 -0.6289 -0.0834  0.7124
10864TIP3   OH254082   2.911   2.678   5.948 -0.1905  0.2493 -0.2421
10864TIP3    H154083   2.819   2.678   5.921 -0.4045 -0.7802  0.4456
10864TIP3    H254084   2.907   2.685   6.044  0.4695  0.6166 -0.2363
10865TIP3   OH254085   5.489   4.425  13.240 -0.5013  0.1997  0.0415
10865TIP3    H154086   5.395   4.424  13.222 -0.5039 -0.4567  0.0618
10865TIP3    H254087   5.524   4.357  13.182  0.0911  1.0961 -0.6559
10866TIP3   OH254088   2.575   3.988   3.461  0.0983  0.6766  0.2363
10866TIP3    H154089   2.493   3.993   3.510  0.2477  2.3037  0.3520
10866TIP3    H254090   2.637   4.040   3.514  0.6440  1.2153 -0.9073
10867TIP3   OH254091   0.946   1.660   1.128  0.0078  0.3840 -0.1315
10867TIP3    H154092   0.979   1.588   1.075  0.3897 -1.0398  1.9926
10867TIP3    H254093   1.018   1.724   1.128  0.9253 -0.6118  0.5190
10868TIP3   OH254094   5.461   4.196   0.218  0.0265  0.4945  0.1461
10868TIP3    H154095   5.474   4.243   0.299  0.0577  1.5901 -0.4904
10868TIP3    H254096   5.377   4.150   0.230  1.4464 -1.7104  1.9006
10869TIP3   OH254097   3.940   4.355   0.508  0.0046 -0.6991 -0.6355
10869TIP3    H154098   3.877   4.347   0.436  2.3516 -1.1754 -2.7022
10869TIP3    H254099   3.979   4.268   0.515  1.8285  0.1019 -0.7111
10870TIP3   OH254100   1.259   5.214   0.068 -0.1124  0.2454  0.1577
10870TIP3    H154101   1.294   5.146   0.125  1.9553  0.6095 -0.6598
10870TIP3    H254102   1.334   5.246   0.018 -1.2164  2.5196 -0.1208
10871TIP3   OH254103   3.588   3.627  14.530  0.0280 -0.2613  0.0311
10871TIP3    H154104   3.649   3.657  14.597  1.6657 -2.0893 -0.5646
10871TIP3    H254105   3.602   3.687  14.457  0.9567 -0.5178 -0.0109
10872TIP3   OH254106   2.797   1.793   2.620  0.8280 -0.4222  0.1637
10872TIP3    H154107   2.866   1.835   2.569  0.0754  0.2630 -0.3198
10872TIP3    H254108   2.842   1.732   2.678  1.9289  0.9107  0.7202
10873TIP3   OH254109   3.849   2.399  14.099 -0.4826 -0.2674 -0.4890
10873TIP3    H154110   3.881   2.369  14.184  1.5496  2.2120 -0.3156
10873TIP3    H254111   3.924   2.388  14.040 -0.0775  3.0134 -0.7024
10874TIP3   OH254112   3.396   0.546   5.571 -0.3463  0.1797 -0.1626
10874TIP3    H154113   3.359   0.624   5.530 -1.1368  1.1615  2.3244
10874TIP3    H254114   3.467   0.519   5.512 -0.9017  2.0023 -1.7084
10875TIP3   OH254115   0.431   0.462  16.219  0.3925 -0.2626 -0.0376
10875TIP3    H154116   0.403   0.374  16.245 -0.8830 -0.1108 -0.8476
10875TIP3    H254117   0.354   0.500  16.177  0.5857  1.6570  1.2768
10876TIP3   OH254118   1.371   1.471  11.378 -0.0837  0.6632  0.3987
10876TIP3    H154119   1.278   1.490  11.368 -0.1876 -0.2042 -0.3107
10876TIP3    H254120   1.374   1.380  11.408  0.5221  0.7936  0.7523
10877TIP3   OH254121   4.079   0.841   5.787  0.9107  0.5474  0.0702
10877TIP3    H154122   4.099   0.803   5.872 -1.1950 -0.4649  0.1298
10877TIP3    H254123   4.061   0.767   5.730  0.6611  1.2946 -0.8473
10878TIP3   OH254124   5.958   5.209   3.057 -0.7454  0.0854  0.3078
10878TIP3    H154125   5.960   5.143   2.988 -2.7592  0.9977 -0.6757
10878TIP3    H254126   5.957   5.159   3.139 -0.3059 -1.0444 -0.3682
10879TIP3   OH254127   1.407   2.436  12.035  0.0393  0.0134 -0.2807
10879TIP3    H154128   1.347   2.414  12.106  0.8006 -0.1876  0.3106
10879TIP3    H254129   1.423   2.353  11.991  2.2608 -0.5412  1.4429
10880TIP3   OH254130   5.548   5.117   2.754  0.3768  0.1818 -0.0596
10880TIP3    H154131   5.630   5.151   2.718  1.3094 -0.5579  1.3306
10880TIP3    H254132   5.554   5.022   2.744  0.1971  0.0362  1.0530
10881TIP3   OH254133   3.977   4.698   2.499 -0.2059 -0.3522 -0.1487
10881TIP3    H154134   3.907   4.746   2.454 -0.5387  0.7881  1.5220
10881TIP3    H254135   4.026   4.766   2.545  1.4096 -1.2642 -0.5017
10882TIP3   OH254136   3.183   3.275  12.360  0.0968 -0.3409  0.4814
10882TIP3    H154137   3.097   3.316  12.349 -0.6767 -2.4342 -1.9368
10882TIP3    H254138   3.245   3.344  12.339 -1.1640 -0.1429 -3.0408
10883TIP3   OH254139   2.591   6.748   5.536  0.4174 -0.0248 -0.1284
10883TIP3    H154140   2.536   6.826   5.528  0.3612  0.0062  0.5385
10883TIP3    H254141   2.665   6.776   5.590  0.4686 -0.3948 -0.0067
10884TIP3   OH254142   6.085   2.795  17.119  0.3714  0.1532 -0.2481
10884TIP3    H154143   6.000   2.798  17.075  0.8225  1.3071 -1.0677
10884TIP3    H254144   6.091   2.878  17.167  0.3830 -0.5904  1.0668
10885TIP3   OH254145   0.218   2.052   4.160 -0.1803  0.0953  0.4291
10885TIP3    H154146   0.245   1.963   4.136  1.5828  0.3290  1.4657
10885TIP3    H254147   0.123   2.047   4.169  0.0338 -1.9824  1.7077
10886TIP3   OH254148   5.380   4.388   5.954 -0.9259 -0.7109 -0.4916
10886TIP3    H154149   5.302   4.430   5.990 -1.1421 -1.3571 -0.1839
10886TIP3    H254150   5.451   4.416   6.012 -1.0919 -0.8860 -0.2006
10887TIP3   OH254151   2.058   4.480  14.097 -0.1710 -0.1119 -0.4529
10887TIP3    H154152   2.116   4.447  14.166  1.8695  1.4200 -1.3955
10887TIP3    H254153   2.102   4.457  14.015 -0.7782  1.2495 -1.1748
10888TIP3   OH254154   6.142   2.438  13.739  0.0010  0.1225  0.4868
10888TIP3    H154155   6.149   2.489  13.659  4.1658  0.7779  1.1168
10888TIP3    H254156   6.120   2.502  13.807 -1.8264 -0.1424  0.1482
10889TIP3   OH254157   3.013   2.903  15.139  0.0980 -0.5036  0.3851
10889TIP3    H154158   3.028   2.951  15.220 -0.9129  0.5012 -0.0058
10889TIP3    H254159   3.075   2.941  15.076  0.1879 -0.5861  0.4243
10890TIP3   OH254160   1.397   0.618  13.646 -0.1147 -0.1908  0.3124
10890TIP3    H154161   1.375   0.650  13.733  1.5611 -0.2588  0.7769
10890TIP3    H254162   1.490   0.637  13.636 -0.1523 -0.7208 -1.2358
10891TIP3   OH254163   2.826   6.221  14.305 -0.0720 -0.4711  0.5030
10891TIP3    H154164   2.764   6.294  14.305 -1.5698 -1.7050 -1.0188
10891TIP3    H254165   2.912   6.263  14.304 -0.8916  1.2593 -0.0629
10892TIP3   OH254166   6.684   4.900  16.667 -0.1424 -0.2955 -0.0361
10892TIP3    H154167   6.750   4.874  16.603  0.4753  1.6134 -0.1873
10892TIP3    H254168   6.632   4.967  16.623 -1.1360 -0.5836  0.6706
10893TIP3   OH254169   5.185   1.637   6.861 -0.4459 -0.0711 -0.2084
10893TIP3    H154170   5.133   1.584   6.921  0.0550  0.6964  0.9439
10893TIP3    H254171   5.151   1.617   6.774 -1.3313 -1.0479  0.3556
10894TIP3   OH254172   1.975   1.817   2.292 -0.2352  0.0328 -0.3020
10894TIP3    H154173   1.962   1.905   2.257 -0.0434  0.2442  0.1655
10894TIP3    H254174   2.000   1.830   2.383 -1.0274 -0.5304  0.0012
10895TIP3   OH254175   1.150   2.833  10.546  0.2070 -0.0584  0.0406
10895TIP3    H154176   1.116   2.744  10.541  0.3833 -0.0488 -1.5394
10895TIP3    H254177   1.093   2.884  10.488 -1.4799  1.4056  2.8581
10896TIP3   OH254178   0.894   6.654   4.384  0.8953 -0.2234  0.2417
10896TIP3    H154179   0.842   6.573   4.377  1.0143 -0.4497  1.7399
10896TIP3    H254180   0.874   6.688   4.471  1.4381  0.9650 -0.0863
10897TIP3   OH254181   6.767   0.800   4.456 -0.3663  0.0995  0.0899
10897TIP3    H154182   6.805   0.816   4.542  2.2480  0.6881 -1.1175
10897TIP3    H254183   6.735   0.885   4.428 -1.4143 -0.1352  0.5548
10898TIP3   OH254184   1.061   5.730  13.544 -0.0150 -0.3410  0.1528
10898TIP3    H154185   1.090   5.642  13.568 -2.6948 -0.6145  2.7263
10898TIP3    H254186   1.116   5.789  13.596 -1.1191 -0.6838  1.7291
10899TIP3   OH254187   0.712   6.065  15.980 -0.0103  0.3661 -0.0353
10899TIP3    H154188   0.712   6.057  16.075 -0.6823  1.9864  0.1067
10899TIP3    H254189   0.650   6.135  15.961  0.2998  0.2283 -1.6572
10900TIP3   OH254190   1.022   6.108   6.102  0.3868 -0.4872 -0.3165
10900TIP3    H154191   0.964   6.043   6.142  1.8572 -1.5851  0.0304
10900TIP3    H254192   1.099   6.109   6.158  1.7994 -0.8975 -2.2305
10901TIP3   OH254193   6.432   0.067   5.106 -0.6201 -0.1781  0.3801
10901TIP3    H154194   6.428   0.057   5.201  1.1743 -1.5191  0.3428
10901TIP3    H254195   6.340   0.069   5.078 -1.2042 -3.6147  1.7733
10902TIP3   OH254196   0.784   4.121   0.926  0.1673  0.2044  0.2326
10902TIP3    H154197   0.862   4.159   0.886 -1.1038  0.7326 -1.7760
10902TIP3    H254198   0.768   4.041   0.875 -0.4851 -0.0151  0.7836
10903TIP3   OH254199   5.423   5.895  14.689  0.2735 -0.0713 -0.5892
10903TIP3    H154200   5.426   5.985  14.656 -1.0392  0.9081  1.8943
10903TIP3    H254201   5.514   5.874  14.709  0.4563  1.1112 -0.1400
10904TIP3   OH254202   3.553   1.374   1.438 -0.3161  0.0577  0.4310
10904TIP3    H154203   3.545   1.422   1.520 -0.1306  0.3123  0.3027
10904TIP3    H254204   3.558   1.282   1.464  0.3149  0.1722  0.7417
10905TIP3   OH254205   1.420   2.602  13.043  0.0418 -0.0236 -0.5446
10905TIP3    H154206   1.356   2.673  13.048 -2.2142 -2.1332  2.0353
10905TIP3    H254207   1.376   2.527  13.082  3.9176 -1.7342  0.7915
10906TIP3   OH254208   5.324   5.533  14.919 -0.1536 -0.2974 -0.3947
10906TIP3    H154209   5.368   5.448  14.915  2.0205  0.7690  0.0007
10906TIP3    H254210   5.357   5.573  15.000 -0.7211  1.1365 -0.8585
10907TIP3   OH254211   4.336   0.768   1.308  0.1441  0.3216  0.0890
10907TIP3    H154212   4.337   0.726   1.393 -0.1395  0.1947  0.0326
10907TIP3    H254213   4.244   0.795   1.296  0.4384  1.4926  0.3866
10908TIP3   OH254214   6.365   0.487  15.359 -0.3444 -0.2748  0.5981
10908TIP3    H154215   6.271   0.479  15.339 -0.0606 -0.5933 -0.6613
10908TIP3    H254216   6.406   0.419  15.306  0.7140  0.6516  0.2170
10909TIP3   OH254217   3.362   1.842   3.533 -0.2347  0.2096  0.8377
10909TIP3    H154218   3.416   1.775   3.492 -1.2727 -1.1844  1.6996
10909TIP3    H254219   3.423   1.911   3.556  0.8742 -0.4829  0.0418
10910TIP3   OH254220   2.405   6.468  17.150 -0.2557  0.0821  0.1374
10910TIP3    H154221   2.379   6.501  17.064 -1.1225 -1.1948 -0.0985
10910TIP3    H254222   2.328   6.480  17.205 -0.6021 -1.5969  0.0312
10911TIP3   OH254223   2.317   6.467  13.519  0.4048  0.2880  0.9644
10911TIP3    H154224   2.328   6.441  13.611 -2.0029  1.0750  1.4872
10911TIP3    H254225   2.310   6.562  13.521  0.3842  0.3160 -0.0450
10912TIP3   OH254226   0.608   4.910  14.510 -0.5680 -0.4469  0.1594
10912TIP3    H154227   0.699   4.888  14.489 -0.1571 -0.6396  2.0462
10912TIP3    H254228   0.587   4.983  14.452  1.0263  0.0398  0.1564
10913TIP3   OH254229   0.702   0.274   1.568 -0.1286 -0.7518  0.1195
10913TIP3    H154230   0.612   0.307   1.572  0.4803  0.8622  0.5230
10913TIP3    H254231   0.739   0.294   1.654  0.0683 -3.0201  0.5882
10914TIP3   OH254232   0.651   4.939   5.336  0.4447  0.5014  0.2199
10914TIP3    H154233   0.719   4.936   5.403  0.9865  1.1834 -0.2987
10914TIP3    H254234   0.698   4.949   5.253 -0.2453  0.2245 -0.2164
10915TIP3   OH254235   0.907   2.850  14.314  0.0788  0.0211 -0.6778
10915TIP3    H154236   0.978   2.786  14.305  0.5094  0.6634 -1.8612
10915TIP3    H254237   0.942   2.930  14.275 -0.1760  1.2211  1.4494
10916TIP3   OH254238   4.757   1.696   4.933  0.0948 -0.2624  0.5608
10916TIP3    H154239   4.709   1.679   5.014  1.8606  0.7489  1.8593
10916TIP3    H254240   4.814   1.620   4.923  1.3549  0.5488  1.4023
10917TIP3   OH254241   6.674   4.102  15.440 -0.1572  0.2830 -0.4217
10917TIP3    H154242   6.644   4.189  15.467 -0.3887  0.3885 -1.0015
10917TIP3    H254243   6.652   4.045  15.513 -0.7329  0.5674 -0.3720
10918TIP3   OH254244   5.232   0.207   6.473  0.2737  0.1085 -0.1219
10918TIP3    H154245   5.161   0.216   6.409 -2.5724  0.2153  2.8899
10918TIP3    H254246   5.284   0.133   6.441 -1.1019  0.1338 -2.5116
10919TIP3   OH254247   2.714   6.208  13.601 -0.1200 -0.1360  0.4342
10919TIP3    H154248   2.784   6.194  13.664  1.4211  1.2527 -0.9081
10919TIP3    H254249   2.696   6.302  13.605  0.4498  0.0956 -1.6217
10920TIP3   OH254250   0.266   5.634  11.736 -0.1572 -0.1275 -0.3564
10920TIP3    H154251   0.241   5.575  11.807 -0.8937 -0.4141 -0.8491
10920TIP3    H254252   0.362   5.634  11.738 -0.1668 -0.6483  0.2197
10921TIP3   OH254253   6.416   1.037  13.125  0.2876 -0.6698  0.2306
10921TIP3    H154254   6.365   1.012  13.049  0.6888 -1.1776  0.1292
10921TIP3    H254255   6.507   1.038  13.094  0.3124  0.5458  0.3216
10922TIP3   OH254256   0.357   4.340  17.021 -0.7364  0.5103  0.1228
10922TIP3    H154257   0.405   4.292  17.089 -0.8385  2.0535  1.3174
10922TIP3    H254258   0.285   4.383  17.068 -1.7019  0.3942 -1.2102
10923TIP3   OH254259   1.134   2.292   2.715  0.0207  0.3940  0.1039
10923TIP3    H154260   1.154   2.222   2.777  0.9277  0.8876  0.3863
10923TIP3    H254261   1.147   2.252   2.629  1.5155  0.4785  0.2736
10924TIP3   OH254262   0.004   1.199   4.188  0.5998 -0.1133  0.6454
10924TIP3    H154263   0.013   1.211   4.283 -0.1922 -0.6992  0.7933
10924TIP3    H254264   0.042   1.113   4.172  0.3316 -0.2014  0.4900
10925TIP3   OH254265   3.205   4.115   6.121  0.3944 -0.1120 -0.1598
10925TIP3    H154266   3.123   4.113   6.171  0.5327  1.9948  0.2261
10925TIP3    H254267   3.189   4.059   6.046 -0.6574 -1.4212  1.0115
10926TIP3   OH254268   2.746   0.285   2.115  0.0380 -0.4173  0.0538
10926TIP3    H154269   2.724   0.266   2.024 -0.0329  2.2476 -0.5185
10926TIP3    H254270   2.814   0.352   2.110 -1.1396  0.9530  1.9736
10927TIP3   OH254271   1.999   6.101   2.431 -0.0818 -0.3584 -0.5637
10927TIP3    H154272   1.934   6.094   2.501 -0.2717  0.6084 -0.6500
10927TIP3    H254273   1.980   6.183   2.387  1.3463  0.0724 -0.4277
10928TIP3   OH254274   2.099   6.426  10.700  0.0026 -0.1176  0.3620
10928TIP3    H154275   2.147   6.345  10.679 -1.9123 -1.5104  1.2188
10928TIP3    H254276   2.061   6.453  10.616  0.5704 -0.1608  0.0877
10929TIP3   OH254277   1.624   2.306  10.243 -0.6436 -0.1289 -0.1942
10929TIP3    H154278   1.720   2.307  10.234 -0.6769  1.5570 -0.5829
10929TIP3    H254279   1.600   2.214  10.234  1.0909 -0.8017  1.5315
10930TIP3   OH254280   0.762   3.015   2.696  0.1165 -0.1164 -0.1250
10930TIP3    H154281   0.851   2.986   2.679 -0.2259 -1.7243  0.7870
10930TIP3    H254282   0.728   2.954   2.761 -2.6675 -1.3374 -2.6409
10931TIP3   OH254283   4.297   3.057  13.672 -0.0383  0.2755 -0.0486
10931TIP3    H154284   4.301   3.003  13.750  0.2742 -0.1375 -0.3445
10931TIP3    H254285   4.322   3.145  13.702 -1.7299  0.5189  0.6635
10932TIP3   OH254286   1.576   5.180   2.085  0.0842 -0.0517 -0.1267
10932TIP3    H154287   1.524   5.110   2.046  0.9192 -0.1493 -1.0597
10932TIP3    H254288   1.642   5.202   2.019 -0.9803  2.5419 -0.3893
10933TIP3   OH254289   2.604   2.614   3.688  0.3018  0.6378 -0.3103
10933TIP3    H154290   2.699   2.602   3.698  0.3137  0.8144 -0.1933
10933TIP3    H254291   2.584   2.577   3.603  0.4804  0.6156 -0.3441
10934TIP3   OH254292   0.112   3.724  14.681 -0.1926  0.1030 -0.0145
10934TIP3    H154293   0.169   3.783  14.632  0.5148 -0.7923 -0.2730
10934TIP3    H254294   0.041   3.703  14.620 -0.6522  0.9696  0.2045
10935TIP3   OH254295   4.523   3.862  15.241 -0.3373  0.3070  0.3699
10935TIP3    H154296   4.554   3.775  15.266 -1.2410  0.5552  2.4911
10935TIP3    H254297   4.445   3.876  15.295 -1.5142  1.5238 -1.5810
10936TIP3   OH254298   1.751   1.605  14.625 -0.3956  0.2377  0.6496
10936TIP3    H154299   1.709   1.521  14.645  0.4009 -0.5030 -0.7197
10936TIP3    H254300   1.797   1.590  14.543  0.2000  1.8736  0.6635
10937TIP3   OH254301   6.161   2.091  11.265  0.1829  0.2445  0.3513
10937TIP3    H154302   6.081   2.069  11.312  0.2537  1.3706  1.0297
10937TIP3    H254303   6.169   2.024  11.197 -0.5212 -0.7643  1.2367
10938TIP3   OH254304   2.801   3.360   4.751  0.3145 -0.2491  0.1776
10938TIP3    H154305   2.861   3.374   4.823  1.7113  0.7844 -1.1598
10938TIP3    H254306   2.856   3.330   4.678 -0.8037  0.4879 -1.0056
10939TIP3   OH254307   3.515   1.315   5.775  0.7958  0.6715 -0.5776
10939TIP3    H154308   3.423   1.342   5.775 -0.7241 -4.0850  1.2161
10939TIP3    H254309   3.537   1.305   5.867  2.1136 -1.2654 -1.0719
10940TIP3   OH254310   2.942   0.270  11.985  0.6732 -0.6129 -0.3127
10940TIP3    H154311   2.924   0.264  11.891  2.4721  0.7703 -0.7707
10940TIP3    H254312   2.900   0.192  12.022 -2.0300  0.0029 -1.9302
10941TIP3   OH254313   3.384   1.081   2.082  0.6899 -0.3258 -0.0903
10941TIP3    H154314   3.460   1.024   2.097  1.0340  0.2820  0.5292
10941TIP3    H254315   3.342   1.044   2.005 -1.0346 -3.4490  2.2205
10942TIP3   OH254316   3.601   3.095   5.690  0.4092  0.0535  0.4884
10942TIP3    H154317   3.629   3.125   5.776 -0.2233  1.1787  0.3178
10942TIP3    H254318   3.527   3.152   5.668  1.7133  1.0046 -1.5699
10943TIP3   OH254319   4.616   6.395  15.241 -0.3546 -0.4400 -0.0237
10943TIP3    H154320   4.547   6.367  15.301 -1.0720 -0.9894 -1.0902
10943TIP3    H254321   4.612   6.491  15.243 -1.3417 -0.4784 -0.3147
10944TIP3   OH254322   4.731   1.367   4.847 -1.2809 -0.3902  0.0186
10944TIP3    H154323   4.675   1.291   4.861  0.5970 -1.3435  3.0137
10944TIP3    H254324   4.816   1.329   4.823 -0.4306  0.7639  1.1734
10945TIP3   OH254325   6.133   4.750  16.825 -0.3301 -0.5007  0.6753
10945TIP3    H154326   6.164   4.745  16.916 -1.2458 -1.2253  0.9552
10945TIP3    H254327   6.213   4.757  16.773  0.2982 -2.2318  1.3827
10946TIP3   OH254328   4.614   1.546   4.660 -0.4793  0.6923 -0.4963
10946TIP3    H154329   4.671   1.501   4.721 -0.2756 -0.1777 -1.3132
10946TIP3    H254330   4.589   1.479   4.597  0.5272  1.9183 -2.2447
10947TIP3   OH254331   5.056   1.094   1.211 -0.4322  0.4054  0.0756
10947TIP3    H154332   5.042   1.171   1.267  0.6084 -0.1028  1.0535
10947TIP3    H254333   5.100   1.031   1.268  0.5073 -0.1766 -1.2778
10948TIP3   OH254334   1.611   1.210   3.645 -0.1825  0.5030 -0.5826
10948TIP3    H154335   1.694   1.164   3.633 -1.2506 -1.0841 -2.1832
10948TIP3    H254336   1.636   1.301   3.662  1.9373 -0.4058  1.4598
10949TIP3   OH254337   3.135   2.729  14.587 -0.1116  0.0997  0.1761
10949TIP3    H154338   3.208   2.789  14.574  0.1948 -0.2884  0.0702
10949TIP3    H254339   3.174   2.655  14.634 -0.6517  0.3246  0.9842
10950TIP3   OH254340   1.991   6.522   4.183  0.0900  0.4948 -0.3147
10950TIP3    H154341   2.054   6.593   4.193  2.0474 -1.2567  0.1325
10950TIP3    H254342   2.009   6.464   4.258 -2.7593  0.4873  0.4134
10951TIP3   OH254343   2.358   0.605   4.850 -0.2027  0.3886 -0.4541
10951TIP3    H154344   2.382   0.641   4.935 -0.0785 -0.0034 -0.3197
10951TIP3    H254345   2.308   0.674   4.808  0.0028  0.7004 -0.1862
10952TIP3   OH254346   0.315   4.757  16.443  0.2373 -0.0034  0.4917
10952TIP3    H154347   0.365   4.811  16.382 -0.8738  0.3451 -0.1232
10952TIP3    H254348   0.333   4.794  16.529 -0.4408  1.2931  0.0812
10953TIP3   OH254349   0.871   4.335   3.270  0.0479 -0.2189  0.3536
10953TIP3    H154350   0.831   4.417   3.298 -0.9106 -0.7395  0.5329
10953TIP3    H254351   0.846   4.271   3.337 -1.3046 -1.2084 -1.0365
10954TIP3   OH254352   0.693   0.468  12.842  0.1513 -0.3571 -0.4636
10954TIP3    H154353   0.704   0.434  12.753 -0.7735  0.1638 -0.7752
10954TIP3    H254354   0.706   0.563  12.833 -0.4072 -0.2488 -0.1172
10955TIP3   OH254355   0.758   1.148  15.924 -0.1468  0.1278 -0.2102
10955TIP3    H154356   0.730   1.175  16.011 -1.6695 -0.1476 -0.5921
10955TIP3    H254357   0.795   1.061  15.937 -1.6864 -0.5268 -0.0248
10956TIP3   OH254358   2.555   5.894   4.901  0.2581 -0.5503  0.6704
10956TIP3    H154359   2.467   5.931   4.893  0.0157 -0.7032  2.3958
10956TIP3    H254360   2.584   5.921   4.988  2.2989  0.2943 -0.2427
10957TIP3   OH254361   2.550   4.962  15.735  0.0180 -0.3725 -0.2695
10957TIP3    H154362   2.554   4.876  15.776 -0.9988 -0.0098  0.6466
10957TIP3    H254363   2.517   5.019  15.805  0.4453  0.7041 -0.9396
10958TIP3   OH254364   0.860   1.494   1.662  0.0596  0.1183 -0.0284
10958TIP3    H154365   0.854   1.536   1.748 -1.0868  1.8877 -0.9509
10958TIP3    H254366   0.944   1.524   1.627 -0.8937  1.9110 -0.8106
10959TIP3   OH254367   3.267   1.436  11.573  0.4352  0.1263 -0.1076
10959TIP3    H154368   3.253   1.380  11.649 -0.6087  0.2928 -0.1592
10959TIP3    H254369   3.227   1.388  11.500  3.1599 -0.9497 -0.9398
10960TIP3   OH254370   1.618   6.747   5.142  0.3599  0.3974  0.5679
10960TIP3    H154371   1.668   6.666   5.149  0.1554  0.2313  0.1314
10960TIP3    H254372   1.674   6.814   5.182  1.0446  0.2563 -0.1453
10961TIP3   OH254373   3.020   4.420  14.583  0.0218  0.1785 -0.7102
10961TIP3    H154374   2.935   4.452  14.553 -0.2145  1.0538  0.8647
10961TIP3    H254375   3.052   4.487  14.643  1.3016 -0.6922 -0.3905
10962TIP3   OH254376   5.845   3.337  16.188  0.5201  0.4193  0.6125
10962TIP3    H154377   5.909   3.285  16.237 -0.1695 -0.7412  0.2908
10962TIP3    H254378   5.885   3.350  16.102  0.2361 -0.5015  0.3363
10963TIP3   OH254379   3.284   1.565  13.435  0.5800  0.0053  0.2665
10963TIP3    H154380   3.377   1.543  13.432  0.6333  0.2612  0.0200
10963TIP3    H254381   3.241   1.498  13.382  0.7209  0.3870 -0.3342
10964TIP3   OH254382   6.265   0.835   6.841 -0.1754 -0.5007 -0.5110
10964TIP3    H154383   6.180   0.818   6.883  0.0083  0.9776  0.4627
10964TIP3    H254384   6.256   0.795   6.754 -2.1437  0.2779 -0.6923
10965TIP3   OH254385   3.798   0.902  16.913 -0.3988 -0.2731 -0.4606
10965TIP3    H154386   3.762   0.840  16.850 -1.0858  0.8057 -1.1635
10965TIP3    H254387   3.890   0.911  16.888 -0.6531  0.1041 -1.2835
10966TIP3   OH254388   0.939   4.460  12.362 -0.3533 -0.0661 -0.3878
10966TIP3    H154389   1.017   4.409  12.338 -0.7510 -0.7183 -0.3121
10966TIP3    H254390   0.973   4.531  12.416  0.5085  1.2200 -2.5484
10967TIP3   OH254391   5.095   6.355   4.029 -0.2356  0.4163  0.3693
10967TIP3    H154392   5.122   6.324   4.115 -1.3067  0.4121  0.7045
10967TIP3    H254393   5.011   6.314   4.013 -0.5042  1.1824 -0.2670
10968TIP3   OH254394   5.246   3.562  17.040 -0.1381  0.1716 -0.0348
10968TIP3    H154395   5.317   3.584  17.100 -0.1671 -1.8356  0.7714
10968TIP3    H254396   5.238   3.639  16.982 -1.5054  3.1117  3.8037
10969TIP3   OH254397   1.782   1.076  11.293 -0.0009 -0.0908  0.1646
10969TIP3    H154398   1.847   1.014  11.328  1.9309  1.6105 -0.3191
10969TIP3    H254399   1.776   1.054  11.200  0.2939  0.1091  0.0978
10970TIP3   OH254400   1.377   5.331   5.288 -0.2057  0.0700  0.0719
10970TIP3    H154401   1.429   5.251   5.284  1.1776  1.0176 -1.7440
10970TIP3    H254402   1.406   5.373   5.369  1.3381  0.2077 -0.5233
10971TIP3   OH254403   2.062   3.698   3.472 -0.0946  0.6102  0.1883
10971TIP3    H154404   2.102   3.703   3.384 -0.1034  2.5552  0.2644
10971TIP3    H254405   2.132   3.664   3.528  0.2636  0.4094 -0.3742
10972TIP3   OH254406   6.025   1.136   1.997 -0.0318 -0.2133 -0.2042
10972TIP3    H154407   5.960   1.067   1.982  0.5070 -0.3302 -2.1766
10972TIP3    H254408   5.986   1.193   2.062 -1.2349 -1.4363  0.1603
10973TIP3   OH254409   6.380   0.563   3.031 -0.1961  0.4736 -0.3290
10973TIP3    H154410   6.385   0.607   2.946  1.0172 -0.0008 -0.5076
10973TIP3    H254411   6.327   0.485   3.014  0.2615  0.2436 -0.7104
10974TIP3   OH254412   0.695   2.882  11.926 -0.5332  0.3554  0.1626
10974TIP3    H154413   0.613   2.857  11.884 -0.0355  0.2388 -0.7481
10974TIP3    H254414   0.688   2.847  12.015 -1.4968  0.4082  0.1155
10975TIP3   OH254415   5.530   6.676   3.949  0.2694 -0.6576 -0.2680
10975TIP3    H154416   5.461   6.672   4.015  0.5814 -1.2206  0.0304
10975TIP3    H254417   5.508   6.752   3.895 -0.6579 -0.9270 -0.2705
10976TIP3   OH254418   6.780   2.658   1.571  0.1291  0.1769 -0.0537
10976TIP3    H154419   6.773   2.585   1.632 -1.0496  0.6109  0.3439
10976TIP3    H254420   6.746   2.624   1.488 -0.0871  0.1644  0.0396
10977TIP3   OH254421   4.067   4.172   3.768 -0.0895  0.0099  0.3172
10977TIP3    H154422   4.022   4.210   3.843 -1.2010  2.4770 -1.5525
10977TIP3    H254423   3.998   4.127   3.719 -0.0334  1.5176 -1.1462
10978TIP3   OH254424   2.159   1.400   5.239  0.1273 -0.0408  0.4110
10978TIP3    H154425   2.150   1.307   5.258  1.7566  0.1959  2.5690
10978TIP3    H254426   2.234   1.405   5.180  0.0545 -0.0893  0.3136
10979TIP3   OH254427   2.181   2.896   3.298 -0.1909  0.0631 -0.5622
10979TIP3    H154428   2.177   2.865   3.208 -0.1197 -0.0823 -0.5165
10979TIP3    H254429   2.272   2.882   3.324 -0.4077 -0.7201 -0.1860
10980TIP3   OH254430   6.765   5.946   5.487  0.5285 -0.5002 -0.0912
10980TIP3    H154431   6.755   5.985   5.401 -0.4836 -0.6777 -0.0694
10980TIP3    H254432   6.693   5.984   5.539  1.3913 -0.0623  0.7925
10981TIP3   OH254433   3.951   5.587  15.284  0.5359  0.1750 -0.0007
10981TIP3    H154434   3.883   5.646  15.316  0.4063  0.2757 -0.4562
10981TIP3    H254435   3.962   5.522  15.354  0.7985  0.8369  0.5740
10982TIP3   OH254436   0.982   3.628   3.047 -0.0322 -0.4624 -0.7752
10982TIP3    H154437   1.036   3.701   3.015  0.8227 -0.7694 -0.0546
10982TIP3    H254438   0.912   3.671   3.097  0.5029 -0.1373 -0.2998
10983TIP3   OH254439   1.850   0.018  13.701  0.3218 -0.0813  0.8015
10983TIP3    H154440   1.764  -0.021  13.720  0.2293 -0.7917 -0.9801
10983TIP3    H254441   1.837   0.066  13.620  0.9539  2.0551  1.9420
10984TIP3   OH254442   5.962   4.969  16.509  0.3150  0.2418 -0.0607
10984TIP3    H154443   6.006   4.895  16.469 -0.3870 -0.1160 -0.1780
10984TIP3    H254444   6.026   5.041  16.504  0.2487  0.1851 -1.7544
10985TIP3   OH254445   1.121   2.342  10.375 -0.5072 -0.0845  0.2036
10985TIP3    H154446   1.047   2.305  10.422 -0.5677  2.2979  2.0966
10985TIP3    H254447   1.090   2.428  10.345  0.9406  0.2440 -0.4026
10986TIP3   OH254448   3.079   2.682  12.975  0.2109  0.1583  0.1703
10986TIP3    H154449   3.036   2.611  13.023 -0.6865  0.8907  0.4830
10986TIP3    H254450   3.011   2.749  12.966  0.8214  0.6603 -0.7927
10987TIP3   OH254451   2.972   0.172   0.303  0.5875 -0.4247  0.6516
10987TIP3    H154452   2.924   0.131   0.232  1.2593 -0.7517  0.3764
10987TIP3    H254453   2.906   0.194   0.368 -0.1658  0.8446 -0.5314
10988TIP3   OH254454   5.619   2.321   3.496 -0.1600  0.4081 -0.4182
10988TIP3    H154455   5.698   2.359   3.533  0.4081  2.5774 -3.6600
10988TIP3    H254456   5.556   2.394   3.494 -0.7993 -0.1708 -1.8402
10989TIP3   OH254457   0.543   1.119  17.100  0.0507 -0.3089  0.2122
10989TIP3    H154458   0.495   1.060  17.158 -1.4993  1.6093  0.9601
10989TIP3    H254459   0.508   1.101  17.013 -0.9001 -0.0381  0.5340
10990TIP3   OH254460   2.160   5.487   1.688  0.3746  0.4023  0.1308
10990TIP3    H154461   2.174   5.397   1.718  0.9182  0.7969  1.0961
10990TIP3    H254462   2.239   5.534   1.716 -0.9303  1.7073  1.7722
10991TIP3   OH254463   2.358   3.637   1.332 -0.6615 -0.3559  0.2035
10991TIP3    H154464   2.405   3.715   1.363  0.9652 -0.9352 -0.7133
10991TIP3    H254465   2.412   3.564   1.364  0.0174 -1.0050 -2.3544
10992TIP3   OH254466   5.337   5.919   5.839  0.4307  0.5358 -0.4941
10992TIP3    H154467   5.304   5.838   5.802 -2.1155  0.7861  1.1255
10992TIP3    H254468   5.393   5.892   5.911 -1.1722  0.1968  0.6534
10993TIP3   OH254469   0.331   6.414  13.137  0.7318  0.3424  0.2956
10993TIP3    H154470   0.343   6.432  13.230  1.6499  0.3170  0.1909
10993TIP3    H254471   0.327   6.501  13.096  2.5118  0.3578  0.1089
10994TIP3   OH254472   5.304   6.508   1.587  0.6212  0.2290 -0.0534
10994TIP3    H154473   5.371   6.440   1.581 -0.2070 -0.5915 -0.0949
10994TIP3    H254474   5.300   6.528   1.681 -0.1387 -0.8112  0.1478
10995TIP3   OH254475   1.042   2.015   4.485 -0.0225 -0.0732 -0.4585
10995TIP3    H154476   1.075   1.956   4.553  0.1160 -0.2069 -0.6410
10995TIP3    H254477   0.953   2.036   4.513 -0.3193 -0.9220 -0.7369
10996TIP3   OH254478   0.721   4.682  12.586  0.7256  0.3700  0.0461
10996TIP3    H154479   0.678   4.731  12.516 -1.2675 -0.2888  0.7848
10996TIP3    H254480   0.812   4.672  12.556 -0.0502  0.2349 -2.3653
10997TIP3   OH254481   1.640   3.717   5.595 -0.2701 -0.0627 -0.0782
10997TIP3    H154482   1.554   3.732   5.635  0.8731 -0.4031  2.6495
10997TIP3    H254483   1.649   3.622   5.593 -0.3294 -0.0440 -1.1961
10998TIP3   OH254484   0.854   2.422   6.217  0.1361  0.4417  0.8038
10998TIP3    H154485   0.833   2.405   6.309  0.8556 -0.3962  0.8194
10998TIP3    H254486   0.950   2.422   6.214  0.1136  0.1881  0.0097
10999TIP3   OH254487   4.692   0.092   3.110  0.0214 -0.1766 -0.4033
10999TIP3    H154488   4.728   0.180   3.105 -0.1976 -0.1521 -1.7935
10999TIP3    H254489   4.644   0.090   3.193  0.8576  0.6848  0.1057
11000TIP3   OH254490   5.218   5.190  12.792 -0.2905 -0.2213  0.2762
11000TIP3    H154491   5.222   5.109  12.843 -0.1461  0.5057  1.4326
11000TIP3    H254492   5.273   5.172  12.715 -0.1058 -1.1516  0.6146
11001TIP3   OH254493   3.672   3.806  11.818 -0.1872 -0.3947 -0.5680
11001TIP3    H154494   3.619   3.877  11.783 -0.7677  0.5966  2.1701
11001TIP3    H254495   3.756   3.847  11.839 -0.7156 -0.3445  1.5630
11002TIP3   OH254496   4.893   1.751   3.062  0.0724  0.3897 -0.4303
11002TIP3    H154497   4.814   1.802   3.077  0.3890  0.9711 -0.7100
11002TIP3    H254498   4.882   1.673   3.116  0.0606  1.2671  0.8483
11003TIP3   OH254499   6.475   3.396  13.242 -0.7236  0.2819 -0.4154
11003TIP3    H154500   6.383   3.392  13.269 -0.0736 -0.7038  1.7887
11003TIP3    H254501   6.521   3.425  13.321  0.9918 -0.3537 -1.1685
11004TIP3   OH254502   4.922   1.890   0.122 -0.2122 -0.8615 -0.0901
11004TIP3    H154503   4.869   1.852   0.052 -1.2102  0.3605 -0.0120
11004TIP3    H254504   4.975   1.956   0.079 -0.4705 -0.4468  0.2256
11005TIP3   OH254505   6.767   4.644   2.903  0.2991  0.2745 -0.2113
11005TIP3    H154506   6.862   4.646   2.917  0.4548  0.5680 -1.2408
11005TIP3    H254507   6.748   4.552   2.883  0.3794  0.2249 -0.0566
11006TIP3   OH254508   1.941   1.280   1.860 -0.3218  0.6091 -0.3893
11006TIP3    H154509   1.908   1.232   1.784 -0.8755  1.7503 -0.8782
11006TIP3    H254510   1.922   1.372   1.840 -0.8805  0.8803  1.3225
11007TIP3   OH254511   1.812   4.591   3.324  0.1280 -0.0782 -0.4481
11007TIP3    H154512   1.804   4.598   3.229 -2.3295 -0.4352 -0.2894
11007TIP3    H254513   1.821   4.497   3.340  1.3581  0.0492 -0.3798
11008TIP3   OH254514   4.903   5.770   4.801 -0.2740 -0.0493 -0.7966
11008TIP3    H154515   4.866   5.709   4.865 -0.7229 -0.9130 -1.8737
11008TIP3    H254516   4.833   5.834   4.786  0.3109  0.9442  0.5742
11009TIP3   OH254517   3.135   5.144  13.501 -0.7756  0.5049  0.2168
11009TIP3    H154518   3.066   5.108  13.446 -0.2123  0.3975 -0.4348
11009TIP3    H254519   3.176   5.067  13.540 -0.7897  0.5460  0.3117
11010TIP3   OH254520   6.626   6.746  13.450  0.0342 -0.2488  0.0571
11010TIP3    H154521   6.688   6.814  13.479  1.7627 -1.5237 -0.5332
11010TIP3    H254522   6.541   6.776  13.480  0.7552  2.2526 -0.3225
11011TIP3   OH254523   4.083   6.516  11.390  0.2394 -0.3817  0.2165
11011TIP3    H154524   4.128   6.573  11.452  1.0075 -1.2317  0.4512
11011TIP3    H254525   4.152   6.486  11.330 -0.0718 -1.4060  0.3591
11012TIP3   OH254526   4.280   4.858  11.531 -0.7316  0.6304  0.0347
11012TIP3    H154527   4.286   4.947  11.567 -2.5171  0.6055  0.4065
11012TIP3    H254528   4.273   4.802  11.608 -0.5443  0.2436 -0.2289
11013TIP3   OH254529   0.584   3.376   3.053 -0.5201 -0.7843 -0.7166
11013TIP3    H154530   0.618   3.300   3.102 -2.9022  0.0527  2.3574
11013TIP3    H254531   0.516   3.339   2.997 -1.5135 -0.9913  0.6011
11014TIP3   OH254532   0.261   5.040  11.927 -0.2807  0.0056 -0.3740
11014TIP3    H154533   0.180   5.088  11.943 -0.8553 -1.3580  0.9058
11014TIP3    H254534   0.314   5.054  12.005 -0.7007 -1.8668  0.2870
11015TIP3   OH254535   0.361   6.780   2.527  0.6776  0.1095 -0.1679
11015TIP3    H154536   0.387   6.852   2.585 -0.8867  0.4841  0.0943
11015TIP3    H254537   0.409   6.796   2.446  1.6424  0.4967  0.4770
11016TIP3   OH254538   5.004   6.577   1.341  0.0403 -0.2941 -0.0810
11016TIP3    H154539   4.940   6.532   1.286  0.7084  0.9550 -1.9314
11016TIP3    H254540   5.084   6.526   1.332  0.5044  0.6391 -1.3235
11017TIP3   OH254541   6.812   2.826  13.425 -0.2920 -0.5356 -0.1710
11017TIP3    H154542   6.809   2.921  13.418 -0.8679 -0.5186  0.2476
11017TIP3    H254543   6.854   2.809  13.509 -2.8969 -0.5983  1.1761
11018TIP3   OH254544   4.371   1.314  12.765  0.1863  0.4066  0.2376
11018TIP3    H154545   4.301   1.370  12.798  0.5718  0.9923  0.0701
11018TIP3    H254546   4.448   1.338  12.818  0.3864  0.1309  0.0725
11019TIP3   OH254547   0.936   4.026   6.327  0.3292  0.4786  0.4513
11019TIP3    H154548   0.930   4.044   6.421  0.4920 -1.4157  0.8358
11019TIP3    H254549   0.851   3.988   6.305  0.8416 -0.5012  0.1562
11020TIP3   OH254550   3.500   0.477  16.277 -0.1869  0.3412 -0.1318
11020TIP3    H154551   3.476   0.565  16.308 -5.0171 -1.6142  2.1203
11020TIP3    H254552   3.449   0.464  16.198  1.8769  0.1320 -1.4782
11021TIP3   OH254553   5.853   3.344  14.081  0.0046  0.2220  0.1951
11021TIP3    H154554   5.785   3.298  14.129  1.6509 -1.5398  0.9459
11021TIP3    H254555   5.935   3.307  14.116  1.2679 -1.0323 -3.8041
11022TIP3   OH254556   4.058   5.301   0.578 -0.8057 -0.2344  0.5519
11022TIP3    H154557   3.975   5.260   0.557 -0.9550 -0.1370  0.9657
11022TIP3    H254558   4.062   5.304   0.673 -0.7757  0.6654  0.5341
11023TIP3   OH254559   5.604   4.858   2.895  0.1986 -0.1916  0.2150
11023TIP3    H154560   5.685   4.829   2.855  0.1195 -0.4623  0.2542
11023TIP3    H254561   5.562   4.778   2.927  0.1640  0.0022  0.6528
11024TIP3   OH254562   5.520   4.869  14.476 -0.1958 -0.3412  0.0900
11024TIP3    H154563   5.604   4.824  14.473  0.2587  0.5545 -1.0370
11024TIP3    H254564   5.489   4.857  14.566  1.2594 -0.4411  0.5833
11025TIP3   OH254565   0.386   5.014   3.607  0.3296  0.6377  0.0282
11025TIP3    H154566   0.375   5.054   3.693 -1.8245  1.9287 -0.8341
11025TIP3    H254567   0.372   5.085   3.545 -1.9527 -1.0563 -1.4828
11026TIP3   OH254568   3.416   6.136  12.436 -0.5675 -0.0035 -0.0561
11026TIP3    H154569   3.402   6.103  12.347 -3.5537  0.4614  0.1717
11026TIP3    H254570   3.358   6.213  12.442  0.7662  0.8784  1.7871
11027TIP3   OH254571   2.623   3.938  13.440  0.0782 -0.0292 -0.4132
11027TIP3    H154572   2.695   3.997  13.463 -2.2307  2.6713  0.1381
11027TIP3    H254573   2.545   3.980  13.476 -2.1143 -1.6444 -3.0794
11028TIP3   OH254574   1.765   6.262  16.972 -0.0417 -0.0600 -0.4781
11028TIP3    H154575   1.734   6.343  17.012  0.0377  0.8271 -2.1659
11028TIP3    H254576   1.857   6.257  16.996 -0.9082 -1.6552  2.8384
11029TIP3   OH254577   1.645   4.348  16.740  0.2076 -0.1305  0.7866
11029TIP3    H154578   1.719   4.408  16.746  0.6155 -0.4760 -0.6919
11029TIP3    H254579   1.569   4.402  16.762  0.7160  0.6125  0.7494
11030TIP3   OH254580   4.556   2.021   1.033 -0.1514  0.0687  0.4165
11030TIP3    H154581   4.560   1.973   1.115  0.4635  0.2354  0.4920
11030TIP3    H254582   4.646   2.052   1.019 -0.0853 -0.5784 -0.6888
11031TIP3   OH254583   0.129   5.297   2.561 -0.2112  0.0989 -0.4639
11031TIP3    H154584   0.193   5.352   2.517 -0.5330  0.4621 -0.4800
11031TIP3    H254585   0.180   5.245   2.623  0.2649 -0.5365 -1.3788
11032TIP3   OH254586   5.107   2.031   0.340 -0.2643 -0.2431  0.5958
11032TIP3    H154587   5.026   1.986   0.316 -0.7977  0.1156  1.6782
11032TIP3    H254588   5.095   2.052   0.433  0.6369  0.7406  0.4856
11033TIP3   OH254589   2.505   1.792  12.096 -0.1884 -0.3200  0.3913
11033TIP3    H154590   2.529   1.830  12.180  2.6024  0.1827 -0.5619
11033TIP3    H254591   2.495   1.698  12.113  1.7627 -0.4303  1.0435
11034TIP3   OH254592   5.302   0.710  15.076 -0.4978  0.0518  0.4786
11034TIP3    H154593   5.377   0.755  15.036 -2.6412  3.5746  0.1648
11034TIP3    H254594   5.339   0.664  15.151  2.1083  0.9458 -0.1885
11035TIP3   OH254595   1.217   2.643   0.259 -0.1914  0.3527 -0.4969
11035TIP3    H154596   1.209   2.548   0.246 -1.9072  0.4064  0.0014
11035TIP3    H254597   1.265   2.651   0.341  0.1941 -0.0944 -0.6768
11036TIP3   OH254598   3.425   4.285   4.076 -0.0498  0.3928  0.2784
11036TIP3    H154599   3.503   4.297   4.130 -0.0573 -0.5418  0.4994
11036TIP3    H254600   3.459   4.264   3.989 -0.0308 -2.7786  0.9923
11037TIP3   OH254601   4.192   5.723   2.552 -0.2314  0.6305  0.7203
11037TIP3    H154602   4.242   5.691   2.477  0.8163  1.2726  1.1383
11037TIP3    H254603   4.258   5.761   2.610 -1.1053  0.6774  1.6887
11038TIP3   OH254604   3.957   3.363   6.029 -0.2804  0.1158 -0.2138
11038TIP3    H154605   3.953   3.294   6.095  0.9207  2.0701  1.9713
11038TIP3    H254606   3.876   3.413   6.041 -0.8291 -0.4815 -1.3409
11039TIP3   OH254607   3.138   4.172  11.609  0.3356 -0.0545 -0.2646
11039TIP3    H154608   3.162   4.253  11.654 -1.7636  0.3043  0.2949
11039TIP3    H254609   3.083   4.200  11.536 -0.0580 -0.9273 -0.3124
11040TIP3   OH254610   2.042   4.254   3.573  0.3934  0.3109  0.4909
11040TIP3    H154611   2.033   4.159   3.570 -0.5675  0.3592  1.7538
11040TIP3    H254612   2.113   4.270   3.634  0.9177  0.3962 -0.1319
11041TIP3   OH254613   0.150   3.066  15.219 -0.1243  0.3966 -0.3315
11041TIP3    H154614   0.126   3.138  15.277  0.6381  2.2215 -2.2223
11041TIP3    H254615   0.069   3.045  15.172 -0.1393  0.6096 -0.4016
11042TIP3   OH254616   2.698   2.727   2.151 -0.0559  0.3354  0.0927
11042TIP3    H154617   2.734   2.807   2.188  0.8889 -0.1902  0.3279
11042TIP3    H254618   2.770   2.690   2.100 -0.6547 -0.0849 -0.4593
11043TIP3   OH254619   5.311   3.673   1.123  0.6097  0.0246  0.3146
11043TIP3    H154620   5.221   3.705   1.134  0.3463 -0.7437  0.4095
11043TIP3    H254621   5.343   3.719   1.046  0.9267  2.0591  1.6083
11044TIP3   OH254622   5.608   5.132  17.113  0.2279  0.8872  0.2148
11044TIP3    H154623   5.700   5.153  17.128  0.8464 -0.6392 -1.2914
11044TIP3    H254624   5.608   5.082  17.031 -1.7014 -0.9581  1.3109
11045TIP3   OH254625   2.060   6.646   2.980  0.5283  0.3341  0.0022
11045TIP3    H154626   2.120   6.661   2.907 -0.0110 -1.4435 -0.8528
11045TIP3    H254627   2.076   6.555   3.006 -0.8112  0.2700  0.6717
11046TIP3   OH254628   4.742   1.949   2.323 -0.1056  0.3394  0.3344
11046TIP3    H154629   4.667   1.992   2.363 -0.4275  0.9741 -0.9396
11046TIP3    H254630   4.798   1.924   2.397 -1.1612  0.6196  1.2277
11047TIP3   OH254631   6.327   4.823  17.021  0.3056  0.2887  0.2023
11047TIP3    H154632   6.271   4.898  17.036  0.5109  0.1545  1.6564
11047TIP3    H254633   6.316   4.768  17.098  1.2323 -0.4958 -0.2094
11048TIP3   OH254634   5.481   6.205   4.436 -0.3972 -0.6082 -0.3824
11048TIP3    H154635   5.555   6.228   4.492 -0.6761 -0.6160 -0.0111
11048TIP3    H254636   5.426   6.148   4.490  0.1581 -1.9570 -1.1986
11049TIP3   OH254637   1.135   1.535  16.105  0.4646 -0.1445  0.4940
11049TIP3    H154638   1.052   1.538  16.057  1.3665  0.3716 -1.0560
11049TIP3    H254639   1.134   1.450  16.150 -1.1157  0.0707  0.8847
11050TIP3   OH254640   0.561   1.235  13.740 -0.5686 -0.5343  0.0174
11050TIP3    H154641   0.540   1.142  13.737 -1.1206 -0.4513  1.2840
11050TIP3    H254642   0.507   1.274  13.670 -2.7869 -0.6966  1.5810
11051TIP3   OH254643   1.393   6.066  15.708  0.0174  0.3574  0.6669
11051TIP3    H154644   1.467   6.005  15.708 -1.6374 -1.6934  1.8428
11051TIP3    H254645   1.423   6.139  15.654  2.7768 -0.5766  0.8347
11052TIP3   OH254646   4.369   1.052  16.797 -0.0552 -0.3184 -0.3286
11052TIP3    H154647   4.452   1.047  16.748  0.0558  0.2417 -0.1960
11052TIP3    H254648   4.309   1.096  16.737  0.2589  0.9543  0.2784
11053TIP3   OH254649   0.291   5.627  15.171  0.3079  0.3411 -0.1336
11053TIP3    H154650   0.350   5.697  15.143  1.8805 -0.4078  1.2095
11053TIP3    H254651   0.252   5.661  15.253 -1.4798  1.0024 -1.2178
11054TIP3   OH254652   4.850   3.841  15.158  0.6488 -0.1996 -0.6454
11054TIP3    H154653   4.852   3.921  15.210 -0.1937 -0.3761 -0.3244
11054TIP3    H254654   4.929   3.844  15.105  0.9521  0.5245 -0.1548
11055TIP3   OH254655   4.281   0.130   3.936 -0.3653 -0.0440 -0.8079
11055TIP3    H154656   4.203   0.168   3.975 -0.4859 -0.3220 -0.7785
11055TIP3    H254657   4.353   0.185   3.968 -0.1085 -2.0029  2.2643
11056TIP3   OH254658   6.625   1.035   0.830 -0.5099  0.1983  0.2646
11056TIP3    H154659   6.575   1.072   0.757 -0.7014 -1.3473 -0.4289
11056TIP3    H254660   6.683   1.105   0.858 -0.9496  1.0485 -0.9184
11057TIP3   OH254661   0.883   0.811   0.813 -0.2349 -0.7339  0.1103
11057TIP3    H154662   0.873   0.729   0.764 -2.4434  0.2990 -1.2350
11057TIP3    H254663   0.906   0.876   0.747  0.1030  0.0305  0.9613
11058TIP3   OH254664   1.132   4.940  16.684  0.0757  0.0684  0.3494
11058TIP3    H154665   1.203   4.932  16.747 -1.9334  1.8760  2.9205
11058TIP3    H254666   1.158   5.013  16.628 -0.1767  1.3793  1.9066
11059TIP3   OH254667   2.179   4.341   6.367  0.0925  0.3756  0.0161
11059TIP3    H154668   2.141   4.310   6.449  2.3159 -0.9990  0.5987
11059TIP3    H254669   2.129   4.419   6.344 -2.6317 -1.0326  1.0077
11060TIP3   OH254670   3.688   2.408   1.957 -0.4037  0.1913  0.2499
11060TIP3    H154671   3.635   2.334   1.926 -1.5866  1.3001 -0.4493
11060TIP3    H254672   3.753   2.421   1.888 -2.2568  1.8590 -1.2686
11061TIP3   OH254673   4.727   2.477  11.360 -0.3949 -0.5238 -0.0526
11061TIP3    H154674   4.697   2.563  11.391  0.6140 -0.2409  0.1643
11061TIP3    H254675   4.818   2.491  11.335 -0.2291 -1.5301 -0.0382
11062TIP3   OH254676   2.718   4.629   0.404  0.0627  0.2401  0.3964
11062TIP3    H154677   2.728   4.671   0.489  2.4930 -1.6698  1.1378
11062TIP3    H254678   2.796   4.656   0.354  0.3238 -1.2327 -0.0315
11063TIP3   OH254679   4.020   1.568   0.783 -0.3719 -0.1737  0.1722
11063TIP3    H154680   4.019   1.659   0.811  0.4779 -0.4345  1.0817
11063TIP3    H254681   3.965   1.566   0.704  0.6353  1.3427 -0.5830
11064TIP3   OH254682   0.324   5.863  12.323  0.8122  0.0375 -0.4093
11064TIP3    H154683   0.240   5.857  12.276  0.3417  0.2593  0.3927
11064TIP3    H254684   0.329   5.954  12.351 -0.6190 -0.8384  3.0345
11065TIP3   OH254685   5.881   3.502   0.806  0.2562 -0.0841 -0.2319
11065TIP3    H154686   5.962   3.553   0.803 -0.3889  0.8784 -1.5911
11065TIP3    H254687   5.896   3.438   0.876  1.5074  1.2140  0.7114
11066TIP3   OH254688   4.147   4.924   3.700  0.1265  0.1345  0.2826
11066TIP3    H154689   4.128   4.947   3.790 -0.1244  2.3757 -0.3088
11066TIP3    H254690   4.061   4.914   3.659  0.1556  3.4739 -0.7308
11067TIP3   OH254691   6.465   4.190  14.476 -0.0707  0.0812 -0.3929
11067TIP3    H154692   6.500   4.144  14.552 -0.0233 -1.1234 -1.1131
11067TIP3    H254693   6.383   4.228  14.505 -1.0403 -2.0384 -0.2491
11068TIP3   OH254694   1.453   0.338  13.545  0.4009 -0.5353 -0.3900
11068TIP3    H154695   1.454   0.253  13.501  0.8496 -0.5691 -0.3185
11068TIP3    H254696   1.502   0.324  13.626 -0.3371 -0.4504  0.0801
11069TIP3   OH254697   0.272   3.060  16.569  0.1091  0.2116  0.0276
11069TIP3    H154698   0.220   3.001  16.514 -0.3774  0.9607 -0.3243
11069TIP3    H254699   0.216   3.077  16.645  0.7813 -0.8261  0.7848
11070TIP3   OH254700   2.486   2.250   1.794 -0.2326  0.1041 -0.2113
11070TIP3    H154701   2.429   2.221   1.723  0.3467  0.8637 -1.0028
11070TIP3    H254702   2.436   2.316   1.841  0.5065  1.8362 -1.7914
11071TIP3   OH254703   3.205   5.301   1.277  0.2131  0.5165 -0.1982
11071TIP3    H154704   3.222   5.390   1.307  1.2566 -0.1758  1.3125
11071TIP3    H254705   3.157   5.312   1.195  0.0080  2.4592  0.1655
11072TIP3   OH254706   6.619   1.886  13.541  0.4295 -0.1955 -0.7581
11072TIP3    H154707   6.668   1.810  13.507 -0.3089 -0.4141 -1.3484
11072TIP3    H254708   6.595   1.935  13.462  2.0751  1.3849 -0.2923
11073TIP3   OH254709   2.150   6.768  14.697 -0.5132 -0.0839 -0.0792
11073TIP3    H154710   2.197   6.841  14.656  2.0929 -0.1966  2.5187
11073TIP3    H254711   2.179   6.691  14.650 -0.4041  0.1621 -0.4182
11074TIP3   OH254712   2.860   1.911   2.092  0.1491  0.3593 -0.4902
11074TIP3    H154713   2.931   1.972   2.072  0.7718  0.0902  0.8197
11074TIP3    H254714   2.853   1.855   2.015  3.0797 -1.2248  0.3293
11075TIP3   OH254715   0.004   4.935   5.702 -0.1161  0.4459 -0.4434
11075TIP3    H154716  -0.084   4.972   5.692 -0.5829 -0.9974 -1.9248
11075TIP3    H254717   0.009   4.866   5.635  2.2050  0.6244 -0.4933
11076TIP3   OH254718   0.122   6.009  11.536 -0.0806 -0.5216  0.3487
11076TIP3    H154719   0.111   5.946  11.465 -0.1318 -1.4337  1.1409
11076TIP3    H254720   0.201   6.058  11.514  0.3301 -1.3153  0.0416
11077TIP3   OH254721   4.172   4.861   2.231 -0.2868 -0.6228 -0.1054
11077TIP3    H154722   4.218   4.824   2.307  1.0457  2.4112  0.6424
11077TIP3    H254723   4.183   4.956   2.241 -3.4439 -0.0007 -2.0133
11078TIP3   OH254724   6.803   0.519  11.308 -0.1254  0.2179  0.0674
11078TIP3    H154725   6.746   0.443  11.297  0.5028 -0.1306 -0.7997
11078TIP3    H254726   6.884   0.484  11.345 -0.2367  0.6279  0.7124
11079TIP3   OH254727   1.406   2.040   1.616 -0.5430  0.0355 -0.2722
11079TIP3    H154728   1.448   2.120   1.647  0.2915 -1.0177  1.4206
11079TIP3    H254729   1.350   2.068   1.544 -1.1866  2.3171  1.0903
11080TIP3   OH254730   6.530   2.170  10.648  0.4530  0.3011  0.5460
11080TIP3    H154731   6.536   2.261  10.676  0.7507  0.8335 -1.2106
11080TIP3    H254732   6.603   2.158  10.587 -1.7101 -0.0497 -2.0782
11081TIP3   OH254733   2.831   3.005  12.504 -0.2533 -0.2107 -0.3476
11081TIP3    H154734   2.739   2.985  12.492 -0.1240 -0.9951 -0.0679
11081TIP3    H254735   2.868   3.002  12.416 -0.8257  1.8878 -0.6981
11082TIP3   OH254736   1.313   1.616  13.750 -0.0169  0.0004 -0.0231
11082TIP3    H154737   1.314   1.557  13.675 -2.9412  0.8354 -0.7728
11082TIP3    H254738   1.288   1.561  13.824  0.7252 -0.3814 -0.0480
11083TIP3   OH254739   4.380   5.709   6.146  0.3828  0.6888 -0.6953
11083TIP3    H154740   4.411   5.623   6.175 -1.1606  0.7028  1.0614
11083TIP3    H254741   4.453   5.745   6.096  1.0287 -1.6665 -1.5102
11084TIP3   OH254742   4.654   0.307   4.554  0.0868  0.0799  0.0521
11084TIP3    H154743   4.672   0.225   4.600  0.7331  0.2464  0.0977
11084TIP3    H254744   4.560   0.319   4.563  0.2390  0.1944  1.4586
11085TIP3   OH254745   3.357   0.813  15.297 -0.5182  0.4626  0.2077
11085TIP3    H154746   3.403   0.800  15.215 -0.7362  1.4111 -0.0720
11085TIP3    H254747   3.422   0.795  15.365  0.2602  1.7857 -0.1822
11086TIP3   OH254748   3.583   6.174   1.135  0.1503  0.2237  0.8644
11086TIP3    H154749   3.526   6.097   1.140 -1.5550  1.3844 -0.4191
11086TIP3    H254750   3.638   6.167   1.213  2.6334 -4.2750 -1.0818
11087TIP3   OH254751   1.652   3.393  12.014 -0.5234  0.3072  0.0087
11087TIP3    H154752   1.727   3.339  11.991 -0.8062  0.1298 -0.5093
11087TIP3    H254753   1.669   3.477  11.972 -0.1396  0.5793  0.7160
11088TIP3   OH254754   2.889   2.688  16.768 -0.3923 -0.0815 -0.2293
11088TIP3    H154755   2.903   2.593  16.769 -0.4544 -0.0878  0.1016
11088TIP3    H254756   2.977   2.724  16.776 -0.1178 -0.0906 -2.8286
11089TIP3   OH254757   5.686   1.870   3.170 -0.1611 -0.7052 -0.6857
11089TIP3    H154758   5.760   1.845   3.115 -1.5222 -0.6527 -2.6043
11089TIP3    H254759   5.639   1.935   3.117 -0.0587  1.3657  1.6475
11090TIP3   OH254760   3.631   0.166  11.853  0.0111  0.0353 -0.3750
11090TIP3    H154761   3.676   0.085  11.877  1.4507  0.7439 -0.6395
11090TIP3    H254762   3.630   0.166  11.757  0.3471  0.4935 -0.3839
11091TIP3   OH254763   6.161   4.550  14.130  0.1436 -0.8424 -0.1389
11091TIP3    H154764   6.069   4.572  14.116  0.1405 -0.8181 -0.0799
11091TIP3    H254765   6.171   4.463  14.092  0.2793 -0.5284 -0.8392
11092TIP3   OH254766   0.702   2.685  14.257 -0.3779 -0.2648  0.6707
11092TIP3    H154767   0.660   2.719  14.178 -1.2970 -0.4690  1.0623
11092TIP3    H254768   0.778   2.741  14.270 -0.0774 -0.3882 -0.4990
11093TIP3   OH254769   0.977   0.093   5.077  0.3478  0.4816  0.3341
11093TIP3    H154770   0.904   0.055   5.126  0.1545 -0.0039 -0.3262
11093TIP3    H254771   1.055   0.051   5.113  0.2540  0.5462  0.6153
11094TIP3   OH254772   1.295   5.215  16.638 -0.5332  0.5165 -0.3725
11094TIP3    H154773   1.297   5.220  16.733  0.1933 -0.6813 -0.3061
11094TIP3    H254774   1.366   5.155  16.616 -0.8044  0.6496 -1.6629
11095TIP3   OH254775   5.186   5.867  14.109  0.2415 -0.0833 -0.2256
11095TIP3    H154776   5.091   5.869  14.117  0.1717 -1.7397 -0.4495
11095TIP3    H254777   5.214   5.801  14.173  1.0654 -1.0201 -1.5328
11096TIP3   OH254778   5.165   3.532  12.708  0.2094  0.7766 -0.2816
11096TIP3    H154779   5.133   3.539  12.618  1.5482  0.9770 -0.7446
11096TIP3    H254780   5.203   3.444  12.713 -2.5669 -0.4134  0.9907
11097TIP3   OH254781   4.268   3.630  14.566 -0.4021 -0.3431  0.2300
11097TIP3    H154782   4.174   3.625  14.546  0.0832  0.2167 -2.3108
11097TIP3    H254783   4.307   3.559  14.516  0.4782 -0.9979  1.8098
11098TIP3   OH254784   1.902   1.937  10.463  0.2758  0.4495  0.0127
11098TIP3    H154785   1.979   1.953  10.516  0.2249  1.9932 -0.3678
11098TIP3    H254786   1.829   1.972  10.514  0.1638  1.4422 -0.8117
11099TIP3   OH254787   6.706   3.114   2.679 -0.4102 -0.5372 -0.6057
11099TIP3    H154788   6.787   3.064   2.693  0.9521  1.2078 -1.9333
11099TIP3    H254789   6.684   3.149   2.765  2.2422  1.8375 -0.8031
11100TIP3   OH254790   2.952   4.222   3.056 -0.1247 -0.1134  0.2657
11100TIP3    H154791   2.907   4.144   3.025  1.2483  0.0890 -2.3426
11100TIP3    H254792   2.934   4.288   2.990  1.5970  0.7872  0.6752
11101TIP3   OH254793   1.219   1.303  13.034  0.0377  0.1696 -0.2892
11101TIP3    H154794   1.314   1.291  13.033  0.2144  1.3901  0.5083
11101TIP3    H254795   1.187   1.236  13.094  0.3711 -0.3728 -0.7112
11102TIP3   OH254796   5.146   1.425   2.026 -0.3049  1.0127  0.6760
11102TIP3    H154797   5.213   1.399   2.089  0.3228  0.7730 -0.0728
11102TIP3    H254798   5.137   1.519   2.039  0.4215  1.1055  0.5629
11103TIP3   OH254799   2.759   1.900  11.976 -0.3060 -0.4597 -0.2574
11103TIP3    H154800   2.753   1.978  12.032  2.3478 -1.0430  0.8959
11103TIP3    H254801   2.676   1.854  11.991 -0.7751  0.7625  1.1137
11104TIP3   OH254802   2.190   4.960  13.478 -0.1796  0.4620  0.3643
11104TIP3    H154803   2.266   5.015  13.497 -0.3393  0.3648  1.3248
11104TIP3    H254804   2.170   4.976  13.386  2.0901 -0.8213 -0.4025
11105TIP3   OH254805   5.918   1.055  14.604 -0.3516  0.6591 -0.4850
11105TIP3    H154806   5.842   1.112  14.607 -0.0804  1.0384 -0.8255
11105TIP3    H254807   5.966   1.074  14.685 -1.7490 -1.1616  0.8140
11106TIP3   OH254808   1.013   5.653   0.199 -0.0359 -0.1985  0.6383
11106TIP3    H154809   1.057   5.576   0.162  0.7627  1.2429 -1.4935
11106TIP3    H254810   0.925   5.650   0.162  0.1883  0.2419  0.0642
11107TIP3   OH254811   2.046   3.994   3.128  0.4921 -0.3476  0.2132
11107TIP3    H154812   2.068   4.000   3.035  0.9043 -0.2207  0.3205
11107TIP3    H254813   2.091   4.068   3.168  0.5388 -0.5652  0.5606
11108TIP3   OH254814   5.922   5.052  16.023 -0.6223  0.2166  0.6552
11108TIP3    H154815   5.879   5.015  16.101 -2.0131  0.6276  0.0915
11108TIP3    H254816   5.874   5.132  16.005  0.9742  1.1559  0.5384
11109TIP3   OH254817   0.853   3.846  15.956 -0.1807 -0.3001  0.0953
11109TIP3    H154818   0.908   3.803  16.022  1.3002  0.1905 -0.7881
11109TIP3    H254819   0.789   3.896  16.007  0.4326 -0.5861  1.1571
11110TIP3   OH254820   2.297   6.176   0.278 -0.3539 -0.7145 -0.1067
11110TIP3    H154821   2.352   6.130   0.214  1.2838 -0.7517  1.2966
11110TIP3    H254822   2.358   6.233   0.325 -1.7782  0.2971  0.5323
11111TIP3   OH254823   3.583   2.259  11.590  0.0931  0.0833 -0.4262
11111TIP3    H154824   3.540   2.173  11.600 -0.1461  0.2384 -0.1031
11111TIP3    H254825   3.598   2.267  11.496  0.1000 -0.3076 -0.4602
11112TIP3   OH254826   2.636   3.838  16.701  0.1063  0.3075  0.7544
11112TIP3    H154827   2.702   3.842  16.770 -0.0828 -0.1389  0.9620
11112TIP3    H254828   2.587   3.758  16.719 -0.0778  0.3012  0.2234
11113TIP3   OH254829   0.477   2.674   1.080  0.3949  0.0518  0.7019
11113TIP3    H154830   0.450   2.587   1.109  0.1018  0.4618  1.6632
11113TIP3    H254831   0.400   2.710   1.036 -0.7335  1.2995  3.6142
11114TIP3   OH254832   5.256   4.643  13.486  0.5048  0.2476  0.2808
11114TIP3    H154833   5.332   4.611  13.535  0.0707 -0.1956  0.6757
11114TIP3    H254834   5.230   4.568  13.431  0.3247  0.3796  0.1853
11115TIP3   OH254835   4.147   1.773  12.433 -0.1221  0.1786  0.2060
11115TIP3    H154836   4.156   1.688  12.389 -1.0854  0.7241 -1.0389
11115TIP3    H254837   4.198   1.833  12.379 -0.9397  0.7651  0.0967
11116TIP3   OH254838   3.148   6.104  13.985  0.2419  0.5693 -0.1772
11116TIP3    H154839   3.091   6.036  13.948 -1.0558  0.0568  2.5939
11116TIP3    H254840   3.178   6.155  13.910 -0.5416 -1.7260 -2.0949
11117TIP3   OH254841   3.383   4.328   2.709 -0.3445  0.7802  0.0729
11117TIP3    H154842   3.476   4.315   2.727  0.2776  2.0682 -1.9980
11117TIP3    H254843   3.341   4.250   2.743  1.7693 -0.9109 -1.0684
11118TIP3   OH254844   4.873   1.374   0.438  0.3620  0.1153 -0.1875
11118TIP3    H154845   4.829   1.308   0.492  1.4436  0.2205  0.8551
11118TIP3    H254846   4.947   1.327   0.399  1.8160  0.9674  1.4840
11119TIP3   OH254847   4.886   6.601   1.948 -1.0125  0.5105  0.5432
11119TIP3    H154848   4.965   6.644   1.914 -2.0311  1.1266 -1.1076
11119TIP3    H254849   4.815   6.636   1.894 -2.5031  0.4172  2.4164
11120TIP3   OH254850   5.668   5.688   3.030 -0.5800 -0.1482  0.6295
11120TIP3    H154851   5.688   5.743   2.954  0.0805 -0.2352  0.7437
11120TIP3    H254852   5.675   5.598   2.998  2.4519 -0.2648  1.4591
11121TIP3   OH254853   4.602   0.477  16.554  0.2492 -0.6689 -0.1365
11121TIP3    H154854   4.579   0.504  16.643  0.7596  0.1679 -0.2563
11121TIP3    H254855   4.550   0.534  16.498 -0.2444 -1.3501 -0.3808
11122TIP3   OH254856   1.485   4.791  11.807  0.3427  0.4923 -0.3326
11122TIP3    H154857   1.504   4.820  11.718  4.0625 -3.0196 -0.8277
11122TIP3    H254858   1.432   4.712  11.795  1.2911 -0.2847  0.5002
11123TIP3   OH254859   1.750   4.328  15.220 -0.1823  0.5049 -0.0393
11123TIP3    H154860   1.808   4.401  15.238  0.5288  0.4659 -2.0623
11123TIP3    H254861   1.755   4.272  15.298 -0.2224  2.2576  1.2291
11124TIP3   OH254862   3.983   4.778  12.410 -0.1697 -0.5801 -0.5583
11124TIP3    H154863   4.041   4.814  12.342 -1.8130  0.0846 -1.6517
11124TIP3    H254864   4.025   4.696  12.436  0.7381 -0.6297 -2.0721
11125TIP3   OH254865   3.733   1.660   3.800 -0.2452  0.6206 -0.4730
11125TIP3    H154866   3.703   1.626   3.884 -1.4852 -0.6284 -1.4018
11125TIP3    H254867   3.829   1.662   3.808 -0.1231 -2.6742 -0.1600
11126TIP3   OH254868   5.474   5.928  13.853 -0.3740  0.1884  0.1675
11126TIP3    H154869   5.431   6.010  13.878  0.2716  0.8717 -0.8760
11126TIP3    H254870   5.408   5.880  13.803  0.1412  1.3704 -1.6968
11127TIP3   OH254871   5.458   4.314   3.265 -0.0341 -0.0605  0.0090
11127TIP3    H154872   5.401   4.237   3.276  0.4507 -0.3769  0.2989
11127TIP3    H254873   5.440   4.368   3.342 -0.0283 -0.1065  0.0432
11128TIP3   OH254874   6.141   3.856  14.200 -0.2241  0.0484  0.2311
11128TIP3    H154875   6.205   3.872  14.269 -0.1031  0.8393 -0.0622
11128TIP3    H254876   6.122   3.943  14.164 -1.4845 -0.1805  0.3423
11129TIP3   OH254877   3.608   4.299  17.208  0.2859 -0.1462 -0.3839
11129TIP3    H154878   3.518   4.291  17.238  0.0255 -1.8511 -1.5545
11129TIP3    H254879   3.660   4.258  17.276  0.2833  1.5514  0.6802
11130TIP3   OH254880   1.864   1.781  16.185  0.6850 -0.2552 -0.6187
11130TIP3    H154881   1.875   1.723  16.110 -0.0269  0.6883 -1.4592
11130TIP3    H254882   1.795   1.842  16.159 -0.9744 -1.1496  1.5336
11131TIP3   OH254883   3.503   4.601  12.546  0.2578 -0.5993 -0.1714
11131TIP3    H154884   3.520   4.507  12.536 -0.1230 -0.5913 -0.9775
11131TIP3    H254885   3.496   4.633  12.456 -0.7694 -0.0117  0.1091
11132TIP3   OH254886   6.394   0.237  17.245  0.2604  0.1398  0.1125
11132TIP3    H154887   6.391   0.142  17.260  2.0002 -0.1572 -1.1344
11132TIP3    H254888   6.470   0.266  17.295  0.5773  0.6367 -0.6593
11133TIP3   OH254889   1.473   4.375  11.655  0.3252 -0.3012  0.2596
11133TIP3    H154890   1.568   4.378  11.665  0.4084  2.5739 -0.8573
11133TIP3    H254891   1.440   4.431  11.725 -0.4483 -0.3335 -0.0773
11134TIP3   OH254892   5.422   3.986   2.801  0.9990 -0.1778 -0.1429
11134TIP3    H154893   5.331   4.010   2.785  1.0353  0.4992  0.6180
11134TIP3    H254894   5.418   3.928   2.877  1.1007 -1.0375 -0.7879
11135TIP3   OH254895   3.307   5.776   5.660  0.0762 -0.1094  0.4629
11135TIP3    H154896   3.230   5.792   5.605  0.2027  1.5590  0.7411
11135TIP3    H254897   3.272   5.732   5.737 -0.4250 -0.3736  0.0953
11136TIP3   OH254898   6.161   6.670   2.549  0.5863  0.1558 -0.2023
11136TIP3    H154899   6.182   6.610   2.622 -0.2688  0.5863  0.3990
11136TIP3    H254900   6.204   6.752   2.573  0.0612  0.3838 -0.0430
11137TIP3   OH254901   5.408   1.929  11.896  0.0749  0.3071 -0.1336
11137TIP3    H154902   5.425   1.867  11.825  0.4565  1.1895 -0.8155
11137TIP3    H254903   5.483   1.989  11.895 -0.2565  0.7445  0.5635
11138TIP3   OH254904   3.572   3.258  11.742 -0.1764  0.0587 -0.2089
11138TIP3    H154905   3.605   3.334  11.791 -1.5407  0.8996 -0.5961
11138TIP3    H254906   3.532   3.203  11.809  3.1634 -1.6384  0.4851
11139TIP3   OH254907   1.685   5.479  13.380  0.4610 -0.2103  0.0765
11139TIP3    H154908   1.707   5.457  13.470 -0.9460 -1.0524  0.2235
11139TIP3    H254909   1.722   5.407  13.328 -0.0770 -0.5219  0.1245
11140TIP3   OH254910   5.633   2.719  15.017 -0.1167 -0.2583 -0.1220
11140TIP3    H154911   5.695   2.665  15.067  0.3495 -0.3287 -0.7735
11140TIP3    H254912   5.615   2.793  15.075  1.3095  0.2407 -0.2860
11141TIP3   OH254913   6.382   4.385   2.089  0.0891  0.1211 -0.8524
11141TIP3    H154914   6.291   4.408   2.104  0.7935  0.4669  3.7769
11141TIP3    H254915   6.379   4.300   2.045 -2.5027 -1.1381  1.6084
11142TIP3   OH254916   2.054   4.660   4.208  0.0177 -0.4068 -0.1836
11142TIP3    H154917   1.984   4.667   4.144  1.3738 -0.6214 -1.7207
11142TIP3    H254918   2.087   4.749   4.218  1.6892 -0.7849 -1.9757
11143TIP3   OH254919   5.305   4.007   2.413 -0.2244  0.0586  0.3133
11143TIP3    H154920   5.218   3.968   2.403 -0.6390  1.3886 -1.6241
11143TIP3    H254921   5.364   3.933   2.419 -1.1111 -0.8868 -2.1492
11144TIP3   OH254922   0.430   0.292   1.293 -0.4262  0.5150  0.0567
11144TIP3    H154923   0.398   0.231   1.359 -0.6793 -1.4788 -1.8416
11144TIP3    H254924   0.395   0.377   1.319 -1.6004 -0.4632  1.7374
11145TIP3   OH254925   4.414   5.154   4.281 -0.4270 -0.1815 -0.4952
11145TIP3    H154926   4.496   5.109   4.259 -0.0994  0.0080  0.3268
11145TIP3    H254927   4.384   5.191   4.197 -0.0549 -0.8725 -0.9333
11146TIP3   OH254928   2.650   0.234  17.269  0.3275 -0.5767  0.2365
11146TIP3    H154929   2.699   0.313  17.246  0.3842 -0.5309  0.5160
11146TIP3    H254930   2.647   0.184  17.188 -3.0875  1.4986 -1.0202
11147TIP3   OH254931   6.789   5.839   1.657  0.0420  0.6339  0.3805
11147TIP3    H154932   6.790   5.782   1.733  0.1621  0.2613  0.0992
11147TIP3    H254933   6.793   5.928   1.693  0.4699  0.4467  0.7887
11148TIP3   OH254934   3.919   0.372   0.344 -0.3410 -0.7146 -0.3436
11148TIP3    H154935   3.971   0.358   0.423  0.0797 -1.3050 -0.7115
11148TIP3    H254936   3.847   0.309   0.351  0.0220 -1.1753 -0.7018
11149TIP3   OH254937   4.516   6.494   2.941  0.2012 -0.3700  0.1490
11149TIP3    H154938   4.493   6.478   2.849  1.0829  1.7603 -0.4754
11149TIP3    H254939   4.445   6.453   2.990 -0.6654 -0.9152 -1.5033
11150TIP3   OH254940   4.154   6.795  15.463 -0.3681  0.1754  0.7201
11150TIP3    H154941   4.113   6.825  15.381 -0.5777 -1.1016  0.3430
11150TIP3    H254942   4.227   6.855  15.476 -0.7448  0.8210 -0.0385
11151TIP3   OH254943   0.355   0.546   5.212 -0.7922 -0.0332  0.5855
11151TIP3    H154944   0.294   0.543   5.286 -1.1414  0.1191  0.3078
11151TIP3    H254945   0.299   0.534   5.135 -0.2749 -1.5035  0.4195
11152TIP3   OH254946   2.558   3.038   6.095  0.3301  0.6552 -0.0959
11152TIP3    H154947   2.512   2.954   6.088 -0.6448  0.9480  2.4093
11152TIP3    H254948   2.649   3.017   6.076  0.2665 -1.1643  1.4576
11153TIP3   OH254949   0.734   4.348  12.531  0.0856 -0.3084  0.0125
11153TIP3    H154950   0.678   4.334  12.454 -0.1224 -0.2236  0.1455
11153TIP3    H254951   0.809   4.397  12.497  0.2127 -0.6614 -0.2194
11154TIP3   OH254952   3.534   3.635   5.891 -0.3231  0.6278  0.1801
11154TIP3    H154953   3.481   3.633   5.970  0.4669  1.6953  0.7521
11154TIP3    H254954   3.499   3.708   5.840 -1.0854 -0.3033 -0.6461
11155TIP3   OH254955   0.232   5.357  13.485  0.1774 -0.1448 -0.0404
11155TIP3    H154956   0.185   5.408  13.552 -0.5732  1.1492 -1.5395
11155TIP3    H254957   0.210   5.399  13.402  1.5462 -1.4079 -1.0726
11156TIP3   OH254958   6.198   6.281  15.871  0.7038  0.1001  0.1914
11156TIP3    H154959   6.196   6.372  15.900 -0.3461 -0.2768  1.3488
11156TIP3    H254960   6.184   6.286  15.776  1.7705  1.1979  0.0825
11157TIP3   OH254961   2.147   5.829   3.706  0.3522  0.0371  0.0220
11157TIP3    H154962   2.072   5.777   3.677  1.5290 -0.7484 -1.6909
11157TIP3    H254963   2.140   5.912   3.658  0.4927  0.0328 -0.0082
11158TIP3   OH254964   2.112   2.338  11.366  0.0995 -0.3789  0.6013
11158TIP3    H154965   2.019   2.317  11.354 -0.0927 -2.0150  4.2768
11158TIP3    H254966   2.155   2.253  11.371  1.6787  0.3679 -0.1465
11159TIP3   OH254967   4.772   2.474  15.995 -0.1606 -0.0582  0.7774
11159TIP3    H154968   4.848   2.530  16.010  0.6525 -0.9515  0.0466
11159TIP3    H254969   4.704   2.533  15.966  0.3350  0.7166  1.1607
11160TIP3   OH254970   0.123   0.723   3.392 -0.8893  0.3257 -0.4204
11160TIP3    H154971   0.061   0.651   3.392  0.5206 -0.9261 -1.5560
11160TIP3    H254972   0.119   0.759   3.304 -1.7682  1.8189  0.2121
11161TIP3   OH254973   0.841   2.345  14.654 -0.3326  0.1292 -0.8187
11161TIP3    H154974   0.824   2.414  14.590 -1.7408 -1.3776 -2.1282
11161TIP3    H254975   0.866   2.269  14.600  0.1960 -0.6545  0.5202
11162TIP3   OH254976   4.023   5.989  12.974 -0.8100 -0.3361  0.4042
11162TIP3    H154977   4.043   5.963  13.064 -0.3377 -0.7684  0.1707
11162TIP3    H254978   4.106   6.020  12.939 -0.7071 -1.4308 -0.3186
11163TIP3   OH254979   0.312   3.084  11.274 -0.4329 -0.2529 -0.0497
11163TIP3    H154980   0.377   3.112  11.209  0.8047 -2.6723  0.0678
11163TIP3    H254981   0.266   3.011  11.232  0.5449 -1.9999  1.8466
11164TIP3   OH254982   0.895   4.896   2.240  0.4822 -0.1772 -0.4684
11164TIP3    H154983   0.929   4.932   2.158  1.1569 -0.7856 -0.4688
11164TIP3    H254984   0.871   4.973   2.292 -0.6603  0.1942 -1.5232
11165TIP3   OH254985   6.194   3.462   3.391 -0.2288  0.4295 -0.7800
11165TIP3    H154986   6.289   3.464   3.394 -0.2736  1.5113  3.0461
11165TIP3    H254987   6.169   3.537   3.336  1.1096  1.7391  0.3615
11166TIP3   OH254988   2.595   1.657  16.206  0.2140 -0.2698 -0.3768
11166TIP3    H154989   2.499   1.659  16.201  0.2390 -0.1656 -0.8622
11166TIP3    H254990   2.614   1.650  16.299 -0.2382  2.8265  0.0088
11167TIP3   OH254991   3.017   6.343  10.829 -0.2179 -0.0791  0.0368
11167TIP3    H154992   2.942   6.334  10.770 -0.9292  0.4285  0.8488
11167TIP3    H254993   3.058   6.257  10.831 -1.0674 -0.4842 -0.0318
11168TIP3   OH254994   5.873   2.594  12.249  0.0569  0.1032 -0.0890
11168TIP3    H154995   5.893   2.658  12.180 -0.9257  1.3937  0.8079
11168TIP3    H254996   5.820   2.528  12.205 -0.4152  0.8289 -0.6186
11169TIP3   OH254997   3.068   6.223   1.277 -0.6654 -0.1203 -0.1258
11169TIP3    H154998   2.989   6.272   1.256 -0.9684 -1.6957 -2.8782
11169TIP3    H254999   3.062   6.144   1.225  1.1940 -1.7843  2.0785
11170TIP3   OH255000   3.932   4.173   0.226 -0.2658  0.5585  0.2359
11170TIP3    H155001   3.915   4.128   0.143  0.2514 -0.3418  0.6074
11170TIP3    H255002   3.943   4.265   0.202 -2.1317  0.6214 -0.4350
11171TIP3   OH255003   5.006   1.851  11.684  0.5101 -0.1388  0.3285
11171TIP3    H155004   4.990   1.766  11.643 -2.2922  0.1047  0.8211
11171TIP3    H255005   5.009   1.833  11.778 -1.9001  0.5263  0.5588
11172TIP3   OH255006   1.759   1.635  16.988  0.6147 -0.1851 -0.5777
11172TIP3    H155007   1.827   1.668  16.929  0.6707  2.6600  1.0197
11172TIP3    H255008   1.806   1.617  17.070 -0.2257 -0.0264 -0.0578
11173TIP3   OH255009   4.824   3.717   5.624  0.4425 -0.8040  0.1933
11173TIP3    H155010   4.878   3.681   5.694  1.6876  2.8032  1.1870
11173TIP3    H255011   4.747   3.660   5.620  1.5170 -2.4800  2.8280
11174TIP3   OH255012   0.122   2.602  11.427  0.3342 -0.1917  0.2663
11174TIP3    H155013   0.179   2.579  11.354  0.2182 -1.3395  0.5370
11174TIP3    H255014   0.116   2.522  11.479 -0.9019  0.1578  0.6589
11175TIP3   OH255015   4.997   1.989  14.975  0.0984 -0.9446 -0.0229
11175TIP3    H155016   4.906   2.006  14.952  0.3184 -0.0386 -0.2259
11175TIP3    H255017   5.010   1.897  14.951 -0.3449 -0.6729 -1.3844
11176TIP3   OH255018   1.575   0.973   6.394 -0.1773  0.7404 -0.0150
11176TIP3    H155019   1.636   0.980   6.467 -0.5542  1.1797  0.2618
11176TIP3    H255020   1.496   0.936   6.432 -0.7370  1.9530  0.0214
11177TIP3   OH255021   0.754   0.300   1.841  0.6278 -0.6216 -0.6429
11177TIP3    H155022   0.772   0.388   1.873 -0.2991 -0.5493 -0.3169
11177TIP3    H255023   0.705   0.258   1.912  0.7615 -1.2887 -0.9386
11178TIP3   OH255024   3.545   5.696   1.465 -0.0165 -0.1506 -0.0866
11178TIP3    H155025   3.630   5.664   1.496  2.2621  1.9724 -3.6367
11178TIP3    H255026   3.553   5.791   1.469 -2.3659  0.0808 -0.2523
11179TIP3   OH255027   1.245   2.162   1.072 -0.5811 -0.1582 -0.2142
11179TIP3    H155028   1.255   2.247   1.115 -3.0215  0.0150  0.0837
11179TIP3    H255029   1.218   2.103   1.142 -0.6234 -0.7815 -0.7528
11180TIP3   OH255030   1.071   6.282  16.452  0.1959 -0.0413 -0.1250
11180TIP3    H155031   1.036   6.258  16.367  2.7182 -1.3417 -0.8381
11180TIP3    H255032   1.045   6.210  16.510 -0.4586  0.2433 -0.0581
11181TIP3   OH255033   3.214   4.233  14.608 -0.7408 -0.4022  0.6392
11181TIP3    H155034   3.277   4.305  14.616 -0.1175 -0.8427 -0.2588
11181TIP3    H255035   3.129   4.277  14.596 -0.1121  0.2328 -1.9799
11182TIP3   OH255036   0.690   4.016  16.240  0.1915 -0.2029 -0.5003
11182TIP3    H155037   0.596   4.030  16.226  0.5857  0.4450 -2.6799
11182TIP3    H255038   0.696   3.932  16.284 -1.3113 -1.3084 -2.3431
11183TIP3   OH255039   1.420   6.450  11.472  0.1696 -0.4252  0.3357
11183TIP3    H155040   1.470   6.532  11.475  0.7816 -0.6555 -2.4574
11183TIP3    H255041   1.487   6.383  11.457 -0.4939 -1.2801  1.1973
11184TIP3   OH255042   0.082   4.754  14.682 -0.1489 -0.4366  0.1639
11184TIP3    H155043  -0.007   4.736  14.711  0.0962 -0.6843  0.7666
11184TIP3    H255044   0.071   4.800  14.599 -0.8944  1.5051  1.3029
11185TIP3   OH255045   5.204   5.788  13.843  0.2315 -0.7935  0.2221
11185TIP3    H155046   5.253   5.707  13.856 -0.8307 -1.0865  2.6620
11185TIP3    H255047   5.184   5.819  13.932 -2.3828  0.2898 -0.6899
11186TIP3   OH255048   2.820   6.480   5.633  0.4628 -0.0742  0.6323
11186TIP3    H155049   2.889   6.476   5.700  0.7272 -2.9554  0.2514
11186TIP3    H255050   2.740   6.497   5.682  0.8090 -1.1034  1.5756
11187TIP3   OH255051   1.663   4.297  12.984  0.6233 -0.8963 -0.3320
11187TIP3    H155052   1.568   4.300  12.983  0.6345  0.1058  0.6402
11187TIP3    H255053   1.685   4.208  12.959 -0.6339 -1.9355  2.0993
11188TIP3   OH255054   5.065   3.277   6.621  0.0449  0.1820  0.1965
11188TIP3    H155055   4.976   3.276   6.654 -0.5326 -2.5038 -1.3096
11188TIP3    H255056   5.069   3.356   6.566 -1.1451  0.7559  0.9233
11189TIP3   OH255057   3.782   4.836   2.392  0.0526 -0.0366 -0.0253
11189TIP3    H155058   3.789   4.932   2.389 -1.9530  0.1529  0.6266
11189TIP3    H255059   3.699   4.817   2.348  0.1673 -1.4352  0.3523
11190TIP3   OH255060   5.644   2.135  12.431 -0.7660  0.8008 -0.4776
11190TIP3    H155061   5.658   2.100  12.343  0.3974 -3.2059  1.1907
11190TIP3    H255062   5.725   2.182  12.452 -0.5748  0.7386 -1.0787
11191TIP3   OH255063   0.337   0.980   1.097 -0.0199 -0.8492 -0.3207
11191TIP3    H155064   0.368   1.065   1.065 -1.0150 -0.6063 -0.6644
11191TIP3    H255065   0.375   0.916   1.037  0.2588 -0.5988 -0.4116
11192TIP3   OH255066   2.466   3.532   1.907  0.4662  0.0504  0.1072
11192TIP3    H155067   2.504   3.450   1.875 -0.7285 -0.3536 -0.2940
11192TIP3    H255068   2.378   3.508   1.935  0.6550  0.8940  1.4432
11193TIP3   OH255069   3.794   0.476  12.377 -0.2200 -0.0645  0.0893
11193TIP3    H155070   3.871   0.523  12.408 -0.5214 -0.2179  1.0894
11193TIP3    H255071   3.797   0.392  12.423 -2.8497  1.2655  2.8935
11194TIP3   OH255072   4.381   4.226  15.030 -0.4400  0.2245 -0.1703
11194TIP3    H155073   4.390   4.131  15.033  1.1356  0.3090 -1.6958
11194TIP3    H255074   4.287   4.241  15.036 -0.6328 -1.3490  1.4809
11195TIP3   OH255075   0.850   6.791  13.694  0.3707 -0.1694 -0.7478
11195TIP3    H155076   0.867   6.714  13.640 -0.0586 -1.3815  0.8052
11195TIP3    H255077   0.927   6.799  13.750  0.4316  0.5559 -0.9298
11196TIP3   OH255078   2.242   0.618  14.434  0.2900 -0.0884  0.6574
11196TIP3    H155079   2.323   0.584  14.398  0.5427  0.5434  0.6213
11196TIP3    H255080   2.185   0.541  14.444  0.0251 -0.1964 -1.5409
11197TIP3   OH255081   4.767   4.303   6.173  0.7873  0.5771  0.1898
11197TIP3    H155082   4.815   4.222   6.192  1.2038  0.6515 -0.5278
11197TIP3    H255083   4.835   4.370   6.168  0.5632  0.7729 -0.3299
11198TIP3   OH255084   3.948   3.270  10.895  0.1916  0.6130 -0.1099
11198TIP3    H155085   4.041   3.252  10.910  0.2376  1.2674  0.4223
11198TIP3    H255086   3.948   3.338  10.828  0.0194 -1.2188 -2.0460
11199TIP3   OH255087   3.295   1.817  16.998  0.5090  0.0954 -0.0014
11199TIP3    H155088   3.255   1.760  16.932  1.8074 -0.3855 -0.3751
11199TIP3    H255089   3.376   1.773  17.022 -0.6914 -0.5740  3.1141
11200TIP3   OH255090   5.389   5.665   2.599  0.1748 -0.1786 -0.5646
11200TIP3    H155091   5.344   5.586   2.631  0.1303  0.2628  0.4833
11200TIP3    H255092   5.472   5.665   2.646 -0.7709  1.6137  1.1403
11201TIP3   OH255093   5.776   6.426   5.183  0.3025  0.6488  0.4240
11201TIP3    H155094   5.702   6.448   5.127 -0.6902  0.1054  1.5007
11201TIP3    H255095   5.846   6.485   5.155  0.0978 -0.1715 -1.9388
11202TIP3   OH255096   6.789   1.821   1.842  0.4798  0.4014 -0.5133
11202TIP3    H155097   6.713   1.774   1.877 -0.4941  0.8514 -1.9443
11202TIP3    H255098   6.864   1.768   1.866 -0.3564 -0.4119  0.3313
11203TIP3   OH255099   6.015   4.437   4.442 -0.8898 -0.1077 -0.2596
11203TIP3    H155100   5.935   4.487   4.424 -0.2842  0.8316 -0.3498
11203TIP3    H255101   6.076   4.501   4.478  0.2685 -0.5394 -1.3981
11204TIP3   OH255102   4.489   6.028  16.501  0.0877  0.1162  0.2109
11204TIP3    H155103   4.559   6.087  16.473  0.7789 -1.4347 -1.4966
11204TIP3    H255104   4.519   5.994  16.585 -0.0112  1.6861  0.8886
11205TIP3   OH255105   5.235   5.571  15.812  0.2953 -0.0811  0.1023
11205TIP3    H155106   5.229   5.651  15.760 -0.0080 -0.5661 -0.6167
11205TIP3    H255107   5.178   5.588  15.887  0.5508  0.5341  0.1653
11206TIP3   OH255108   3.323   1.010  12.934 -0.0863 -0.3585  0.8489
11206TIP3    H155109   3.309   1.062  12.855 -2.7079 -3.1412 -0.6417
11206TIP3    H255110   3.287   1.064  13.005 -0.5625  0.8773 -0.3130
11207TIP3   OH255111   2.707   2.688  11.096  0.3980 -0.1584  0.4021
11207TIP3    H155112   2.644   2.726  11.035  0.5548  0.3344  0.5421
11207TIP3    H255113   2.786   2.676  11.044 -0.1263 -1.7674 -0.0521
11208TIP3   OH255114   0.387   5.545   2.156  0.2215 -0.3505 -0.2647
11208TIP3    H155115   0.474   5.541   2.196  0.2787  1.1637 -0.2134
11208TIP3    H255116   0.405   5.551   2.062  0.1472 -0.8741 -0.3150
11209TIP3   OH255117   1.397   6.184  15.357  0.2976 -0.2008  0.2436
11209TIP3    H155118   1.333   6.221  15.296 -1.5522 -1.7656  1.1962
11209TIP3    H255119   1.382   6.090  15.353 -0.0636 -0.2971  3.3415
11210TIP3   OH255120   6.744   4.936  11.513 -0.0660 -0.6700  0.6432
11210TIP3    H155121   6.745   4.936  11.417 -3.8018  0.0944  0.5313
11210TIP3    H255122   6.788   5.018  11.537 -0.5946 -0.0356 -0.4739
11211TIP3   OH255123   5.037   1.590   6.599 -0.6575 -0.3131  0.5106
11211TIP3    H155124   5.033   1.500   6.566 -1.5378 -0.3074  0.5775
11211TIP3    H255125   4.970   1.636   6.549 -0.8680  0.0778  1.1529
11212TIP3   OH255126   1.090   6.721  17.242  0.1330  0.4869 -0.2961
11212TIP3    H155127   0.994   6.719  17.240  0.1228 -1.3707  0.4619
11212TIP3    H255128   1.113   6.682  17.326  1.5352  3.6896  0.8849
11213TIP3   OH255129   5.703   0.258   6.571 -0.1181  0.1812  0.0856
11213TIP3    H155130   5.692   0.226   6.661 -1.0072  1.7335  0.5507
11213TIP3    H255131   5.613   0.262   6.537  0.2313 -0.5783 -0.9502
11214TIP3   OH255132   5.324   3.409   2.892 -0.0851 -0.2957  0.5092
11214TIP3    H155133   5.406   3.374   2.856  0.4629  0.8204  0.6409
11214TIP3    H255134   5.257   3.380   2.831  0.5199 -0.5396 -0.0480
11215TIP3   OH255135   1.667   1.475   3.680 -0.4454 -0.0404  0.2686
11215TIP3    H155136   1.663   1.507   3.770 -0.1723 -1.3079  0.7388
11215TIP3    H255137   1.726   1.537   3.635 -1.5030  1.2767  0.6526
11216TIP3   OH255138   3.342   0.094   0.596 -0.6454  0.2390 -0.6186
11216TIP3    H155139   3.248   0.101   0.612 -0.4584  0.4603  0.4827
11216TIP3    H255140   3.364   0.005   0.622 -0.1504  0.9315  1.4751
11217TIP3   OH255141   2.262   5.737  14.931  0.2605 -0.1131 -0.0543
11217TIP3    H155142   2.267   5.696  14.845 -2.1161  0.1312 -0.3433
11217TIP3    H255143   2.212   5.817  14.917 -0.3082 -0.1638  1.5915
11218TIP3   OH255144   3.931   6.253   5.054 -0.0244  0.4223  0.5595
11218TIP3    H155145   3.898   6.173   5.096 -0.4148 -1.3388 -2.9286
11218TIP3    H255146   4.020   6.231   5.027 -0.3001  0.9717 -0.8523
11219TIP3   OH255147   2.000   0.942  13.607 -0.8876  0.0629 -0.3528
11219TIP3    H155148   2.057   0.920  13.681 -1.9050 -0.1287  0.3772
11219TIP3    H255149   2.049   1.009  13.559  0.4975 -0.9724 -0.4202
11220TIP3   OH255150   1.132   0.405   4.531  0.7770  0.3432  0.3375
11220TIP3    H155151   1.100   0.320   4.502 -1.0677  1.5163 -1.2172
11220TIP3    H255152   1.185   0.437   4.458 -0.4633  1.5157 -0.0753
11221TIP3   OH255153   4.474   3.051  17.135  0.5542 -1.0160  0.1384
11221TIP3    H155154   4.566   3.030  17.120  1.3285  2.3628 -0.2563
11221TIP3    H255155   4.476   3.111  17.210 -1.1667  0.1031 -0.6835
11222TIP3   OH255156   5.640   5.488   0.273  0.0360 -0.1186 -0.0270
11222TIP3    H155157   5.732   5.486   0.246 -0.0316 -1.5474 -0.1841
11222TIP3    H255158   5.644   5.492   0.369  0.2513 -0.0188 -0.0387
11223TIP3   OH255159   2.679   0.590  11.088 -0.5803  0.4399  0.2023
11223TIP3    H155160   2.642   0.612  11.002  1.5368  1.8608 -0.3754
11223TIP3    H255161   2.689   0.495  11.085 -0.5004  0.4727 -1.1439
11224TIP3   OH255162   2.530   1.155  16.857  0.0193 -0.0316  0.3505
11224TIP3    H155163   2.470   1.226  16.880  1.3160  0.9388  0.8060
11224TIP3    H255164   2.598   1.159  16.925  1.1774 -0.4058 -0.7671
11225TIP3   OH255165   3.066   4.986  15.163 -0.7605 -0.3092 -0.3863
11225TIP3    H155166   3.032   5.067  15.125  2.0532  0.0723 -2.1755
11225TIP3    H255167   3.043   4.918  15.100  1.0986 -0.1551 -1.2555
11226TIP3   OH255168   4.631   4.878  11.734 -0.2743 -0.0225 -0.5458
11226TIP3    H155169   4.593   4.964  11.752 -0.1701 -0.1133  0.1213
11226TIP3    H255170   4.657   4.844  11.820  0.6734 -0.2583 -0.9108
11227TIP3   OH255171   3.162   2.378   0.485 -0.3702  0.2836 -0.4222
11227TIP3    H155172   3.077   2.420   0.474  0.1860  1.8663  1.1834
11227TIP3    H255173   3.210   2.436   0.543  1.5070 -1.0504 -0.6118
11228TIP3   OH255174   4.429   3.347   5.969  0.2520 -0.0673  0.6418
11228TIP3    H155175   4.433   3.284   6.041  0.1826  0.1807  0.8611
11228TIP3    H255176   4.347   3.326   5.924  1.9403 -2.5287 -1.4649
11229TIP3   OH255177   5.033   5.406  12.152  0.2424  0.2284 -0.0411
11229TIP3    H155178   4.981   5.359  12.217 -1.4780  1.6680 -0.3573
11229TIP3    H255179   4.977   5.477  12.122  1.7945  0.8533 -1.5769
11230TIP3   OH255180   6.590   3.123  14.814  0.1747 -0.1964 -0.0178
11230TIP3    H155181   6.504   3.083  14.808 -0.9376  1.6785  2.6572
11230TIP3    H255182   6.594   3.184  14.741  0.2436 -2.0673 -1.6165
11231TIP3   OH255183   1.007   2.210   1.569  0.1629  0.0386 -0.1597
11231TIP3    H155184   0.947   2.140   1.543 -1.1518  0.9350  0.3777
11231TIP3    H255185   0.962   2.290   1.541  0.7103  0.7691  1.0439
11232TIP3   OH255186   0.315   1.285   4.647  0.1384  0.7357  0.2990
11232TIP3    H155187   0.328   1.195   4.617 -0.0167 -0.3141  3.2085
11232TIP3    H255188   0.280   1.331   4.571  0.7571 -1.5260 -1.4009
11233TIP3   OH255189   5.771   3.906  13.854 -0.3830 -0.5996 -0.3263
11233TIP3    H155190   5.718   3.828  13.843 -1.4426 -0.0678  0.9293
11233TIP3    H255191   5.760   3.931  13.945 -1.7440  2.2175 -1.1884
11234TIP3   OH255192   0.561   0.441  15.733  0.6506  0.3180 -0.6395
11234TIP3    H155193   0.583   0.399  15.817 -1.0334  0.6669  0.0036
11234TIP3    H255194   0.528   0.527  15.758  2.6109  1.4742 -1.8602
11235TIP3   OH255195   5.630   6.552   2.128  0.1676  0.5300  0.1005
11235TIP3    H155196   5.676   6.635   2.132  0.7100  0.2565 -0.4947
11235TIP3    H255197   5.630   6.528   2.035  0.3072 -0.2899  0.3033
11236TIP3   OH255198   3.346   2.908  15.380 -0.3656  0.0346 -0.2849
11236TIP3    H155199   3.259   2.928  15.344  1.4776  2.8263 -3.5156
11236TIP3    H255200   3.396   2.876  15.305  1.7799 -0.3266  1.2493
11237TIP3   OH255201   2.316   1.568   0.947  0.0829 -0.3713  0.2259
11237TIP3    H155202   2.257   1.626   0.995  0.6286  0.4845 -0.1339
11237TIP3    H255203   2.279   1.564   0.858 -0.0771 -0.7581  0.3065
11238TIP3   OH255204   3.857   0.419   5.601 -0.8161  0.7657  0.3153
11238TIP3    H155205   3.784   0.357   5.598 -1.3992  1.5006 -0.7669
11238TIP3    H255206   3.932   0.366   5.627 -1.4323 -0.2905 -0.0329
11239TIP3   OH255207   1.722   1.462  12.475 -0.0479 -0.2275  0.0717
11239TIP3    H155208   1.806   1.417  12.466  0.2184  0.1813  0.5334
11239TIP3    H255209   1.678   1.446  12.391  1.0520  0.7244 -0.6991
11240TIP3   OH255210   4.015   2.130   5.767  0.3116  0.1321  0.1021
11240TIP3    H155211   4.017   2.118   5.672 -1.9785 -0.6852  0.1191
11240TIP3    H255212   4.103   2.105   5.796  1.2498  1.0572 -1.8626
11241TIP3   OH255213   6.751   3.331  10.819 -0.2826 -0.4173 -0.0808
11241TIP3    H155214   6.744   3.309  10.726 -1.9580 -1.8438  0.3579
11241TIP3    H255215   6.785   3.420  10.820  2.4860 -1.3752 -2.0233
11242TIP3   OH255216   1.102   4.341  16.620  0.1932 -0.0876 -0.3600
11242TIP3    H155217   1.185   4.295  16.621  0.4379  0.3657  0.2579
11242TIP3    H255218   1.119   4.420  16.570  0.3407  0.3881  0.4388
11243TIP3   OH255219   5.369   1.108   3.978 -0.5575  0.2560 -0.1636
11243TIP3    H155220   5.374   1.060   4.060  0.5099 -2.3558 -1.7144
11243TIP3    H255221   5.343   1.197   4.004  0.5140 -0.3100  3.0300
11244TIP3   OH255222   6.769   0.262  13.813  0.0328  0.2228 -0.5301
11244TIP3    H155223   6.764   0.235  13.905 -0.9867  0.5742 -0.4716
11244TIP3    H255224   6.858   0.241  13.786  0.1778 -0.3589  0.3946
11245TIP3   OH255225   6.111   1.358  11.425  1.2236  0.1714  0.1753
11245TIP3    H155226   6.043   1.425  11.433  0.3696 -0.7635  0.9196
11245TIP3    H255227   6.115   1.318  11.512  2.8292  0.3082  0.1734
11246TIP3   OH255228   1.717   4.353  12.454 -0.1015  0.2990 -0.3563
11246TIP3    H155229   1.656   4.387  12.388 -0.8526  1.4799  0.9101
11246TIP3    H255230   1.716   4.419  12.524  1.7264 -0.2478  0.2249
11247TIP3   OH255231   3.527   2.009  15.794  0.1400  0.0108 -0.1719
11247TIP3    H155232   3.480   2.054  15.864 -0.2702 -0.2137 -0.3051
11247TIP3    H255233   3.474   1.932  15.775  0.3679 -0.0455 -0.5774
11248TIP3   OH255234   4.153   0.768  11.283 -0.9105 -0.6056 -0.2899
11248TIP3    H155235   4.136   0.767  11.377  1.4984  1.5497  0.2169
11248TIP3    H255236   4.117   0.851  11.253 -0.2822 -0.5888 -0.9939
11249TIP3   OH255237   2.688   2.133  16.845 -0.0638  0.6639  0.4335
11249TIP3    H155238   2.713   2.043  16.865 -3.1069 -0.1088  1.0025
11249TIP3    H255239   2.670   2.132  16.751  1.7468  1.1652  0.0674
11250TIP3   OH255240   5.356   5.827   4.844 -0.2473 -0.1137 -0.6882
11250TIP3    H155241   5.417   5.783   4.785 -1.0599 -1.9462 -0.1969
11250TIP3    H255242   5.410   5.891   4.891  1.0696 -0.9333 -1.0637
11251TIP3   OH255243   3.595   2.329  15.752 -0.0172  0.1455  0.5227
11251TIP3    H155244   3.593   2.240  15.789  1.2818 -0.1816 -0.1617
11251TIP3    H255245   3.532   2.326  15.680 -0.2300 -0.1211  0.7192
11252TIP3   OH255246   2.776   5.160   5.615  0.5622  0.0163 -0.4146
11252TIP3    H155247   2.839   5.105   5.662  1.1765  0.2408 -0.9733
11252TIP3    H255248   2.770   5.240   5.667 -0.7435 -0.7788  0.6946
11253TIP3   OH255249   5.645   1.477   2.376 -0.3542  0.2468 -0.2063
11253TIP3    H155250   5.632   1.504   2.285  0.0456  4.6568  0.9481
11253TIP3    H255251   5.557   1.470   2.412 -0.4894 -0.9322 -0.7283
11254TIP3   OH255252   5.396   0.304  12.245  0.0120  0.5849  0.1081
11254TIP3    H155253   5.364   0.347  12.324  1.4537  0.9392  0.5157
11254TIP3    H255254   5.477   0.350  12.224  1.0405 -1.2567 -0.0424
11255TIP3   OH255255   4.443   2.293   0.932 -0.2191 -0.0399  0.6612
11255TIP3    H155256   4.484   2.340   1.005  0.4233  0.7665 -0.2009
11255TIP3    H255257   4.488   2.209   0.929 -0.1179 -0.0023  1.0791
11256TIP3   OH255258   2.922   3.055   0.490  0.0174  0.1015  0.0621
11256TIP3    H155259   3.005   3.095   0.516 -0.9183  1.9343  0.3661
11256TIP3    H255260   2.856   3.123   0.508 -1.4401 -0.9855 -0.9903
11257TIP3   OH255261   0.104   2.191   1.589 -0.4008  0.0945  0.6926
11257TIP3    H155262   0.105   2.236   1.673  2.0713  1.8024 -0.1871
11257TIP3    H255263   0.124   2.099   1.611 -2.0060  0.0689  2.1503
11258TIP3   OH255264   6.225   0.181  15.250  0.2400  0.4724 -0.0413
11258TIP3    H155265   6.316   0.158  15.267  0.6507  1.5854 -0.7138
11258TIP3    H255266   6.229   0.260  15.197 -1.1471  1.1443  0.8204
11259TIP3   OH255267   2.306   4.609  13.420 -1.0549  0.4762  0.1715
11259TIP3    H155268   2.268   4.522  13.432  0.8959 -0.4899 -0.4649
11259TIP3    H255269   2.233   4.663  13.388 -1.7705 -1.4292 -1.4790
11260TIP3   OH255270   0.822   0.305   5.917 -0.1880 -0.1603  0.4822
11260TIP3    H155271   0.853   0.396   5.908  2.1591 -0.5975  3.1511
11260TIP3    H255272   0.903   0.254   5.925 -1.4550 -2.6827 -2.2542
11261TIP3   OH255273   5.309   6.130  11.732  0.2609 -0.1162  0.1474
11261TIP3    H155274   5.302   6.205  11.791 -2.5650  0.8012 -1.2363
11261TIP3    H255275   5.268   6.058  11.780 -2.4163  0.7306 -0.7765
11262TIP3   OH255276   4.332   5.529   3.105  0.5094 -0.1921 -0.0104
11262TIP3    H155277   4.418   5.487   3.117  0.5372 -0.6055 -1.5335
11262TIP3    H255278   4.339   5.575   3.021 -0.7597 -0.2440 -0.1570
11263TIP3   OH255279   3.778   0.382   4.782  0.0389 -0.0649  0.4081
11263TIP3    H155280   3.858   0.434   4.785 -0.1980  0.4160 -1.1775
11263TIP3    H255281   3.729   0.418   4.708 -0.7623 -1.6315  0.1622
11264TIP3   OH255282   6.519   2.692  12.394 -0.3133  0.7320 -0.1141
11264TIP3    H155283   6.576   2.762  12.426 -0.3466  0.6665  0.0850
11264TIP3    H255284   6.430   2.725  12.407 -0.3370  0.4659  0.3993
11265TIP3   OH255285   0.111   0.861  13.090  0.0344 -0.3378  0.3561
11265TIP3    H155286   0.133   0.846  12.998  0.1703 -0.6195  0.4368
11265TIP3    H255287   0.183   0.915  13.123  1.6357 -2.8968  1.1482
11266TIP3   OH255288   5.516   0.813  15.443  0.6497  0.0816 -0.3471
11266TIP3    H155289   5.514   0.720  15.468 -1.9647  0.3522  0.6800
11266TIP3    H255290   5.607   0.830  15.419  1.2442 -2.6523 -0.1800
11267TIP3   OH255291   2.434   2.393   4.740 -0.3285 -0.2156 -0.1013
11267TIP3    H155292   2.497   2.332   4.778 -0.7505 -1.3025 -1.1176
11267TIP3    H255293   2.383   2.424   4.815  1.2674  0.5093  0.6938
11268TIP3   OH255294   5.613   6.770  17.182  0.4791 -0.1133  0.2585
11268TIP3    H155295   5.569   6.819  17.252 -2.4203 -0.9317 -0.8926
11268TIP3    H255296   5.587   6.816  17.102  2.3908 -0.1902 -0.4324
11269TIP3   OH255297   1.176   6.538   0.173  0.2268  0.1141 -0.1258
11269TIP3    H155298   1.151   6.448   0.196 -4.3316  1.4187  0.5817
11269TIP3    H255299   1.178   6.584   0.257  2.3088  0.7760 -0.5087
11270TIP3   OH255300   1.279   0.651   1.039  0.4743 -0.0735  0.4799
11270TIP3    H155301   1.260   0.642   1.132 -0.6598  0.3147  0.2903
11270TIP3    H255302   1.283   0.745   1.024 -2.4447 -0.0598 -0.4632
11271TIP3   OH255303   5.652   3.018  13.486  0.1669 -0.6809 -0.1569
11271TIP3    H155304   5.729   2.977  13.446  1.0129  0.6671  0.0528
11271TIP3    H255305   5.657   2.992  13.578  1.7411  1.3588  0.3763
11272TIP3   OH255306   4.848   6.765  13.368  0.1671  0.2444 -0.1139
11272TIP3    H155307   4.877   6.833  13.307 -0.3775  1.2957  0.7691
11272TIP3    H255308   4.828   6.690  13.313 -0.3186  1.1771 -1.2404
11273TIP3   OH255309   4.737   5.696   6.285 -0.1862  0.1502 -0.4200
11273TIP3    H155310   4.749   5.631   6.355 -1.4584  0.1877 -0.1669
11273TIP3    H255311   4.740   5.780   6.329  3.7468  0.4507 -1.0205
11274TIP3   OH255312   3.084   0.614  16.120 -0.0622 -0.1032 -0.1719
11274TIP3    H155313   3.058   0.524  16.142  0.2824 -0.3229 -0.6646
11274TIP3    H255314   3.073   0.662  16.202 -0.0434 -0.6395  0.1506
11275TIP3   OH255315   3.004   5.621  14.429 -0.2295  0.1720  0.1034
11275TIP3    H155316   2.988   5.646  14.520  1.5046 -2.5616  1.2042
11275TIP3    H255317   2.969   5.532  14.422  0.4855  0.0062 -1.6628
11276TIP3   OH255318   0.261   6.714  15.632 -0.0292  0.1692 -1.0088
11276TIP3    H155319   0.223   6.768  15.702 -0.4473 -0.6192 -0.6245
11276TIP3    H255320   0.237   6.625  15.656  1.1680 -0.2397 -1.3204
11277TIP3   OH255321   3.037   4.504   0.699 -0.2563  0.1697  0.1234
11277TIP3    H155322   3.125   4.531   0.675 -0.4375  1.5493  0.9644
11277TIP3    H255323   3.002   4.577   0.749 -1.6532 -0.6277  0.3465
11278TIP3   OH255324   2.818   4.390  10.935 -0.9677  0.1135 -0.2240
11278TIP3    H155325   2.810   4.311  10.881 -1.9533  0.7298 -0.9819
11278TIP3    H255326   2.886   4.442  10.892  2.0416 -1.7497  2.0722
11279TIP3   OH255327   2.173   5.321   2.175 -0.2566  0.3736 -0.0862
11279TIP3    H155328   2.232   5.395   2.189  0.8974 -0.2794 -1.4271
11279TIP3    H255329   2.176   5.271   2.257  0.7484  0.5614 -0.0113
11280TIP3   OH255330   6.732   2.864  10.967 -0.0544  0.1126  0.4529
11280TIP3    H155331   6.671   2.807  10.921  0.8749  0.4807 -1.2598
11280TIP3    H255332   6.777   2.806  11.029 -1.6472 -0.2802  1.2711
11281TIP3   OH255333   2.316   4.944   5.221 -0.1847  0.5953 -0.3396
11281TIP3    H155334   2.305   4.864   5.168 -1.8269  0.8153 -0.3620
11281TIP3    H255335   2.410   4.949   5.238 -0.0473 -1.2805 -0.4451
11282TIP3   OH255336   1.335   0.005  14.376 -0.2494  0.0688  0.1579
11282TIP3    H155337   1.399   0.041  14.315  0.4537 -0.3859  0.6181
11282TIP3    H255338   1.386  -0.053  14.433 -0.8455  0.7000  1.3546
11283TIP3   OH255339   5.533   5.689  16.173 -0.0953  0.3697 -0.1189
11283TIP3    H155340   5.473   5.615  16.177 -0.5004  0.7632  1.2566
11283TIP3    H255341   5.493   5.749  16.108 -0.3790 -0.0713 -0.3522
11284TIP3   OH255342   6.363   4.482  15.636 -0.3861  0.1696  0.0317
11284TIP3    H155343   6.272   4.473  15.664 -0.5605 -1.2249 -0.9591
11284TIP3    H255344   6.402   4.541  15.701 -1.9622  0.7052  0.5092
11285TIP3   OH255345   5.401   5.253  16.511  0.0479  0.5404  0.5922
11285TIP3    H155346   5.363   5.327  16.557  1.0618  0.1268  2.1430
11285TIP3    H255347   5.496   5.263  16.522  0.1868 -1.1314  1.0888
11286TIP3   OH255348   0.096   3.902   6.178 -0.1434  0.0261  0.5440
11286TIP3    H155349   0.048   3.819   6.171  0.3517 -0.2728  0.6288
11286TIP3    H255350   0.038   3.959   6.229 -0.6941 -0.1096  0.0688
11287TIP3   OH255351   4.919   1.499   6.068  0.4010 -0.0876 -0.5444
11287TIP3    H155352   4.935   1.448   6.147  0.1258  0.2011 -0.2991
11287TIP3    H255353   4.887   1.584   6.100 -1.5405 -0.6192 -1.0170
11288TIP3   OH255354   3.638   2.266  14.467 -0.2263 -0.2232 -0.1870
11288TIP3    H155355   3.577   2.339  14.462  0.7415  0.5393 -1.1703
11288TIP3    H255356   3.610   2.205  14.398  0.3838  0.3328 -0.9298
11289TIP3   OH255357   2.719   0.633  11.357  0.0418 -0.2560  0.6650
11289TIP3    H155358   2.708   0.541  11.380 -1.0652 -0.7517 -1.6323
11289TIP3    H255359   2.693   0.637  11.264 -1.2048  2.6142  1.0968
11290TIP3   OH255360   4.920   5.350   4.052 -0.0109 -0.0401 -0.0929
11290TIP3    H155361   4.890   5.316   4.136  0.1491 -0.4586 -0.2035
11290TIP3    H255362   4.914   5.445   4.061 -1.6496 -0.1159 -0.2150
11291TIP3   OH255363   3.266   1.024   6.149 -0.0204  0.5935  0.1629
11291TIP3    H155364   3.222   1.011   6.233  0.9347  2.7642  1.0554
11291TIP3    H255365   3.204   1.075   6.097 -0.9388 -1.4281 -0.7853
11292TIP3   OH255366   4.977   4.689  12.104  0.3355  0.2338 -0.2435
11292TIP3    H155367   5.000   4.745  12.030  1.4988 -0.3768 -0.3493
11292TIP3    H255368   4.979   4.600  12.068  1.8567 -0.1435  0.7507
11293TIP3   OH255369   5.066   5.379   5.114 -0.1050 -0.0999 -0.0974
11293TIP3    H155370   5.148   5.399   5.159 -0.5107 -0.0335  0.6250
11293TIP3    H255371   5.002   5.437   5.155 -0.2383  0.8597 -1.6240
11294TIP3   OH255372   3.016   1.646  10.825 -0.0103 -0.1831 -0.3318
11294TIP3    H155373   2.991   1.555  10.807 -1.9534 -0.4172  2.9539
11294TIP3    H255374   2.980   1.696  10.752 -1.0144 -1.8008 -0.9733
11295TIP3   OH255375   3.074   2.952   2.064  0.5222 -0.5082 -0.2722
11295TIP3    H155376   2.999   2.997   2.027  0.8298  0.4553  0.2453
11295TIP3    H255377   3.105   3.011   2.134  2.8100 -0.0353 -1.6059
11296TIP3   OH255378   1.825   2.221   1.981 -0.0587  0.6071 -0.2728
11296TIP3    H155379   1.788   2.292   1.928  1.2184  0.1616 -1.8156
11296TIP3    H255380   1.905   2.196   1.934  1.0743  0.1477  1.8520
11297TIP3   OH255381   1.623   4.561  14.892 -0.4179  0.2740  0.5030
11297TIP3    H155382   1.706   4.569  14.844 -1.0686  0.7302 -0.5493
11297TIP3    H255383   1.640   4.606  14.975  0.2739  0.7155  0.1330
11298TIP3   OH255384   6.145   2.921   0.498 -0.5425  0.3482 -0.2599
11298TIP3    H155385   6.151   2.898   0.591 -0.5627 -0.2528 -0.4096
11298TIP3    H255386   6.214   2.986   0.485  0.3660 -0.5789 -0.1372
11299TIP3   OH255387   0.282   2.628  12.627  0.4039 -0.0830 -0.1503
11299TIP3    H155388   0.213   2.692  12.608  0.4805 -0.0496 -0.3150
11299TIP3    H255389   0.290   2.577  12.547  0.0711 -0.5533  0.1143
11300TIP3   OH255390   0.319   5.635   1.303  0.9516 -0.1363  0.1999
11300TIP3    H155391   0.273   5.714   1.333 -0.0231 -0.0362 -1.5093
11300TIP3    H255392   0.409   5.665   1.288  0.4683  0.8068 -0.9579
11301TIP3   OH255393   0.392   0.540  16.503  0.2111 -0.3939 -0.0619
11301TIP3    H155394   0.453   0.476  16.539  0.6172  0.3645  0.6240
11301TIP3    H255395   0.420   0.552  16.413  0.4284 -0.8254 -0.0505
11302TIP3   OH255396   1.436   3.902  17.084 -0.2423  0.0126  0.1171
11302TIP3    H155397   1.478   3.988  17.087  1.8682 -1.0370  2.0668
11302TIP3    H255398   1.500   3.846  17.040  0.5467 -1.6613  3.2875
11303TIP3   OH255399   3.390   1.405  13.173 -0.2751  0.1742 -0.0257
11303TIP3    H155400   3.359   1.494  13.160  0.3228  0.2902 -0.7134
11303TIP3    H255401   3.319   1.361  13.220 -0.2491  1.2197  1.0298
11304TIP3   OH255402   5.156   0.355  13.666  0.0895  0.3250 -0.4124
11304TIP3    H155403   5.098   0.315  13.601  1.4648 -1.7957 -0.3901
11304TIP3    H255404   5.099   0.411  13.718 -1.6993 -0.7476 -1.1722
11305TIP3   OH255405   5.389   5.033  15.225 -0.4213 -0.2495  0.1384
11305TIP3    H155406   5.358   5.075  15.145 -3.8340 -0.4108  1.2807
11305TIP3    H255407   5.398   4.941  15.201 -0.2429 -0.0893 -0.4109
11306TIP3   OH255408   4.137   6.589  15.672 -0.2712 -0.1511 -0.2016
11306TIP3    H155409   4.120   6.681  15.689 -2.9001 -0.6153 -0.0882
11306TIP3    H255410   4.228   6.576  15.699 -0.6149  1.8407  2.1417
11307TIP3   OH255411   0.465   0.927  17.271 -0.1482  0.5840  0.1210
11307TIP3    H155412   0.393   0.880  17.229 -1.4792  0.0270  2.9255
11307TIP3    H255413   0.444   0.924  17.364  1.4421  3.9421  0.6415
11308TIP3   OH255414   4.735   1.965   4.982 -0.2081  0.3789 -0.2576
11308TIP3    H155415   4.757   1.872   4.989 -1.1935 -0.0593 -2.3862
11308TIP3    H255416   4.688   1.985   5.063  1.2698 -0.6045  0.8590
11309TIP3   OH255417   2.041   5.202   5.782 -0.2268 -0.3119 -0.5881
11309TIP3    H155418   2.119   5.205   5.837 -0.2727 -0.0810 -0.5371
11309TIP3    H255419   1.975   5.159   5.836 -0.4271  0.3874 -0.2713
11310TIP3   OH255420   4.547   0.881   6.118  0.8276  0.1829  0.1819
11310TIP3    H155421   4.597   0.807   6.152  1.7887  0.5785 -0.3475
11310TIP3    H255422   4.554   0.948   6.186  1.2462  0.3327 -0.0067
11311TIP3   OH255423   3.251   1.436  10.750 -0.2744 -0.3016 -0.0749
11311TIP3    H155424   3.190   1.501  10.785  1.8655  1.3064  0.7888
11311TIP3    H255425   3.338   1.470  10.773  1.0736 -1.1844 -3.5576
11312TIP3   OH255426   6.097   3.742  11.872  0.2956  0.1892  0.4178
11312TIP3    H155427   6.014   3.698  11.852 -0.1343  1.0270  0.3054
11312TIP3    H255428   6.140   3.685  11.936 -0.3303 -0.2962  0.4138
11313TIP3   OH255429   5.156   4.239   2.807 -0.4322  0.9974 -0.0490
11313TIP3    H155430   5.127   4.157   2.848  1.5612  1.0046  1.4442
11313TIP3    H255431   5.075   4.285   2.787 -1.5483 -0.5375  0.7934
11314TIP3   OH255432   3.006   5.944  13.502 -0.0656  0.2530  0.2546
11314TIP3    H155433   3.091   5.902  13.488  0.1845  1.1528 -1.0759
11314TIP3    H255434   2.948   5.872  13.528  0.5054 -0.8231 -1.3226
11315TIP3   OH255435   3.979   2.788   0.346  0.3627  0.4326 -0.3781
11315TIP3    H155436   3.887   2.796   0.321  0.2608 -0.1178 -0.1937
11315TIP3    H255437   4.007   2.705   0.309 -0.1412 -0.9999  2.3308
11316TIP3   OH255438   1.107   1.043  11.435  1.0135 -0.5696 -0.5583
11316TIP3    H155439   1.068   1.044  11.348  0.7640  0.0767 -0.4422
11316TIP3    H255440   1.200   1.061  11.420  1.0942 -1.1320 -0.7493
11317TIP3   OH255441   6.326   3.404  11.679  0.1208 -0.7611 -0.3600
11317TIP3    H155442   6.420   3.415  11.663  0.1497  1.5963  1.1473
11317TIP3    H255443   6.290   3.492  11.671 -1.7438 -1.4185  0.4407
11318TIP3   OH255444   5.188   4.401   0.219 -0.2953 -0.2617  0.1896
11318TIP3    H155445   5.126   4.345   0.173  0.2184 -0.6534 -0.0249
11318TIP3    H255446   5.148   4.417   0.304 -0.9813 -0.0037 -0.1819
11319TIP3   OH255447   6.262   1.944  14.373 -0.2641 -0.1396 -0.1045
11319TIP3    H155448   6.209   2.024  14.369 -0.0116  0.0771  0.7791
11319TIP3    H255449   6.311   1.952  14.455  0.5557 -0.7067 -0.5295
11320TIP3   OH255450   3.142   2.895  11.978 -0.4609 -0.4695  0.1146
11320TIP3    H155451   3.060   2.913  12.024  0.2667 -0.6197  1.5123
11320TIP3    H255452   3.202   2.866  12.047  1.4027  1.6737 -0.5540
11321TIP3   OH255453   5.975   5.095  15.652 -0.1979  0.1410  0.1152
11321TIP3    H155454   5.906   5.148  15.693 -0.7161 -2.0563  2.1849
11321TIP3    H255455   6.055   5.126  15.694 -0.2297  0.8593 -0.3444
11322TIP3   OH255456   0.265   5.136  15.631 -0.6743  0.3072 -0.0498
11322TIP3    H155457   0.229   5.175  15.710 -0.9424  0.9282 -0.4771
11322TIP3    H255458   0.359   5.150  15.638 -0.5038 -1.2698  1.0401
11323TIP3   OH255459   2.800   3.896   2.843 -0.0607 -0.5010 -0.1888
11323TIP3    H155460   2.801   3.925   2.934  1.5594 -3.5554  0.8470
11323TIP3    H255461   2.890   3.906   2.814 -0.8287  1.6717 -1.8996
11324TIP3   OH255462   5.589   0.395  15.123 -0.3314  0.1711 -0.2930
11324TIP3    H155463   5.606   0.320  15.181  1.6114  1.4324  0.8067
11324TIP3    H255464   5.647   0.382  15.048 -0.9700 -0.0995 -0.7516
11325TIP3   OH255465   5.823   5.595  13.806 -0.5703  0.3550  0.4346
11325TIP3    H155466   5.841   5.588  13.712  0.5416 -0.6175  0.7145
11325TIP3    H255467   5.793   5.685  13.817 -0.3937  0.5857 -0.8027
11326TIP3   OH255468   3.508   5.606   0.877 -0.0980 -0.5199 -0.1373
11326TIP3    H155469   3.436   5.648   0.829 -0.5597  0.6793  1.5636
11326TIP3    H255470   3.496   5.635   0.967  1.3652 -1.9244  0.5178
11327TIP3   OH255471   4.315   5.466  11.698 -0.0953  0.3506  0.7569
11327TIP3    H155472   4.331   5.471  11.793  0.1952  0.8449  0.6829
11327TIP3    H255473   4.311   5.557  11.669  1.7649  0.2122 -0.0237
11328TIP3   OH255474   6.500   6.508  14.788  0.1367  0.0275  0.2279
11328TIP3    H155475   6.536   6.562  14.859 -1.5363 -1.5606  2.3343
11328TIP3    H255476   6.482   6.424  14.828 -0.9037 -0.9017 -2.0990
11329TIP3   OH255477   3.203   1.841   1.776 -0.2721  0.1844  0.1794
11329TIP3    H155478   3.230   1.769   1.719  0.4417  1.5216 -1.2301
11329TIP3    H255479   3.207   1.919   1.719 -0.9329  1.3467  1.6853
11330TIP3   OH255480   4.144   6.705  12.228  0.6261 -0.3523  0.7873
11330TIP3    H155481   4.082   6.769  12.194  2.1956  0.8170  0.0627
11330TIP3    H255482   4.124   6.624  12.181 -1.5768 -0.5005  1.9393
11331TIP3   OH255483   1.630   2.316   4.090 -0.8164 -0.6862  0.5900
11331TIP3    H155484   1.715   2.325   4.047 -1.3436  1.6975 -0.0670
11331TIP3    H255485   1.641   2.361   4.174 -1.2171 -0.9574  0.7851
11332TIP3   OH255486   0.742   4.625  13.782  0.4539  0.5249  0.4261
11332TIP3    H155487   0.764   4.569  13.857  3.1017  0.1408 -0.5532
11332TIP3    H255488   0.782   4.580  13.707 -1.0872  1.5457 -1.0319
11333TIP3   OH255489   1.855   4.536  16.714  0.1107 -0.7132  0.0672
11333TIP3    H155490   1.891   4.562  16.800 -1.2459 -1.3674  0.8416
11333TIP3    H255491   1.926   4.486  16.673  1.3902  1.0170  0.1049
11334TIP3   OH255492   2.631   4.783   1.470  0.1677  0.1778  0.1139
11334TIP3    H155493   2.565   4.824   1.527 -0.2343 -0.4584  0.1125
11334TIP3    H255494   2.705   4.766   1.527 -0.7891 -1.8203  0.8071
11335TIP3   OH255495   1.718   5.674   0.144 -0.5517 -0.0986  0.3213
11335TIP3    H155496   1.742   5.665   0.052  1.4263  0.6919  0.7435
11335TIP3    H255497   1.730   5.587   0.181 -2.8225 -0.7942 -0.4655
11336TIP3   OH255498   6.088   0.896  12.411 -0.0938 -0.1398 -0.3622
11336TIP3    H155499   6.016   0.942  12.366  0.1266 -0.9191 -1.5500
11336TIP3    H255500   6.044   0.838  12.473 -0.4329  0.4331 -0.0536
11337TIP3   OH255501   6.055   4.203  14.947 -0.1597  0.0258 -0.1149
11337TIP3    H155502   6.031   4.254  15.025 -2.4448 -0.2014 -0.6490
11337TIP3    H255503   6.072   4.115  14.980  1.5392  0.5503  0.4848
11338TIP3   OH255504   6.650   3.683   4.107 -0.2345  0.3701  0.1351
11338TIP3    H155505   6.695   3.638   4.179 -0.8083  0.5226  0.6017
11338TIP3    H255506   6.713   3.746   4.074  0.1580  0.0516  0.2770
11339TIP3   OH255507   4.636   5.153  11.392 -0.1526  0.0282 -0.9002
11339TIP3    H155508   4.695   5.221  11.360  0.6842 -1.6470 -2.9684
11339TIP3    H255509   4.587   5.196  11.463  2.3381  1.9250 -0.2706
11340TIP3   OH255510   5.937   2.237  14.495 -0.3834 -0.5268  0.9320
11340TIP3    H155511   5.946   2.290  14.416 -0.8759 -0.4478  0.9287
11340TIP3    H255512   5.859   2.271  14.539 -1.2068 -1.7896  0.4956
11341TIP3   OH255513   6.209   2.184  14.482 -0.0619 -0.3895 -0.2843
11341TIP3    H155514   6.139   2.242  14.450  2.0788  2.4203 -0.1119
11341TIP3    H255515   6.197   2.182  14.576  0.1867  0.2669 -0.2322
11342TIP3   OH255516   2.542   5.833  13.225  0.3834 -0.5168 -0.1832
11342TIP3    H155517   2.479   5.876  13.168 -0.2205 -1.3969 -0.1859
11342TIP3    H255518   2.616   5.893  13.228 -1.0703  1.2744  1.0572
11343TIP3   OH255519   5.706   2.902   4.262 -0.6834  0.3318 -0.2106
11343TIP3    H155520   5.672   2.880   4.176  0.3654 -0.8943 -0.3316
11343TIP3    H255521   5.632   2.889   4.322 -0.7681 -1.1532 -0.6172
11344TIP3   OH255522   5.648   2.383  14.154  0.2291  0.2579  0.6207
11344TIP3    H155523   5.614   2.365  14.066  1.1111 -0.2713  0.3808
11344TIP3    H255524   5.743   2.386  14.143  0.3793 -0.3800  1.6569
11345TIP3   OH255525   5.187   1.497  12.963  0.4546 -0.0630 -0.2707
11345TIP3    H155526   5.129   1.421  12.966  0.7815 -0.3497 -1.0184
11345TIP3    H255527   5.273   1.460  12.943  0.4234  0.6037 -1.6649
11346TIP3   OH255528   4.436   0.528   0.634  0.2397  0.3376 -0.1330
11346TIP3    H155529   4.476   0.614   0.649 -2.1467  1.5578 -0.5480
11346TIP3    H255530   4.356   0.529   0.687 -0.0805 -1.4314 -0.5487
11347TIP3   OH255531   1.823   6.530  13.490 -0.3922 -0.3364  0.1266
11347TIP3    H155532   1.879   6.607  13.487  1.4275 -1.5769  0.9791
11347TIP3    H255533   1.739   6.560  13.458  1.1859  1.2127 -2.7468
11348TIP3   OH255534   1.846   3.653  15.258 -0.0657  0.4286 -0.2008
11348TIP3    H155535   1.805   3.719  15.313 -0.7656 -0.3444  0.2189
11348TIP3    H255536   1.878   3.701  15.182 -1.7619  1.0458 -0.5404
11349TIP3   OH255537   2.782   4.823   2.016  0.3873 -0.5863  0.3621
11349TIP3    H155538   2.745   4.866   1.939 -0.4564 -1.4210  0.3080
11349TIP3    H255539   2.722   4.752   2.036  0.8214 -0.6330  1.5488
11350TIP3   OH255540   1.995   5.289  12.943  0.6538 -0.1449 -0.1453
11350TIP3    H155541   2.050   5.254  12.873  1.4788  1.4131 -0.3066
11350TIP3    H255542   1.974   5.378  12.914  0.4368  0.2762  1.2669
11351TIP3   OH255543   2.126   4.922   2.742 -0.0643 -0.4199 -0.3255
11351TIP3    H155544   2.063   4.961   2.803  1.2196 -1.2895  1.6325
11351TIP3    H255545   2.071   4.873   2.680 -1.4374  0.9143 -0.2027
11352TIP3   OH255546   6.229   0.735  17.000 -0.8009 -0.7058 -0.2780
11352TIP3    H155547   6.279   0.742  16.918  1.4240  0.9302  1.1510
11352TIP3    H255548   6.159   0.799  16.990  1.2452  1.7193  0.2355
11353TIP3   OH255549   1.437   3.873   1.999 -0.5398 -0.5906  0.1261
11353TIP3    H155550   1.397   3.805   1.945 -0.6672 -0.3404 -0.0986
11353TIP3    H255551   1.529   3.848   2.006 -0.3814 -0.2735 -0.7598
11354TIP3   OH255552   5.783   0.852  11.166  0.7787  0.1043 -0.1379
11354TIP3    H155553   5.791   0.945  11.145  0.4079  0.6321  1.9644
11354TIP3    H255554   5.694   0.843  11.199  0.7305 -1.0694 -0.5582
11355TIP3   OH255555   4.158   5.967  14.280  0.2785 -0.3971 -0.6694
11355TIP3    H155556   4.175   5.892  14.224  2.1857  0.0641 -0.7389
11355TIP3    H255557   4.083   5.941  14.334  1.9324 -2.9589  0.4567
11356TIP3   OH255558   2.026   5.261   5.109 -0.0555  0.3382  0.2823
11356TIP3    H155559   2.029   5.169   5.082 -1.2940  0.5989 -0.8092
11356TIP3    H255560   2.115   5.293   5.097 -0.1302 -0.1015 -1.6441
11357TIP3   OH255561   3.799   0.689   4.181 -0.1308 -0.3205 -0.1759
11357TIP3    H155562   3.721   0.634   4.185  0.0247 -0.7530 -2.4389
11357TIP3    H255563   3.802   0.720   4.091  2.6869 -0.8621 -0.3191
11358TIP3   OH255564   6.143   2.776  13.293  0.3370 -0.1477 -0.1495
11358TIP3    H155565   6.142   2.690  13.251  2.1502 -1.0068  1.4997
11358TIP3    H255566   6.198   2.765  13.370 -0.2659  2.2376  0.6779
11359TIP3   OH255567   5.668   4.328   4.338 -0.1260 -0.1301 -0.0479
11359TIP3    H155568   5.617   4.369   4.268 -0.9938 -1.3673 -0.1586
11359TIP3    H255569   5.736   4.279   4.292  0.2582  0.3181  0.0419
11360TIP3   OH255570   5.095   2.089   2.057 -0.0761  0.2857  0.1522
11360TIP3    H155571   5.073   2.132   2.139  0.0789  0.3015  0.1850
11360TIP3    H255572   5.188   2.068   2.064 -0.4016 -1.0863  0.6086
11361TIP3   OH255573   5.502   3.394  12.933  0.1121 -0.2822 -0.0572
11361TIP3    H155574   5.433   3.452  12.968  1.1391  0.7675  0.2699
11361TIP3    H255575   5.468   3.365  12.849  1.3195  4.2059 -2.2725
11362TIP3   OH255576   4.786   1.487  17.139  0.6636 -0.0197  0.3263
11362TIP3    H155577   4.719   1.552  17.161  2.4381  1.0313  2.9168
11362TIP3    H255578   4.781   1.423  17.210  1.7382 -0.4635  0.0099
11363TIP3   OH255579   5.137   4.525   3.140 -0.2030  0.5916  0.0143
11363TIP3    H155580   5.088   4.571   3.072 -0.9927  1.1280  0.9261
11363TIP3    H255581   5.081   4.451   3.165  0.7472 -0.4805 -0.9505
11364TIP3   OH255582   4.426   0.273   3.250 -0.3560 -0.1474 -1.0423
11364TIP3    H155583   4.342   0.268   3.296 -0.0856  1.1470 -0.3807
11364TIP3    H255584   4.469   0.190   3.270  0.1069  0.7161  1.8202
11365TIP3   OH255585   1.834   0.891   6.530 -0.2522  0.7205  0.3016
11365TIP3    H155586   1.907   0.909   6.471 -0.6843  0.7844 -0.2289
11365TIP3    H255587   1.834   0.796   6.541  0.4259  0.7959  0.9875
11366TIP3   OH255588   2.075   1.159   5.898  0.4505  0.0092  0.4077
11366TIP3    H155589   2.162   1.169   5.861  0.7878 -0.4200  1.0738
11366TIP3    H255590   2.079   1.204   5.982 -0.7502  2.3183 -0.7139
11367TIP3   OH255591   6.049   2.310   3.323 -0.6172 -0.1832  0.5238
11367TIP3    H155592   6.085   2.239   3.270 -2.1038 -0.7529  0.2380
11367TIP3    H255593   6.020   2.267   3.404 -2.5526 -0.1191 -0.1132
11368TIP3   OH255594   0.735   0.878  12.073 -0.0490 -0.0739  0.1030
11368TIP3    H155595   0.713   0.789  12.103 -0.7214  0.4945  1.3512
11368TIP3    H255596   0.665   0.901  12.012 -0.3243 -0.0877  0.4129
11369TIP3   OH255597   3.031   0.291   0.675 -0.0293 -0.0521  0.6499
11369TIP3    H155598   3.000   0.301   0.765 -0.5935 -1.1990  0.5956
11369TIP3    H255599   3.032   0.196   0.661  2.0711  0.0084  0.1492
11370TIP3   OH255600   6.438   4.430  10.891  0.3697 -0.4818 -1.0797
11370TIP3    H155601   6.502   4.497  10.866  0.3688  0.1562  0.5834
11370TIP3    H255602   6.362   4.448  10.835  0.6033  0.5029 -1.0951
11371TIP3   OH255603   5.382   4.192  15.230  0.1816 -0.0023 -0.4045
11371TIP3    H155604   5.386   4.272  15.178 -0.7584  1.4176  1.6200
11371TIP3    H255605   5.389   4.222  15.321 -1.4295 -2.0840  0.4498
11372TIP3   OH255606   3.397   0.273   2.456 -0.2147  0.4920  0.0803
11372TIP3    H155607   3.397   0.314   2.542 -1.3764 -1.1962  0.9037
11372TIP3    H255608   3.459   0.200   2.464 -0.4279  0.2443 -0.4771
11373TIP3   OH255609   4.057   6.466   1.933  0.1771 -0.4916  0.4174
11373TIP3    H155610   4.086   6.557   1.930  0.0702 -0.4767 -0.4854
11373TIP3    H255611   4.059   6.438   1.841  0.8857 -1.6176  0.7684
11374TIP3   OH255612   6.604   4.651  14.328  0.1199 -0.2655 -0.1314
11374TIP3    H155613   6.672   4.607  14.277 -0.3262 -0.7759 -0.2876
11374TIP3    H255614   6.642   4.737  14.350  0.0293  0.2557 -1.9579
11375TIP3   OH255615   0.723   2.788   1.685 -0.5476 -0.1202 -0.0494
11375TIP3    H155616   0.795   2.793   1.749  0.9076  0.4963 -1.6960
11375TIP3    H255617   0.763   2.813   1.602 -2.7428  0.4542 -0.9697
11376TIP3   OH255618   1.369   5.911   3.966 -0.4662 -0.8812  0.0430
11376TIP3    H155619   1.460   5.888   3.947 -0.0845  1.5353 -1.3051
11376TIP3    H255620   1.376   5.979   4.034 -1.2768 -0.9030  0.1477
11377TIP3   OH255621   5.377   0.473  16.494 -0.1502 -0.1096  0.1217
11377TIP3    H155622   5.343   0.396  16.448  0.7814 -0.1198 -0.5756
11377TIP3    H255623   5.310   0.540  16.483 -0.2520 -0.3351 -0.6524
11378TIP3   OH255624   2.407   6.418   4.289 -0.3685 -0.5552  0.6980
11378TIP3    H155625   2.493   6.457   4.271 -0.4434 -0.0126  1.5160
11378TIP3    H255626   2.396   6.427   4.384 -1.3032 -0.6898  0.6038
11379TIP3   OH255627   5.090   4.763  13.124  0.1676 -0.6144  0.1147
11379TIP3    H155628   5.041   4.724  13.197 -1.2747 -1.5035 -1.3160
11379TIP3    H255629   5.025   4.779  13.057  1.4334  0.5858 -0.8464
11380TIP3   OH255630   3.666   4.162   0.683  0.2201  0.1290  0.2266
11380TIP3    H155631   3.706   4.102   0.620 -1.0624 -1.2521  0.6929
11380TIP3    H255632   3.733   4.177   0.749  0.5772 -0.7690  0.0755
11381TIP3   OH255633   3.135   6.068   6.867  0.1740  0.3889  0.2278
11381TIP3    H155634   3.066   6.038   6.808  0.4673 -2.4174  1.2398
11381TIP3    H255635   3.216   6.049   6.819  0.3958 -1.4761  1.2822
11382TIP3   OH255636   1.567   3.797  12.924  0.0300  0.6998  0.3724
11382TIP3    H155637   1.591   3.713  12.962  1.3942  0.4733 -0.9640
11382TIP3    H255638   1.494   3.827  12.978  1.3524 -0.0056  2.6138
11383TIP3   OH255639   6.687   2.700   0.173 -0.1456  0.2798 -0.0099
11383TIP3    H155640   6.694   2.742   0.087 -0.2642  0.6300  0.1514
11383TIP3    H255641   6.773   2.660   0.187 -0.1838  0.0624 -0.3726
11384TIP3   OH255642   6.428   5.944   5.757 -0.4165  0.0842 -0.0161
11384TIP3    H155643   6.465   6.000   5.689  0.2826 -1.0895 -0.6181
11384TIP3    H255644   6.500   5.929   5.818 -0.5736 -0.2348  0.0906
11385TIP3   OH255645   0.909   0.135  13.373 -0.5390 -0.2613  0.0825
11385TIP3    H155646   0.997   0.147  13.408 -0.7785  0.9125  0.2992
11385TIP3    H255647   0.887   0.219  13.333 -1.0487 -0.9617 -1.1345
11386TIP3   OH255648   3.741   2.312  15.204  0.3150  0.2665 -0.0390
11386TIP3    H155649   3.709   2.271  15.284 -0.9582 -0.4759 -0.9202
11386TIP3    H255650   3.713   2.403  15.210  0.6762  0.3389  0.5920
11387TIP3   OH255651   5.977   5.472   4.835  0.4366  0.2930 -0.6408
11387TIP3    H155652   6.037   5.545   4.849  2.0300 -1.0836 -0.2162
11387TIP3    H255653   5.977   5.425   4.918 -0.4514 -0.2967 -0.9741
11388TIP3   OH255654   1.329   2.117  16.940  0.3149 -0.2107 -0.1134
11388TIP3    H155655   1.270   2.157  16.876  1.6978  0.8915 -0.7205
11388TIP3    H255656   1.304   2.154  17.024  0.6954  0.9120 -0.4892
11389TIP3   OH255657   6.772   3.308   2.904 -0.5438 -0.1859 -0.4519
11389TIP3    H155658   6.697   3.271   2.949 -0.6402 -0.4524 -0.8257
11389TIP3    H255659   6.746   3.398   2.884  0.4218  0.7251  2.1631
11390TIP3   OH255660   6.371   3.366   5.124  0.0880 -0.3868 -0.0939
11390TIP3    H155661   6.363   3.428   5.052 -0.0078 -0.5877 -0.2553
11390TIP3    H255662   6.330   3.410   5.198 -0.3148 -0.4119 -0.3035
11391TIP3   OH255663   2.247   0.717  16.849 -0.4708 -0.2229 -0.3190
11391TIP3    H155664   2.304   0.722  16.772 -0.1681  0.7873 -0.0454
11391TIP3    H255665   2.287   0.779  16.911 -2.5054  1.3840 -0.5542
11392TIP3   OH255666   1.752   1.767  10.310  0.1369 -0.3235 -0.0077
11392TIP3    H155667   1.828   1.798  10.359  0.6972  0.2588 -1.2183
11392TIP3    H255668   1.705   1.846  10.286  0.0587 -0.5844 -0.7207
11393TIP3   OH255669   1.803   4.214   0.728  0.1565  0.3416  0.6352
11393TIP3    H155670   1.859   4.235   0.653  0.4610 -1.3335  0.3735
11393TIP3    H255671   1.842   4.134   0.766 -1.9570 -0.7805  0.5223
11394TIP3   OH255672   5.749   5.914   5.845  0.4203 -0.2762  0.3950
11394TIP3    H155673   5.729   5.887   5.756 -1.7313  1.4665  0.3258
11394TIP3    H255674   5.727   5.838   5.899  2.9295 -1.8038 -0.6112
11395TIP3   OH255675   6.555   1.840   4.056 -0.6764  0.6814 -0.0714
11395TIP3    H155676   6.602   1.854   4.138 -0.1436  0.9883 -0.4292
11395TIP3    H255677   6.474   1.890   4.066 -0.2100  1.4386 -0.0835
11396TIP3   OH255678   1.415   6.519  16.591  0.7204 -0.5881 -0.0040
11396TIP3    H155679   1.484   6.583  16.574 -0.6442  0.8581 -0.2861
11396TIP3    H255680   1.349   6.537  16.524 -1.3231  0.1820  2.1216
11397TIP3   OH255681   2.704   3.695  14.022  0.0271  0.4295  0.0659
11397TIP3    H155682   2.791   3.707  14.060  0.0566  1.7612 -0.3840
11397TIP3    H255683   2.718   3.694  13.927 -0.5204  1.4046 -0.0359
11398TIP3   OH255684   2.039   2.261  13.676 -0.3347  0.4988  0.1248
11398TIP3    H155685   2.132   2.284  13.681 -0.4611  1.2482 -0.7883
11398TIP3    H255686   2.010   2.295  13.592 -1.2057 -0.6158 -0.0456
11399TIP3   OH255687   1.246   1.963   5.650  0.3021 -0.3868  0.1848
11399TIP3    H155688   1.199   1.911   5.586  1.8916 -2.6089  0.7728
11399TIP3    H255689   1.280   2.038   5.601  0.9713 -1.7342 -1.4400
11400TIP3   OH255690   2.048   1.567  10.959 -0.2334  0.3067 -0.1181
11400TIP3    H155691   2.098   1.490  10.932 -1.2754 -0.4696  0.1310
11400TIP3    H255692   2.045   1.621  10.880  1.7511  0.7960  0.1103
11401TIP3   OH255693   3.665   0.732  10.927  0.3374  0.4248  0.2655
11401TIP3    H155694   3.710   0.648  10.916  0.3604  0.3251  1.0685
11401TIP3    H255695   3.641   0.734  11.020 -1.9913  0.1281 -0.2965
11402TIP3   OH255696   1.628   6.352   3.909 -0.0299  0.1069  0.2001
11402TIP3    H155697   1.719   6.381   3.908 -0.4247  1.2987 -2.0327
11402TIP3    H255698   1.634   6.256   3.912  1.2735  0.2159  1.7632
11403TIP3   OH255699   4.832   3.334   3.606  0.5170  0.6508 -0.2294
11403TIP3    H155700   4.861   3.256   3.557 -1.5436 -0.1921 -0.1514
11403TIP3    H255701   4.831   3.306   3.697 -0.3905  0.7038 -0.2163
11404TIP3   OH255702   3.119   3.021   5.068  0.4818  0.1546  0.0255
11404TIP3    H155703   3.067   2.968   5.128  0.7958  0.4673  0.5748
11404TIP3    H255704   3.210   3.006   5.095  0.6620 -0.0930 -0.6888
11405TIP3   OH255705   5.657   3.554   5.573 -0.7539 -0.2721  0.0542
11405TIP3    H155706   5.674   3.615   5.644 -1.4409 -0.8020  0.6844
11405TIP3    H255707   5.743   3.520   5.549 -0.3542  1.0429 -0.3990
11406TIP3   OH255708   6.093   5.891  17.043 -0.4800  0.0741  0.5263
11406TIP3    H155709   6.158   5.822  17.029  0.0663  0.9223 -1.2752
11406TIP3    H255710   6.009   5.849  17.025 -0.1724 -0.2126 -0.2642
11407TIP3   OH255711   2.453   2.914   1.435 -0.5043  0.0581 -0.6441
11407TIP3    H155712   2.365   2.891   1.463 -0.4497  0.5838 -0.0181
11407TIP3    H255713   2.478   2.845   1.373 -0.0135 -2.0612  1.7901
11408TIP3   OH255714   4.163   1.013   4.798  0.3957  0.5856 -0.0891
11408TIP3    H155715   4.247   1.044   4.762  0.2871  1.2527  0.2227
11408TIP3    H255716   4.100   1.081   4.774 -0.0535  0.1115 -0.2749
11409TIP3   OH255717   1.911   0.524   2.059  0.2808  0.0402  0.3469
11409TIP3    H155718   1.944   0.613   2.065 -1.6527  0.7160  1.3761
11409TIP3    H255719   1.970   0.480   1.998  2.1227  1.6135  0.9522
11410TIP3   OH255720   0.362   3.852  15.863 -0.0167  0.1328 -0.0527
11410TIP3    H155721   0.317   3.935  15.877 -0.4521 -0.3858  1.8309
11410TIP3    H255722   0.320   3.792  15.925  0.9498 -1.2274 -0.7058
11411TIP3   OH255723   2.635   3.028  10.638 -0.1612  0.8407  0.2581
11411TIP3    H155724   2.691   2.954  10.659 -1.5129 -0.3964 -0.4676
11411TIP3    H255725   2.637   3.083  10.717 -0.5669 -0.8595  1.4706
11412TIP3   OH255726   4.722   1.013  15.047  0.0337 -0.1238 -0.3313
11412TIP3    H155727   4.732   0.947  14.978 -1.1487  0.3806 -1.0067
11412TIP3    H255728   4.639   1.056  15.026 -0.8098 -0.5857  1.9487
11413TIP3   OH255729   4.838   5.548   5.267 -0.1245  0.3866 -0.3251
11413TIP3    H155730   4.874   5.598   5.341  0.1674 -1.0617  0.5250
11413TIP3    H255731   4.759   5.596   5.242  0.3143  1.4459  0.2789
11414TIP3   OH255732   6.660   0.014   5.836  0.3085 -0.1806  0.1184
11414TIP3    H155733   6.730  -0.017   5.894  0.7756  0.8796  0.1202
11414TIP3    H255734   6.692  -0.006   5.748 -0.6655 -2.3522  0.2172
11415TIP3   OH255735   5.916   0.867   2.000  0.2590 -0.1499 -0.4919
11415TIP3    H155736   6.005   0.832   1.995 -0.4188 -1.9198 -0.6897
11415TIP3    H255737   5.874   0.836   1.920  0.1168  2.6187 -1.5178
11416TIP3   OH255738   3.171   5.475   2.614  0.5790  0.4416 -0.3719
11416TIP3    H155739   3.108   5.535   2.653  1.0779  0.8469 -0.1725
11416TIP3    H255740   3.122   5.394   2.599  0.3490  0.3207  0.9946
11417TIP3   OH255741   1.584   2.596  11.685 -0.3780  0.5634 -0.2205
11417TIP3    H155742   1.603   2.578  11.593 -2.6987 -1.4480 -0.3532
11417TIP3    H255743   1.512   2.660  11.683 -1.5611 -0.7272  0.1438
11418TIP3   OH255744   4.521   0.644   3.478 -0.7410 -0.0938  0.1147
11418TIP3    H155745   4.431   0.612   3.481 -0.5394 -0.7239 -0.3519
11418TIP3    H255746   4.538   0.655   3.384  0.0493 -1.0936  0.1290
11419TIP3   OH255747   1.000   6.724   4.139  0.0850  0.8824  0.9177
11419TIP3    H155748   1.095   6.728   4.141  0.0166  3.2887  0.4771
11419TIP3    H255749   0.976   6.694   4.227  1.2469  0.1642  0.9985
11420TIP3   OH255750   1.489   2.480  17.252 -0.4161 -0.1869  0.6456
11420TIP3    H155751   1.415   2.539  17.266 -1.4985 -1.1396 -0.8853
11420TIP3    H255752   1.483   2.455  17.159  1.9627 -0.0949  0.4332
11421TIP3   OH255753   4.653   0.070  12.584 -0.2562  0.1956 -0.2543
11421TIP3    H155754   4.585   0.136  12.592 -1.2430 -0.3805 -3.0607
11421TIP3    H255755   4.682   0.077  12.493  0.7416 -2.1257 -0.1563
11422TIP3   OH255756   6.453   4.991  12.781 -0.5112 -0.2625 -0.6322
11422TIP3    H155757   6.363   4.970  12.808 -1.1149  0.5222 -1.9462
11422TIP3    H255758   6.450   5.084  12.759  0.6191 -0.2458 -0.7294
11423TIP3   OH255759   5.315   0.750  16.208 -0.4212  0.0214  0.2773
11423TIP3    H155760   5.221   0.735  16.196 -0.2832 -0.1473 -0.6134
11423TIP3    H255761   5.331   0.728  16.300 -0.9601 -1.4915  0.0228
11424TIP3   OH255762   4.847   2.612   2.765  0.1626  0.2522  0.3361
11424TIP3    H155763   4.869   2.538   2.822  1.2591 -0.8040 -1.4242
11424TIP3    H255764   4.926   2.627   2.714  0.4446  3.5324  1.5733
11425TIP3   OH255765   3.666   6.200   2.828 -0.2995 -0.2358 -0.1480
11425TIP3    H155766   3.631   6.271   2.882 -2.3792 -3.6673  3.1844
11425TIP3    H255767   3.597   6.181   2.765 -0.8014 -0.9553  0.6049
11426TIP3   OH255768   1.944   5.689  15.038 -0.1537 -0.2881 -0.2594
11426TIP3    H155769   1.989   5.658  14.959  0.0125 -0.4095 -0.1180
11426TIP3    H255770   1.973   5.780  15.048 -0.2891 -0.2282 -0.4200
11427TIP3   OH255771   4.606   6.009  12.907 -0.4404 -0.2732  0.1880
11427TIP3    H155772   4.686   6.062  12.905  0.2197 -1.1833  1.7452
11427TIP3    H255773   4.543   6.059  12.855  1.4153 -0.0101 -1.8747
11428TIP3   OH255774   1.927   6.589   3.358 -0.3016  0.1907  0.1929
11428TIP3    H155775   1.978   6.658   3.316  2.3055 -1.7448  0.0819
11428TIP3    H255776   1.856   6.572   3.296  0.1379  1.4265 -0.6766
11429TIP3   OH255777   5.975   4.141  15.880  0.1708 -0.5637  0.3946
11429TIP3    H155778   6.024   4.101  15.809 -0.1330 -0.3007  0.0285
11429TIP3    H255779   5.944   4.225  15.844 -0.0726 -0.4738  0.7977
11430TIP3   OH255780   2.937   1.187   3.188  0.4554 -0.3515  0.5165
11430TIP3    H155781   2.928   1.271   3.142 -1.1215 -1.0383 -0.4572
11430TIP3    H255782   3.007   1.142   3.140  1.0664  0.2559  0.8227
11431TIP3   OH255783   5.418   6.194   4.151  0.1673 -0.0419  0.4173
11431TIP3    H155784   5.452   6.186   4.240 -0.9928 -0.4964  0.8273
11431TIP3    H255785   5.323   6.193   4.162  0.0232 -0.8865 -0.8966
11432TIP3   OH255786   1.779   2.140  11.145 -0.7054 -0.6015 -0.0737
11432TIP3    H155787   1.739   2.095  11.071  1.6346 -0.3995 -1.4925
11432TIP3    H255788   1.845   2.080  11.177 -0.6660 -0.0422  0.9019
11433TIP3   OH255789   0.986   3.109   4.242 -0.0966 -0.5750  0.2401
11433TIP3    H155790   1.041   3.186   4.249 -2.0338  0.9320 -0.6378
11433TIP3    H255791   1.041   3.044   4.199  1.7048  0.1325  1.3994
11434TIP3   OH255792   3.139   5.016   1.968 -0.3129 -0.5706  0.2110
11434TIP3    H155793   3.117   5.107   1.988 -0.0706 -0.3528 -0.5192
11434TIP3    H255794   3.123   4.969   2.050  0.3353  0.2712  0.8245
11435TIP3   OH255795   2.181   1.844  13.329 -0.6635  0.1492  0.4603
11435TIP3    H155796   2.094   1.822  13.297  0.0304  0.8830 -2.0196
11435TIP3    H255797   2.176   1.937  13.351 -0.1418  0.5263 -0.9866
11436TIP3   OH255798   3.241   0.988  12.431 -0.1830 -1.2950 -0.0695
11436TIP3    H155799   3.273   1.072  12.465  0.2525 -2.3859  2.2792
11436TIP3    H255800   3.159   1.011  12.388 -0.9777  0.1274  2.0726
11437TIP3   OH255801   0.948   0.202  15.342  0.1291  0.1492 -0.0919
11437TIP3    H155802   0.976   0.280  15.294  1.2894 -0.0687  0.2359
11437TIP3    H255803   1.016   0.188  15.408 -0.4961 -0.6582  0.3888
11438TIP3   OH255804   2.299   5.785  16.485 -0.4919 -0.7778 -0.0920
11438TIP3    H155805   2.278   5.754  16.396  0.3467 -2.6283  0.3512
11438TIP3    H255806   2.240   5.860  16.497 -1.4974 -1.2552 -1.7438
11439TIP3   OH255807   5.462   4.212   0.837  0.1411  0.3660  0.2557
11439TIP3    H155808   5.474   4.135   0.892  0.3959 -0.2848 -0.7036
11439TIP3    H255809   5.440   4.177   0.751 -0.5482  1.3801  0.0043
11440TIP3   OH255810   4.785   3.250  11.848  0.1507  0.4315  0.5188
11440TIP3    H155811   4.705   3.233  11.797  0.3365  3.2256 -0.8124
11440TIP3    H255812   4.783   3.344  11.864  3.4710  0.6472 -0.0116
11441TIP3   OH255813   3.231   3.101   1.321  0.0108 -0.6626 -0.4950
11441TIP3    H155814   3.312   3.052   1.312  0.4766 -0.0033  0.1106
11441TIP3    H255815   3.211   3.098   1.415 -1.2298 -1.7194 -0.7678
11442TIP3   OH255816   0.844   0.691  11.839 -0.3113 -0.1288 -0.6202
11442TIP3    H155817   0.824   0.708  11.932 -0.3128  0.8093 -0.7917
11442TIP3    H255818   0.768   0.642  11.808 -2.0338  2.6895 -1.0420
11443TIP3   OH255819   1.305   0.693   3.520 -0.3103 -0.2661 -0.0280
11443TIP3    H155820   1.298   0.762   3.455 -2.2330 -0.5140 -0.1370
11443TIP3    H255821   1.226   0.640   3.507  0.1122 -1.2936  1.3931
11444TIP3   OH255822   4.227   1.217   4.499  0.0118  0.6298  0.2500
11444TIP3    H155823   4.205   1.299   4.455 -1.3543 -0.7973 -1.8040
11444TIP3    H255824   4.152   1.199   4.556 -0.0348  0.4033  0.1165
11445TIP3   OH255825   0.028   2.743   4.373  0.9389 -0.4874 -0.0651
11445TIP3    H155826   0.116   2.767   4.345  0.8420 -0.4907 -0.3772
11445TIP3    H255827  -0.027   2.816   4.342  0.6557 -1.0664 -0.9437
11446TIP3   OH255828   0.774   6.612   2.180  0.1852  0.2566  0.4853
11446TIP3    H155829   0.735   6.583   2.097  0.1655 -1.1832  0.9916
11446TIP3    H255830   0.713   6.678   2.213 -0.8316 -0.5784  0.3100
11447TIP3   OH255831   0.763   0.576  14.376  0.0618 -0.6923  0.0181
11447TIP3    H155832   0.672   0.593  14.400  0.8694  3.7647  0.3862
11447TIP3    H255833   0.774   0.620  14.292  2.4058  0.7493  1.0252
11448TIP3   OH255834   0.971   3.106   1.421  0.1666  0.0059 -0.1164
11448TIP3    H155835   1.047   3.059   1.454  0.3219 -0.8538 -1.6362
11448TIP3    H255836   0.906   3.100   1.491  1.3326  0.3600  1.0133
11449TIP3   OH255837   3.357   3.219   5.610 -0.1801  0.0397 -0.4806
11449TIP3    H155838   3.356   3.256   5.522  0.1313  0.5538 -0.2747
11449TIP3    H255839   3.376   3.294   5.667 -0.5199 -0.2628  0.0340
11450TIP3   OH255840   1.468   4.843   2.465  0.1828  0.3767  0.0017
11450TIP3    H155841   1.498   4.783   2.396 -2.0715  0.4037 -1.0565
11450TIP3    H255842   1.494   4.930   2.433  1.7603  0.1442  0.6209
11451TIP3   OH255843   3.278   1.686   6.236 -0.4786 -0.3339 -0.0645
11451TIP3    H155844   3.313   1.753   6.294  0.3086  0.3562 -1.2910
11451TIP3    H255845   3.220   1.734   6.176  0.9483 -0.5231 -1.6505
11452TIP3   OH255846   5.187   3.649   5.659 -0.5836  0.1142 -0.1569
11452TIP3    H155847   5.257   3.584   5.664 -0.5475  0.0080 -1.6879
11452TIP3    H255848   5.224   3.721   5.608 -1.1520  0.6363  0.1527
11453TIP3   OH255849   2.515   6.714   5.830  0.4061  0.1037  0.6688
11453TIP3    H155850   2.476   6.752   5.909 -1.1874  1.9053 -0.9170
11453TIP3    H255851   2.596   6.763   5.817  1.1793 -0.8667  1.6963
11454TIP3   OH255852   4.891   1.169  16.676 -0.0324 -0.5537  0.5003
11454TIP3    H155853   4.910   1.111  16.602 -1.2928  0.8576 -0.9762
11454TIP3    H255854   4.920   1.256  16.647 -1.3968  0.1877  1.2973
11455TIP3   OH255855   6.709   0.153   1.030  0.0407 -0.8462  0.1551
11455TIP3    H155856   6.704   0.100   0.950  0.3142  0.7073 -0.9218
11455TIP3    H255857   6.621   0.187   1.042  0.1290 -0.6263  0.1865
11456TIP3   OH255858   3.457   5.007  12.812 -0.6705  0.7375 -0.2391
11456TIP3    H155859   3.507   5.049  12.741  0.0125 -1.1267 -0.8977
11456TIP3    H255860   3.399   5.076  12.844  0.5954  2.2558 -1.1112
11457TIP3   OH255861   5.960   4.502  10.895  0.0970  0.5563 -0.2029
11457TIP3    H155862   5.896   4.500  10.824 -0.2080 -2.1945  0.0642
11457TIP3    H255863   5.908   4.487  10.975  0.7350  1.1135  0.3253
11458TIP3   OH255864   5.298   5.072   5.046  0.2579  0.0748  0.5395
11458TIP3    H155865   5.383   5.073   5.089  0.8061  0.2416 -0.5170
11458TIP3    H255866   5.308   5.132   4.971 -0.6824 -0.1461  0.2253
11459TIP3   OH255867   2.252   5.190  15.630 -0.1643 -0.9539  0.2201
11459TIP3    H155868   2.213   5.113  15.673 -0.5214 -0.4970  0.7164
11459TIP3    H255869   2.181   5.254  15.626  0.1087 -0.6848 -0.2847
11460TIP3   OH255870   4.866   3.797   1.762 -0.5658  0.7175 -0.4674
11460TIP3    H155871   4.908   3.747   1.832 -0.8875 -0.9351 -1.4092
11460TIP3    H255872   4.793   3.842   1.804 -1.4465 -1.1567  0.0851
11461TIP3   OH255873   4.704   5.262  15.037 -0.2810  0.4654 -0.3518
11461TIP3    H155874   4.644   5.329  15.003 -0.2679  1.0080  0.6790
11461TIP3    H255875   4.648   5.204  15.090 -0.4567 -0.8819 -1.9707
11462TIP3   OH255876   6.075   3.458   5.039  0.3251  0.2167  0.7919
11462TIP3    H155877   5.998   3.509   5.062  0.1887  0.5539 -0.3549
11462TIP3    H255878   6.074   3.383   5.099 -0.2883  0.7867  1.4961
11463TIP3   OH255879   5.205   2.044   3.324  0.1209  0.3629 -0.4003
11463TIP3    H155880   5.133   2.088   3.370  0.1818 -1.0118  1.0383
11463TIP3    H255881   5.284   2.089   3.355  0.3090 -1.6024  2.1759
11464TIP3   OH255882   5.751   4.040   0.966  0.3187  0.4438 -0.1105
11464TIP3    H155883   5.747   3.981   0.890 -0.1981 -0.0270  0.2756
11464TIP3    H255884   5.662   4.038   1.002  0.3426  1.3408  0.0032
11465TIP3   OH255885   0.569   3.180   5.291  0.5822 -0.0056 -0.0252
11465TIP3    H155886   0.650   3.134   5.272  0.0339 -0.7850 -0.4988
11465TIP3    H255887   0.536   3.138   5.371  0.3089 -0.1344 -0.2056
11466TIP3   OH255888   5.426   5.731   4.264  0.7866 -0.1550  0.0872
11466TIP3    H155889   5.470   5.787   4.199 -1.4336  0.2867 -1.1012
11466TIP3    H255890   5.479   5.651   4.266  1.7165  0.3959 -1.1895
11467TIP3   OH255891   4.798   1.641   2.160 -0.4579  0.7573  0.0076
11467TIP3    H155892   4.784   1.577   2.090  0.3875  0.8295 -0.2309
11467TIP3    H255893   4.860   1.704   2.123 -1.0883  1.5776  0.3341
11468TIP3   OH255894   2.153   4.754  14.147  0.0073  0.1500  0.1373
11468TIP3    H155895   2.142   4.663  14.121  1.9216 -0.0177 -0.1812
11468TIP3    H255896   2.156   4.752  14.243 -0.0314 -0.1224  0.1324
11469TIP3   OH255897   5.695   3.019  13.762  0.8981  0.5923 -0.0224
11469TIP3    H155898   5.632   3.013  13.834 -0.7374  1.3623 -1.3507
11469TIP3    H255899   5.692   3.111  13.736  1.6114  0.3536 -0.9513
11470TIP3   OH255900   4.451   5.136  17.080  0.0572  0.5987  0.3536
11470TIP3    H155901   4.418   5.201  17.142  0.2114  0.0623  1.0031
11470TIP3    H255902   4.375   5.113  17.027  0.2900  2.2807 -0.7667
11471TIP3   OH255903   0.442   3.636  16.957 -0.6854  0.9353 -0.0929
11471TIP3    H155904   0.411   3.558  17.003 -1.5099  0.4738 -1.3936
11471TIP3    H255905   0.363   3.674  16.918  0.2627  0.0946 -2.9341
11472TIP3   OH255906   2.286   6.564  14.019  0.1335  0.0491 -0.5942
11472TIP3    H155907   2.212   6.508  14.043  0.5185 -0.4945 -0.6695
11472TIP3    H255908   2.324   6.522  13.941  0.2523  0.5702 -0.8212
11473TIP3   OH255909   0.302   6.410   5.348 -0.3281  1.1591 -0.0478
11473TIP3    H155910   0.283   6.453   5.265 -3.0997  1.4034  0.6554
11473TIP3    H255911   0.341   6.326   5.324 -1.3026  1.1438 -1.5943
11474TIP3   OH255912   2.177   4.124  13.029  0.2206 -0.2184  0.2866
11474TIP3    H155913   2.240   4.168  12.972 -0.0045 -0.8938 -0.5022
11474TIP3    H255914   2.221   4.117  13.113  1.9599 -2.4042 -0.7524
11475TIP3   OH255915   0.413   2.682   5.161 -0.0718  0.5683  0.4778
11475TIP3    H155916   0.453   2.642   5.084 -0.5974  1.4210 -0.2492
11475TIP3    H255917   0.483   2.684   5.226 -0.0520 -1.5643  0.5499
11476TIP3   OH255918   2.441   2.960  13.863  0.0944 -0.0735 -0.0924
11476TIP3    H155919   2.515   3.017  13.884  0.0103  0.2829 -0.7438
11476TIP3    H255920   2.392   3.008  13.795 -0.7621 -0.2792  0.3720
11477TIP3   OH255921   0.291   4.357   2.369 -0.1437 -0.3315  0.1360
11477TIP3    H155922   0.271   4.290   2.303  0.9950 -0.9202  0.3562
11477TIP3    H255923   0.358   4.315   2.424  0.6210  1.0137  0.2432
11478TIP3   OH255924   5.635   5.536  11.594 -0.4429 -0.2605 -0.4991
11478TIP3    H155925   5.662   5.471  11.530 -0.2235 -0.6469 -0.0159
11478TIP3    H255926   5.549   5.566  11.564 -0.2866 -0.3528 -1.0350
11479TIP3   OH255927   4.851   2.546  11.643  0.3137 -0.8177 -0.2840
11479TIP3    H155928   4.821   2.525  11.732 -0.6456 -0.2162 -0.4576
11479TIP3    H255929   4.830   2.469  11.591 -1.8717 -0.0333 -0.6116
11480TIP3   OH255930   5.477   5.325   3.963 -0.6477 -0.1455 -0.3849
11480TIP3    H155931   5.450   5.329   4.055 -0.2275  1.8058 -0.3385
11480TIP3    H255932   5.397   5.343   3.914 -0.1305  2.5339 -0.3071
11481TIP3   OH255933   3.024   2.222  14.295  0.5553 -0.3049  0.1132
11481TIP3    H155934   2.998   2.141  14.252 -0.0260  0.0509 -0.2099
11481TIP3    H255935   3.041   2.197  14.386  1.9684 -1.0986 -0.3471
11482TIP3   OH255936   1.931   5.139  14.277  0.2392 -0.0592 -0.2504
11482TIP3    H155937   1.842   5.158  14.246 -0.2967 -0.8434  0.7897
11482TIP3    H255938   1.919   5.097  14.363  1.6706  1.9055  0.9725
11483TIP3   OH255939   2.725   6.351  15.778  0.1807 -0.0207  0.3428
11483TIP3    H155940   2.810   6.339  15.734 -0.3037  0.1034 -0.6323
11483TIP3    H255941   2.660   6.324  15.712 -0.6672  2.4158  0.1490
11484TIP3   OH255942   2.707   1.898  14.729 -0.3265  0.0014 -0.0637
11484TIP3    H155943   2.782   1.934  14.777 -0.7211 -0.1647  0.6804
11484TIP3    H255944   2.671   1.973  14.682  0.7249 -0.0547 -0.9915
11485TIP3   OH255945   3.342   1.020  16.719  0.3485 -0.0280 -0.3539
11485TIP3    H155946   3.387   1.072  16.653  0.1720 -0.3118 -0.6984
11485TIP3    H255947   3.344   0.930  16.686  0.7415 -0.2621  0.2854
11486TIP3   OH255948   1.088   5.615  13.849 -0.0585 -0.3730  0.1119
11486TIP3    H155949   1.095   5.709  13.868 -0.2234  0.1006 -2.0665
11486TIP3    H255950   1.179   5.586  13.841 -0.0220 -0.1929 -0.1449
11487TIP3   OH255951   2.306   3.579  12.550 -0.4743  0.2033  0.1685
11487TIP3    H155952   2.290   3.495  12.593  0.5020  0.4105  0.9587
11487TIP3    H255953   2.298   3.644  12.620  0.2435  0.6281 -0.1361
11488TIP3   OH255954   2.784   0.835  15.920  0.0167  0.6165 -0.7240
11488TIP3    H155955   2.867   0.871  15.951  0.4254 -1.4156  0.6044
11488TIP3    H255956   2.802   0.742  15.907 -2.0772  0.1423 -0.3421
11489TIP3   OH255957   0.002   4.578  13.829 -0.3260  1.1521 -0.1285
11489TIP3    H155958  -0.065   4.611  13.888 -1.1849 -0.3132 -0.2756
11489TIP3    H255959   0.083   4.581  13.881 -0.7181  1.7745  0.4492
11490TIP3   OH255960   4.020   3.515  16.837  0.1090 -0.0363 -0.7521
11490TIP3    H155961   4.029   3.472  16.753  0.1593  0.8503 -1.2101
11490TIP3    H255962   4.016   3.608  16.816  1.0198  0.2469  0.2916
11491TIP3   OH255963   5.451   6.507   5.603 -0.3201  0.1270  0.0641
11491TIP3    H155964   5.394   6.551   5.540 -0.3989  0.0601  0.0888
11491TIP3    H255965   5.392   6.455   5.656 -0.2959  0.5004  0.4559
11492TIP3   OH255966   4.921   5.276  13.126 -0.9333  0.1701  0.7495
11492TIP3    H155967   5.011   5.291  13.096 -0.5176 -1.0301  1.3767
11492TIP3    H255968   4.874   5.356  13.102 -0.1008  0.1116 -1.1365
11493TIP3   OH255969   6.772   6.092  16.733 -0.5252  0.2202  0.0589
11493TIP3    H155970   6.792   6.016  16.679 -1.7247 -1.5682  2.0623
11493TIP3    H255971   6.798   6.167  16.679 -1.3748 -1.4963 -2.8765
11494TIP3   OH255972   2.064   1.231   4.114  0.8355  0.0397 -0.2773
11494TIP3    H155973   2.043   1.150   4.161 -1.1783  0.3683 -0.5714
11494TIP3    H255974   2.092   1.202   4.028  1.7496 -0.4170  0.1621
11495TIP3   OH255975   3.931   5.557  12.621  0.8078 -0.0100  0.0833
11495TIP3    H155976   3.929   5.626  12.688  3.1237  0.0571  0.1372
11495TIP3    H255977   3.934   5.476  12.671  0.0843 -0.0729  0.0297
11496TIP3   OH255978   6.095   6.163  11.458 -0.2652 -0.4727 -0.6994
11496TIP3    H155979   6.068   6.211  11.380  0.1597  0.2500 -0.4066
11496TIP3    H255980   6.049   6.079  11.453  1.1610 -1.1757 -2.6809
11497TIP3   OH255981   2.470   1.872   5.825  0.1555  0.4385  0.1651
11497TIP3    H155982   2.378   1.850   5.841  0.8681 -2.2883  0.7492
11497TIP3    H255983   2.474   1.967   5.834 -2.8227  0.7329 -1.0451
11498TIP3   OH255984   1.727   5.867  14.779 -0.4621  0.2445  0.1594
11498TIP3    H155985   1.798   5.806  14.757  0.4356  1.4373 -0.3456
11498TIP3    H255986   1.650   5.812  14.788 -0.3914 -0.6289 -3.5918
11499TIP3   OH255987   4.974   2.428   4.767  1.0127 -0.0369  0.4268
11499TIP3    H155988   4.923   2.352   4.738  3.4832 -1.0541 -1.4329
11499TIP3    H255989   4.938   2.502   4.718  1.1657 -0.7096 -0.7182
11500TIP3   OH255990   6.189   4.839  12.421 -0.0472  0.2748  0.1366
11500TIP3    H155991   6.120   4.819  12.358  0.9186  0.4472 -1.0166
11500TIP3    H255992   6.266   4.858  12.366  1.0487 -0.4378  1.3857
11501TIP3   OH255993   2.429   5.931  11.689 -0.0024 -0.0783 -0.6506
11501TIP3    H155994   2.386   6.012  11.661  0.5058  0.7754  0.9761
11501TIP3    H255995   2.442   5.881  11.608 -1.1422  1.0650 -1.5479
11502TIP3   OH255996   2.583   2.116   2.851  0.6280 -0.0307  0.3019
11502TIP3    H155997   2.639   2.088   2.923  0.5612 -0.1013  0.3271
11502TIP3    H255998   2.504   2.150   2.894 -0.1657 -1.7119  0.2223
11503TIP3   OH255999   3.640   3.047  13.362  0.1241  0.3753 -0.3255
11503TIP3    H156000   3.634   2.967  13.413 -0.9745  1.6901  1.6833
11503TIP3    H256001   3.704   3.027  13.293  1.8948 -1.3581  1.7498
11504TIP3   OH256002   5.088   6.117   3.695 -0.1592 -0.0813  1.1018
11504TIP3    H156003   5.022   6.164   3.745  1.1068  0.7167  2.0439
11504TIP3    H256004   5.134   6.185   3.645 -1.4162 -0.8671 -1.1736
11505TIP3   OH256005   6.429   0.679   2.774  0.2740  0.2166 -0.1520
11505TIP3    H156006   6.468   0.729   2.702  0.0736 -1.1050 -1.1944
11505TIP3    H256007   6.498   0.619   2.802  0.5502  1.1150  1.1714
11506TIP3   OH256008   3.457   1.089  13.553 -0.0663 -0.0351 -0.0582
11506TIP3    H156009   3.492   1.129  13.473  0.1063  1.7510  0.8780
11506TIP3    H256010   3.377   1.045  13.525 -0.3755  1.1652 -1.0849
11507TIP3   OH256011   1.658   6.661  16.784  0.3680 -0.4108 -0.3654
11507TIP3    H156012   1.716   6.632  16.713 -0.9756  2.2035 -2.6043
11507TIP3    H256013   1.574   6.621  16.762 -0.1772  0.8301 -0.5141
11508TIP3   OH256014   1.579   3.921   1.262  0.0503 -0.2999 -0.0041
11508TIP3    H156015   1.657   3.882   1.222 -0.5435 -1.3038 -0.2089
11508TIP3    H256016   1.577   3.885   1.350  0.1507  0.2014  0.2039
11509TIP3   OH256017   2.572   1.576   2.034  0.4801  0.1883 -0.3232
11509TIP3    H156018   2.507   1.570   2.103  0.1755  0.4469 -0.5835
11509TIP3    H256019   2.652   1.543   2.073  0.3672  0.5460  0.2236
11510TIP3   OH256020   6.108   1.453   5.904 -0.5112 -0.4428  0.3687
11510TIP3    H156021   6.064   1.514   5.845 -0.5267 -0.8495 -0.0408
11510TIP3    H256022   6.045   1.441   5.976 -0.8642 -0.6274  0.0356
11511TIP3   OH256023   1.412   6.283  12.112 -0.0381 -0.2589  0.2532
11511TIP3    H156024   1.330   6.303  12.156  0.1140 -0.0314  0.4374
11511TIP3    H256025   1.425   6.189  12.126 -0.0171 -0.1969  0.6427
11512TIP3   OH256026   5.706   3.939   1.331 -0.6214 -0.1317  0.3070
11512TIP3    H156027   5.626   3.888   1.326 -0.3897 -0.5633  0.9864
11512TIP3    H256028   5.678   4.026   1.358 -0.7450 -0.5728  1.6069
11513TIP3   OH256029   1.279   5.202   0.560 -0.1792 -0.1385 -0.1788
11513TIP3    H156030   1.319   5.121   0.591  1.6636  0.8715  0.1693
11513TIP3    H256031   1.219   5.174   0.491 -1.2506 -2.0061  1.4800
11514TIP3   OH256032   5.722   5.416  12.349 -0.1061 -0.4111  0.2203
11514TIP3    H156033   5.719   5.452  12.261 -0.4951 -0.0280  0.3815
11514TIP3    H256034   5.812   5.388  12.362  0.3721  1.1468  0.3260
11515TIP3   OH256035   6.644   2.781   3.071 -0.1602  0.2726  0.0689
11515TIP3    H156036   6.728   2.768   3.116  0.3364  0.9098 -0.6397
11515TIP3    H256037   6.579   2.739   3.127  0.5937  0.0783  0.8051
11516TIP3   OH256038   6.334   3.415   4.114 -0.1980  0.2714  0.2621
11516TIP3    H156039   6.326   3.396   4.020  0.3644  2.8435 -0.3485
11516TIP3    H256040   6.244   3.416   4.146 -0.4104 -0.3580 -0.3016
11517TIP3   OH256041   2.810   4.519   2.899  0.1400  0.0972  0.1329
11517TIP3    H156042   2.725   4.545   2.864  0.0296 -2.2978 -1.5276
11517TIP3    H256043   2.874   4.572   2.850 -0.3395  1.4424  0.9427
11518TIP3   OH256044   1.996   6.169  16.667 -0.7085 -0.0588  0.4738
11518TIP3    H156045   1.972   6.256  16.635  0.0021 -0.4986 -1.3253
11518TIP3    H256046   2.002   6.179  16.762  0.1543  2.0580  0.2241
11519TIP3   OH256047   1.718   1.725   1.649  0.0105 -0.4610  0.5280
11519TIP3    H156048   1.651   1.732   1.580  2.3695  1.1065 -1.6942
11519TIP3    H256049   1.697   1.794   1.711  1.1334  1.9257 -1.6422
11520TIP3   OH256050   6.575   3.065   5.272 -0.2084 -0.0793  0.0447
11520TIP3    H156051   6.605   3.045   5.183 -0.4366  1.7286 -0.4432
11520TIP3    H256052   6.482   3.085   5.263  0.1553  1.9016  0.3895
11521TIP3   OH256053   2.468   5.143   6.239  0.2318  0.1514  0.0587
11521TIP3    H156054   2.389   5.191   6.264  1.1073  1.5123  0.2797
11521TIP3    H256055   2.436   5.062   6.199 -1.2590  0.3805  0.7621
11522TIP3   OH256056   5.314   3.837   1.897 -0.3102 -0.2026 -0.1947
11522TIP3    H156057   5.295   3.921   1.939  0.0847 -0.2267  0.0331
11522TIP3    H256058   5.255   3.834   1.822 -0.5622  0.1292 -0.0115
11523TIP3   OH256059   2.362   4.504   6.168 -0.0032  0.3683 -0.0787
11523TIP3    H156060   2.396   4.430   6.118 -1.0545  0.4150 -0.8762
11523TIP3    H256061   2.276   4.522   6.130  0.0435  1.7051  0.4030
11524TIP3   OH256062   0.284   1.208   0.768 -0.8196  0.1206  0.0562
11524TIP3    H156063   0.318   1.262   0.840 -0.0479  0.1554 -0.3300
11524TIP3    H256064   0.246   1.131   0.811 -0.5239  0.2282  0.5087
11525TIP3   OH256065   0.008   2.372   2.076  0.3690 -0.4317  0.0369
11525TIP3    H156066   0.103   2.365   2.069  0.5112 -3.5504  3.4130
11525TIP3    H256067  -0.025   2.293   2.035 -0.8024  0.6050 -1.0537
11526TIP3   OH256068   0.083   6.678   0.801  0.2604  0.1440 -0.0103
11526TIP3    H156069   0.116   6.695   0.889  0.0907 -0.3225  0.1405
11526TIP3    H256070   0.115   6.752   0.749  2.8692 -1.0855 -0.2236
11527TIP3   OH256071   5.199   3.977   4.769 -0.3175  0.1484  0.0537
11527TIP3    H156072   5.226   3.918   4.839 -0.1330 -0.8444 -0.8366
11527TIP3    H256073   5.149   3.922   4.709 -0.3175  0.9446 -0.6942
11528TIP3   OH256074   1.070   4.937  15.434 -0.2213  0.2320  0.1504
11528TIP3    H156075   0.984   4.938  15.391  0.0671  1.0776 -0.4146
11528TIP3    H256076   1.124   4.881  15.379 -0.4120 -0.3133  0.5139
11529TIP3   OH256077   3.486   1.589   0.875 -0.0779 -0.2324 -0.0931
11529TIP3    H156078   3.577   1.568   0.897 -0.2131  0.3023  1.0403
11529TIP3    H256079   3.451   1.629   0.955 -1.8092 -1.9738  0.0831
11530TIP3   OH256080   1.121   1.271   5.827 -0.2017 -0.0418 -0.4330
11530TIP3    H156081   1.132   1.233   5.914  0.1674 -2.2843 -1.4332
11530TIP3    H256082   1.054   1.338   5.838  0.9213  0.7635  1.8833
11531TIP3   OH256083   0.589   6.028  17.217  0.3352 -0.3864 -0.5435
11531TIP3    H156084   0.619   6.115  17.190 -1.7246  0.3652 -0.5288
11531TIP3    H256085   0.640   5.967  17.162  1.5767  0.8245 -0.7673
11532TIP3   OH256086   2.459   2.834   4.492 -0.2217  0.0909 -0.6650
11532TIP3    H156087   2.392   2.831   4.560  1.1470  0.0971  0.7096
11532TIP3    H256088   2.486   2.743   4.480  1.3681  0.3762  0.6609
11533TIP3   OH256089   1.203   3.904   3.857  0.2551 -0.2856 -0.4196
11533TIP3    H156090   1.172   3.966   3.922  0.2956 -1.5575  0.8430
11533TIP3    H256091   1.126   3.886   3.802 -0.6318 -1.5423  1.1905
11534TIP3   OH256092   6.263   6.140  14.705  0.4565 -0.0185 -0.5921
11534TIP3    H156093   6.348   6.100  14.686 -0.0157 -1.6869  0.6797
11534TIP3    H256094   6.279   6.193  14.783  0.6287  0.7422 -1.1376
11535TIP3   OH256095   4.548   1.649  14.960  0.2938 -0.4776 -0.1171
11535TIP3    H156096   4.491   1.720  14.989  0.2710 -0.3706 -0.4172
11535TIP3    H256097   4.587   1.614  15.040  1.2493  0.6767 -0.0682
11536TIP3   OH256098   0.148   4.547  11.344  0.2997  0.5658  0.3918
11536TIP3    H156099   0.183   4.461  11.369 -0.5949  0.2816  0.6593
11536TIP3    H256100   0.147   4.597  11.425 -0.8335  0.2524  0.5802
11537TIP3   OH256101   1.786   3.245  13.530 -0.2004  0.0273  0.1877
11537TIP3    H156102   1.765   3.335  13.502 -1.6632 -1.0592 -2.4284
11537TIP3    H256103   1.860   3.220  13.475 -1.5572 -1.3041 -1.0699
11538TIP3   OH256104   1.901   2.384  16.006  0.3506  0.3459  0.4245
11538TIP3    H156105   1.909   2.475  15.978  1.6541  0.0566 -0.2204
11538TIP3    H256106   1.901   2.334  15.925  0.8443 -0.2981  0.8164
11539TIP3   OH256107   4.217   5.588   4.560 -0.5313 -0.3219 -0.1544
11539TIP3    H156108   4.239   5.577   4.468 -0.5591 -0.2787 -0.1658
11539TIP3    H256109   4.130   5.549   4.569 -1.2666  1.2257 -0.4995
11540TIP3   OH256110   0.116   5.015  12.854 -0.9650 -0.0609  0.4208
11540TIP3    H156111   0.185   5.008  12.788  0.1146  0.5489  1.4538
11540TIP3    H256112   0.045   4.961  12.821 -0.9214  1.1995 -1.8249
11541TIP3   OH256113   5.906   4.582   0.664  0.1379  0.1993 -0.3160
11541TIP3    H156114   5.955   4.656   0.700 -0.7908 -0.5515  2.5735
11541TIP3    H256115   5.937   4.506   0.713 -1.0160 -0.9164 -1.2761
11542TIP3   OH256116   0.440   1.663  13.945 -0.0489 -0.4568 -0.0396
11542TIP3    H156117   0.348   1.665  13.920 -0.5333 -1.2732  1.6251
11542TIP3    H256118   0.459   1.570  13.958  0.6078 -0.1745  1.1000
11543TIP3   OH256119   4.676   4.096   3.528 -0.0630  1.0717 -0.2352
11543TIP3    H156120   4.761   4.076   3.567  0.1499  0.0482 -1.1941
11543TIP3    H256121   4.635   4.010   3.514 -0.4287  1.4645 -1.6043
11544TIP3   OH256122   1.249   5.322  15.979 -0.0796  0.7078 -0.1629
11544TIP3    H156123   1.255   5.227  15.993 -0.2411  0.7379  0.1171
11544TIP3    H256124   1.251   5.332  15.884 -0.6134  0.3809 -0.2164
11545TIP3   OH256125   6.767   4.210   3.619 -0.3136  0.0041 -0.0696
11545TIP3    H156126   6.742   4.167   3.537 -1.5378 -0.1202  0.3571
11545TIP3    H256127   6.773   4.303   3.596  1.5395 -0.2768 -0.8059
11546TIP3   OH256128   4.989   2.284  15.515  0.2469  0.6978  0.0048
11546TIP3    H156129   4.986   2.234  15.434 -1.3954 -0.2061  0.5944
11546TIP3    H256130   4.898   2.305  15.535  0.6221  0.9672  1.5679
11547TIP3   OH256131   0.148   2.787   5.234  0.2298 -0.0063 -0.2762
11547TIP3    H156132   0.187   2.816   5.317 -0.2936 -0.4574  0.1327
11547TIP3    H256133   0.221   2.750   5.185  0.2976 -1.0148  0.5607
11548TIP3   OH256134   2.378   5.267   5.368 -0.4009  0.1455  0.1414
11548TIP3    H156135   2.302   5.237   5.418 -0.6484  0.6546  0.0709
11548TIP3    H256136   2.452   5.222   5.408 -0.8224 -0.9017 -0.2398
11549TIP3   OH256137   1.214   5.533  11.653 -0.4537 -0.1264  0.0586
11549TIP3    H156138   1.283   5.579  11.701 -0.0913 -0.8236  0.2037
11549TIP3    H256139   1.135   5.547  11.706  0.4012 -2.9492  2.1783
11550TIP3   OH256140   1.949   1.039  14.321 -0.5418  0.1929  0.1513
11550TIP3    H156141   1.975   1.008  14.408  0.1162 -0.4404 -0.2623
11550TIP3    H256142   1.962   1.134  14.325  0.0617  0.1005  0.5549
11551TIP3   OH256143   5.464   5.902  15.923 -0.4684  0.0720 -0.4545
11551TIP3    H156144   5.370   5.908  15.939 -0.4799  0.3269 -0.6097
11551TIP3    H256145   5.504   5.957  15.990 -0.1886 -2.9968  1.9857
11552TIP3   OH256146   1.672   5.311  16.877 -0.0685  0.3335 -0.4168
11552TIP3    H156147   1.679   5.244  16.945  0.4273 -0.2108 -0.9962
11552TIP3    H256148   1.588   5.353  16.894  0.2470  0.5006  0.7930
11553TIP3   OH256149   5.389   2.475  14.644  0.3982  0.0099  0.2262
11553TIP3    H156150   5.401   2.487  14.549 -0.9812 -1.5498 -0.1668
11553TIP3    H256151   5.364   2.561  14.676  0.6549  0.5036 -0.8549
11554TIP3   OH256152   1.009   6.762  11.823  0.0462 -0.2725  0.1905
11554TIP3    H156153   1.055   6.752  11.740 -1.2569 -1.5194 -0.4002
11554TIP3    H256154   0.963   6.845  11.816 -0.7868 -0.8119 -0.6862
11555TIP3   OH256155   1.056   6.106  12.893  1.1066  0.3700 -0.0521
11555TIP3    H156156   1.116   6.152  12.834  0.7637 -0.6402 -1.2268
11555TIP3    H256157   1.014   6.041  12.837 -2.2584  2.0839  0.3706
11556TIP3   OH256158   6.373   4.126   2.302 -0.0734  0.3246 -0.2864
11556TIP3    H156159   6.294   4.156   2.346  0.9686  0.6470  1.4224
11556TIP3    H256160   6.385   4.036   2.332 -0.2034  0.0279 -1.1214
11557TIP3   OH256161   5.817   1.703   6.622  0.2085  0.2381 -0.6887
11557TIP3    H156162   5.858   1.645   6.686 -2.9402  0.6705  1.8378
11557TIP3    H256163   5.779   1.645   6.557 -0.3299 -0.4144  0.2016
11558TIP3   OH256164   3.905   1.574  13.378 -0.0827  0.0254  0.2317
11558TIP3    H156165   3.840   1.588  13.309 -0.0105 -2.0064 -0.3042
11558TIP3    H256166   3.976   1.634  13.357  0.4535 -1.4037 -2.1719
11559TIP3   OH256167   2.738   3.413  17.231  0.5734  0.5082 -0.5517
11559TIP3    H156168   2.650   3.445  17.210 -0.3896 -0.8589  1.2265
11559TIP3    H256169   2.790   3.431  17.153 -1.9363 -1.0530 -2.6665
11560TIP3   OH256170   1.115   3.368   1.744  0.4382  0.0464  0.1588
11560TIP3    H156171   1.131   3.306   1.814 -1.3297  0.7132  1.1718
11560TIP3    H256172   1.025   3.397   1.757 -0.1605 -0.3510 -2.8049
11561TIP3   OH256173   0.569   3.829  13.123  0.2200  0.0549 -0.5181
11561TIP3    H156174   0.584   3.770  13.049  3.0427 -0.5564  0.4855
11561TIP3    H256175   0.546   3.913  13.082 -1.1770 -0.9983 -1.9983
11562TIP3   OH256176   4.494   2.747  16.271 -0.7059 -0.1866 -0.7452
11562TIP3    H156177   4.408   2.709  16.290 -1.3112  0.4318 -2.1509
11562TIP3    H256178   4.532   2.690  16.204 -0.5661  0.2528 -1.0449
11563TIP3   OH256179   4.226   4.774   3.374  0.7281 -0.1014  0.3388
11563TIP3    H156180   4.241   4.868   3.374 -1.7104  0.3284 -0.5790
11563TIP3    H256181   4.204   4.753   3.284 -2.1630 -0.9215  1.1661
11564TIP3   OH256182   6.768   5.962   0.946 -0.2403 -0.4386 -0.2238
11564TIP3    H156183   6.728   6.041   0.981 -1.4544  0.0716 -2.6668
11564TIP3    H256184   6.825   5.930   1.016 -1.9585  0.9763  1.8408
11565TIP3   OH256185   4.763   1.431  10.546 -0.7216 -0.1125  0.2203
11565TIP3    H156186   4.801   1.343  10.539 -1.5150 -0.6859  2.7955
11565TIP3    H256187   4.788   1.473  10.463  0.2344 -2.5134 -0.7881
11566TIP3   OH256188   1.515   2.550   2.835 -0.3150 -0.2996  0.5434
11566TIP3    H156189   1.527   2.612   2.907  1.0711  0.3784 -0.2590
11566TIP3    H256190   1.421   2.549   2.819 -0.2327  2.7197 -0.4130
11567TIP3   OH256191   2.233   2.894  12.810 -0.1405  0.3879  0.3558
11567TIP3    H156192   2.236   2.807  12.850 -0.4249  0.6531  0.9630
11567TIP3    H256193   2.162   2.888  12.746 -1.3057  0.6396  1.5674
11568TIP3   OH256194   1.288   6.473  15.476 -0.0128 -0.1640  0.6937
11568TIP3    H156195   1.331   6.502  15.396 -1.5055  0.4142  0.1030
11568TIP3    H256196   1.309   6.379  15.481 -1.5684 -0.6504 -1.4208
11569TIP3   OH256197   4.742   2.833  12.823 -0.1347 -0.1573 -0.2955
11569TIP3    H156198   4.817   2.886  12.798 -0.5143  0.7585  0.4590
11569TIP3    H256199   4.674   2.857  12.760  0.2370 -1.0769 -1.0536
11570TIP3   OH256200   6.250   3.094  11.269  0.6507 -0.8807 -0.0020
11570TIP3    H156201   6.323   3.113  11.211  0.3441 -1.2493 -0.5142
11570TIP3    H256202   6.274   3.134  11.353 -0.7321  3.2692 -1.4487
11571TIP3   OH256203   3.102   0.721  11.842  0.1296 -0.2665 -0.4381
11571TIP3    H156204   3.050   0.733  11.762 -1.0864  0.1903  0.4028
11571TIP3    H256205   3.150   0.639  11.827 -3.5880 -2.6857  0.2191
11572TIP3   OH256206   6.138   4.506  16.115  0.4076 -0.1275 -0.3334
11572TIP3    H156207   6.093   4.531  16.196  0.7028  0.4790 -0.3593
11572TIP3    H256208   6.182   4.424  16.138 -2.3313 -1.8242 -0.8844
11573TIP3   OH256209   1.545   6.419   0.836  0.0335  0.2332 -0.7682
11573TIP3    H156210   1.545   6.446   0.928  0.5448 -3.5092  0.4348
11573TIP3    H256211   1.632   6.444   0.804  0.5571 -0.1044  0.3332
11574TIP3   OH256212   4.309   6.582  11.229 -0.0919 -0.1113  0.0311
11574TIP3    H156213   4.321   6.674  11.252  0.6724 -0.2247  0.1090
11574TIP3    H256214   4.332   6.577  11.136  0.9243 -0.4202  0.2968
11575TIP3   OH256215   4.834   6.812   1.405  0.3847 -0.1449 -0.6255
11575TIP3    H156216   4.884   6.731   1.397  0.4677 -0.2707  0.9138
11575TIP3    H256217   4.901   6.881   1.409  0.2762  0.4606 -5.7139
11576TIP3   OH256218   1.956   0.660  10.493 -0.2159 -0.2157  0.0285
11576TIP3    H156219   2.034   0.715  10.482 -1.2037  1.2753  0.4784
11576TIP3    H256220   1.899   0.684  10.420 -0.7213 -0.5126  0.3224
11577TIP3   OH256221   2.742   6.245  14.768 -0.0286 -0.2392 -0.5063
11577TIP3    H156222   2.655   6.261  14.732 -0.4145 -0.3451  0.3846
11577TIP3    H256223   2.790   6.326  14.750 -0.2062 -0.2975 -1.2801
11578TIP3   OH256224   4.814   4.204   1.258 -0.5813  0.3604  0.0501
11578TIP3    H156225   4.878   4.274   1.266  0.0090 -0.1502 -0.1398
11578TIP3    H256226   4.749   4.223   1.326 -0.7815  1.4448 -0.4400
11579TIP3   OH256227   3.548   0.724   5.714 -0.3401  0.3071 -0.0793
11579TIP3    H156228   3.627   0.738   5.660 -1.5850  2.5061 -1.4159
11579TIP3    H256229   3.519   0.636   5.691  1.5330 -0.4215  0.1891
11580TIP3   OH256230   4.096   1.092  11.574 -0.1889  0.6264  0.4802
11580TIP3    H156231   4.148   1.109  11.653  0.7422  1.1429 -0.2264
11580TIP3    H256232   4.068   1.001  11.582  3.4120 -0.6469 -0.5658
11581TIP3   OH256233   0.308   1.731  11.118 -0.7783  0.8946  0.2359
11581TIP3    H156234   0.273   1.674  11.050 -0.8676  2.4480 -1.0324
11581TIP3    H256235   0.232   1.779  11.151 -0.7173  0.2457  1.3662
11582TIP3   OH256236   4.771   0.836   1.903  0.2985 -0.0539 -0.3166
11582TIP3    H156237   4.797   0.840   1.995 -1.5493  0.5681  0.2005
11582TIP3    H256238   4.682   0.871   1.902  0.3950  0.1860 -2.3835
11583TIP3   OH256239   4.118   5.081  12.534 -0.0051 -0.1518 -0.2822
11583TIP3    H156240   4.142   5.155  12.590  0.1651 -0.5359  0.1641
11583TIP3    H256241   4.085   5.015  12.596 -0.5087 -0.3053 -0.7112
11584TIP3   OH256242   1.922   1.947  17.220 -0.5766 -0.2371  0.0230
11584TIP3    H156243   1.995   1.922  17.163  1.6799  1.8735  1.8667
11584TIP3    H256244   1.864   1.997  17.163  1.2851  1.2481 -0.6438
11585TIP3   OH256245   6.640   2.350   5.378  0.2183 -0.2928 -0.2696
11585TIP3    H156246   6.722   2.387   5.410  0.4719 -0.8243 -0.3028
11585TIP3    H256247   6.572   2.401   5.422  0.5591 -1.0280  1.1493
11586TIP3   OH256248   1.450   4.910   6.463 -0.0336  0.2469  0.0854
11586TIP3    H156249   1.462   4.940   6.373 -0.9501 -2.0552 -0.8262
11586TIP3    H256250   1.537   4.882   6.490  0.1215  0.3502 -0.2988
11587TIP3   OH256251   6.104   6.142   5.912  0.0963 -0.6071 -0.1373
11587TIP3    H156252   6.158   6.221   5.917 -0.9799  0.1347 -0.1297
11587TIP3    H256253   6.096   6.124   5.818 -0.8908  0.1594 -0.2098
11588TIP3   OH256254   3.659   4.327  16.067  0.2283  0.2529  0.1854
11588TIP3    H156255   3.689   4.242  16.037  0.9836  0.3683  0.6060
11588TIP3    H256256   3.662   4.384  15.990 -1.9979 -0.5377 -0.5290
11589TIP3   OH256257   1.700   4.915  11.959 -0.0595 -0.2260  0.0564
11589TIP3    H156258   1.708   4.826  11.994  2.8777  0.3684  1.0873
11589TIP3    H256259   1.631   4.909  11.894  0.2484 -3.3422 -0.0838
11590TIP3   OH256260   4.076   0.061   1.048 -0.1214 -0.4875  0.1952
11590TIP3    H156261   4.157   0.063   1.098  0.1515 -1.4451 -0.2067
11590TIP3    H256262   4.052  -0.032   1.043 -0.6595 -0.3150 -0.6173
11591TIP3   OH256263   3.192   6.440  11.755 -0.9635 -0.2298 -0.3119
11591TIP3    H156264   3.169   6.463  11.844  1.8979  0.7338  0.2245
11591TIP3    H256265   3.162   6.514  11.702 -2.6162 -0.7810 -0.1826
11592TIP3   OH256266   6.343   5.373   6.278  0.3162 -0.5303 -0.3161
11592TIP3    H156267   6.307   5.454   6.314  0.1526 -0.3567 -0.8650
11592TIP3    H256268   6.322   5.377   6.185  0.7361 -0.9773 -0.4307
11593TIP3   OH256269   6.648   6.180  15.330  0.4734 -0.0397 -0.1975
11593TIP3    H156270   6.687   6.096  15.356 -2.0237 -0.6311  1.8836
11593TIP3    H256271   6.668   6.239  15.402 -0.9534  0.1118  0.0865
11594TIP3   OH256272   1.931   4.879   3.259 -0.8704 -0.1935 -0.0129
11594TIP3    H156273   1.839   4.853   3.263 -0.9541 -0.4985 -3.0178
11594TIP3    H256274   1.929   4.972   3.240 -0.5312  0.0208  0.9554
11595TIP3   OH256275   1.655   6.768  15.552 -0.2967 -0.9263  0.7359
11595TIP3    H156276   1.570   6.809  15.539  1.7750  2.4820 -2.9163
11595TIP3    H256277   1.675   6.784  15.645 -1.5650  2.4038  0.4907
11596TIP3   OH256278   1.856   4.741   1.517  0.0492 -0.5117  0.3934
11596TIP3    H156279   1.912   4.704   1.449 -0.8203 -0.5862 -0.2971
11596TIP3    H256280   1.791   4.673   1.534 -1.6282  0.7008 -0.9600
11597TIP3   OH256281   1.714   5.669  16.355  0.0819  0.0639 -0.0762
11597TIP3    H156282   1.739   5.659  16.447 -2.6123 -1.4168  0.5339
11597TIP3    H256283   1.773   5.611  16.307 -0.3857 -1.3771  1.0568
11598TIP3   OH256284   0.768   4.374  15.155  0.1387 -0.0526  0.1571
11598TIP3    H156285   0.856   4.337  15.160  0.4317  0.6171  0.0861
11598TIP3    H256286   0.783   4.469  15.153 -0.6092  0.0776  0.6798
11599TIP3   OH256287   4.593   0.666   5.483 -0.6931 -0.5928 -0.2948
11599TIP3    H156288   4.658   0.664   5.413  0.4354  0.4804  0.7054
11599TIP3    H256289   4.568   0.574   5.494  0.2386 -0.9530 -1.0637
11600TIP3   OH256290   5.114   4.548   4.249  0.0909  0.1245  0.1322
11600TIP3    H156291   5.181   4.489   4.283  0.1089 -1.1116 -1.9788
11600TIP3    H256292   5.037   4.493   4.239 -0.0594  0.5755 -1.3003
11601TIP3   OH256293   5.588   2.984  11.660  0.1552 -0.2367  0.3152
11601TIP3    H156294   5.616   2.956  11.573 -1.4369 -1.6450  0.2233
11601TIP3    H256295   5.633   2.925  11.720 -0.0813 -0.3726  0.3566
11602TIP3   OH256296   0.791   0.733   5.204 -0.2343  0.2989 -0.0467
11602TIP3    H156297   0.809   0.640   5.216  1.1584  0.6824  0.8300
11602TIP3    H256298   0.697   0.741   5.220 -0.0378 -0.6557  1.6524
11603TIP3   OH256299   2.625   1.186   3.386 -0.1104  0.0767 -0.0879
11603TIP3    H156300   2.707   1.162   3.343 -0.8096 -1.5698 -0.5299
11603TIP3    H256301   2.558   1.138   3.339 -1.5260  2.5031 -0.6500
11604TIP3   OH256302   3.836   4.543  15.165  0.1297  0.1125  0.2622
11604TIP3    H156303   3.930   4.531  15.156 -0.0087 -0.8428  0.1149
11604TIP3    H256304   3.805   4.464  15.207 -0.6163  0.4076  0.2779
11605TIP3   OH256305   4.688   5.996   3.437  0.1786  0.2164 -0.0740
11605TIP3    H156306   4.773   5.965   3.470  0.1352  1.3324  1.1274
11605TIP3    H256307   4.710   6.058   3.368  0.2955 -0.9767 -1.1289
11606TIP3   OH256308   0.525   1.099  12.139  0.0381  0.1718  0.7440
11606TIP3    H156309   0.564   1.053  12.064  0.2698  1.1037  0.2790
11606TIP3    H256310   0.558   1.188  12.131 -1.2843  0.6921  0.9955
11607TIP3   OH256311   1.323   0.290  11.322  0.2034 -0.0194  0.2414
11607TIP3    H156312   1.398   0.290  11.263 -0.0269  0.9173 -0.0579
11607TIP3    H256313   1.247   0.298  11.264 -0.0052  1.2449  0.6700
11608TIP3   OH256314   5.625   4.827   5.782 -0.4457  0.2409 -0.5596
11608TIP3    H156315   5.602   4.777   5.860 -1.6877  2.1421  0.3349
11608TIP3    H256316   5.574   4.786   5.712  0.7768 -1.5596 -0.4242
11609TIP3   OH256317   0.126   5.778  10.904 -0.5202  0.4277 -0.3860
11609TIP3    H156318   0.062   5.824  10.958  0.1643 -0.9005  1.6701
11609TIP3    H256319   0.080   5.700  10.873 -0.2575  0.0446  0.1694
11610TIP3   OH256320   4.672   3.697  16.716 -0.0863  0.0499 -0.3663
11610TIP3    H156321   4.646   3.611  16.750 -2.0709  1.0543  0.6816
11610TIP3    H256322   4.761   3.710  16.749 -0.2621 -1.0266  0.5467
11611TIP3   OH256323   2.194   2.057   3.339 -0.0741  0.4375  0.0312
11611TIP3    H156324   2.265   2.092   3.393  0.5068 -0.1582 -0.3289
11611TIP3    H256325   2.230   1.975   3.305 -0.9760  0.0947 -0.0840
11612TIP3   OH256326   1.068   1.527   3.593 -0.0503 -0.1404  0.5579
11612TIP3    H156327   1.068   1.431   3.598  0.7465 -0.0933  1.5803
11612TIP3    H256328   1.090   1.556   3.681 -2.4518  1.0355  0.7988
11613TIP3   OH256329   2.136   5.625  11.805 -0.5770  0.0325  0.4142
11613TIP3    H156330   2.055   5.670  11.831  0.0474  1.4477 -0.0805
11613TIP3    H256331   2.141   5.638  11.710  1.0080  1.2291  0.6530
11614TIP3   OH256332   5.969   5.080   2.754  0.3408  0.1456  0.2531
11614TIP3    H156333   5.967   5.019   2.827  0.5353 -0.1332  0.0269
11614TIP3    H256334   6.061   5.084   2.728  0.2640  0.1947 -0.0175
11615TIP3   OH256335   3.255   2.200  16.917 -0.1650 -0.1611 -0.2865
11615TIP3    H156336   3.270   2.113  16.881 -2.1245 -0.5509 -0.2279
11615TIP3    H256337   3.310   2.258  16.864  1.2422 -1.4423 -0.2378
11616TIP3   OH256338   2.511   3.186   2.060 -0.3341  0.2322  0.0675
11616TIP3    H156339   2.593   3.225   2.090 -0.2615  0.3788 -0.3241
11616TIP3    H256340   2.518   3.093   2.085  0.1316  0.1555 -0.3482
11617TIP3   OH256341   5.682   5.520   2.582 -0.2996 -0.2403  0.5530
11617TIP3    H156342   5.745   5.454   2.551 -0.0017 -0.2829  1.2382
11617TIP3    H256343   5.723   5.556   2.660 -0.3081  1.0084 -0.0155
11618TIP3   OH256344   1.205   3.124  16.303 -0.5109  0.2315  0.4481
11618TIP3    H156345   1.232   3.215  16.310 -1.3828  0.4868  0.4905
11618TIP3    H256346   1.187   3.097  16.393  0.3298 -0.1675  0.5041
11619TIP3   OH256347   5.507   6.623  13.470 -0.0484 -0.3775  0.2632
11619TIP3    H156348   5.480   6.711  13.443 -0.6296 -0.6115  0.0887
11619TIP3    H256349   5.588   6.638  13.520 -0.2331  0.2699  0.3775
11620TIP3   OH256350   4.677   1.842   4.478 -0.1875  0.4445 -0.0953
11620TIP3    H156351   4.675   1.937   4.463  0.1267  0.7252  1.5355
11620TIP3    H256352   4.644   1.832   4.567  0.2578 -0.9420 -0.0860
11621TIP3   OH256353   2.512   6.610  14.933 -0.2609 -0.1870  0.0564
11621TIP3    H156354   2.557   6.639  14.853 -0.4178  0.4202  0.1874
11621TIP3    H256355   2.436   6.667  14.940  0.1327  0.2311  1.0248
11622TIP3   OH256356   0.281   2.339   0.551 -0.1238 -0.1529 -0.7489
11622TIP3    H156357   0.210   2.308   0.607 -0.2749  0.2436 -0.7263
11622TIP3    H256358   0.284   2.275   0.480  1.2537 -1.7145  0.6506
11623TIP3   OH256359   0.678   6.119   1.348  0.3092 -0.2130 -0.0421
11623TIP3    H156360   0.730   6.200   1.353  0.3918 -0.2895  0.3917
11623TIP3    H256361   0.591   6.148   1.323 -0.7189  0.4817  4.0652
11624TIP3   OH256362   5.259   1.976  12.517 -0.4251  0.1235 -0.2059
11624TIP3    H156363   5.280   1.892  12.558 -2.0940  0.6392  1.7772
11624TIP3    H256364   5.166   1.970  12.497 -0.1535  0.8193 -1.7382
11625TIP3   OH256365   5.651   2.323   4.627 -0.3553 -0.1512 -0.2522
11625TIP3    H156366   5.623   2.232   4.620  0.1633 -0.4856  1.6111
11625TIP3    H256367   5.660   2.353   4.537  0.0948 -2.1395 -0.8953
11626TIP3   OH256368   2.309   2.683  15.294 -0.5501 -0.4369  0.2484
11626TIP3    H156369   2.271   2.627  15.361 -1.4022  0.2061  0.3159
11626TIP3    H256370   2.368   2.742  15.342  0.3677 -1.2760  0.1734
11627TIP3   OH256371   5.533   0.388  15.781 -0.4865 -0.1592 -0.2900
11627TIP3    H156372   5.467   0.320  15.795 -0.2065 -0.7247 -1.6264
11627TIP3    H256373   5.615   0.347  15.806 -0.6223  0.5503  1.3880
11628TIP3   OH256374   2.642   0.382  11.379 -0.4107 -0.2726  0.6180
11628TIP3    H156375   2.572   0.356  11.319 -0.4901 -1.9472  1.4100
11628TIP3    H256376   2.692   0.302  11.394  1.0543  0.6715  0.8961
11629TIP3   OH256377   0.287   0.544  13.372  0.4928  0.1115  0.2181
11629TIP3    H156378   0.207   0.594  13.391  0.1929 -1.0825  2.2941
11629TIP3    H256379   0.356   0.611  13.366 -0.2379  0.9450  0.9695
11630TIP3   OH256380   0.386   6.189   5.224  0.2897  0.4423  0.1981
11630TIP3    H156381   0.426   6.137   5.294 -2.4657 -3.0957 -0.6889
11630TIP3    H256382   0.413   6.146   5.143 -0.1664  1.8241 -0.7094
11631TIP3   OH256383   1.891   5.267  12.233  0.3264  0.1206 -0.3785
11631TIP3    H156384   1.869   5.202  12.166 -0.3591 -0.3117  0.2592
11631TIP3    H256385   1.965   5.229  12.280  1.3253  0.7868 -1.4043
11632TIP3   OH256386   1.646   5.334  13.022 -0.0065  0.2204  0.1335
11632TIP3    H156387   1.741   5.342  13.034  0.4383  1.1131 -3.5336
11632TIP3    H256388   1.627   5.243  13.045  1.6743  0.0936  1.1224
11633TIP3   OH256389   4.296   3.900  13.164  0.6916  0.7403 -0.6255
11633TIP3    H156390   4.266   3.891  13.073  0.9926  0.0169 -0.6598
11633TIP3    H256391   4.238   3.842  13.213 -0.2041  1.9867 -0.1824
11634TIP3   OH256392   2.266   0.488  12.746  0.6873  0.9385 -0.2118
11634TIP3    H156393   2.247   0.394  12.742  0.4276  1.0561 -2.1835
11634TIP3    H256394   2.180   0.530  12.755  0.7149  1.0485 -0.4649
11635TIP3   OH256395   0.146   0.766   0.064 -0.7192  0.4498  0.0248
11635TIP3    H156396   0.065   0.729   0.100 -0.6511 -1.0643 -1.3462
11635TIP3    H256397   0.186   0.693   0.017  1.0617  1.4075  0.0442
11636TIP3   OH256398   5.042   4.995  13.687  0.1374  0.2424  0.0105
11636TIP3    H156399   5.079   4.917  13.728  0.9892 -0.2164 -1.6009
11636TIP3    H256400   5.072   5.067  13.743  0.9587 -0.4084  0.4299
11637TIP3   OH256401   5.867   4.077  12.996  0.0143  0.5780 -0.1250
11637TIP3    H156402   5.868   4.010  12.927 -0.5249  0.9059 -0.4583
11637TIP3    H256403   5.947   4.062  13.045 -0.1553 -0.3916 -0.1271
11638TIP3   OH256404   2.075   0.408  10.487 -0.3565  0.4276  0.3803
11638TIP3    H156405   2.027   0.489  10.466  0.3145  0.6343 -0.4038
11638TIP3    H256406   2.164   0.437  10.507 -0.4952  0.0232  1.6248
11639TIP3   OH256407   5.128   2.631  13.804  0.9916  0.1371 -0.0835
11639TIP3    H156408   5.183   2.553  13.815  0.0719 -0.6613 -1.1486
11639TIP3    H256409   5.181   2.702  13.841  1.5883 -1.0786  1.4605
11640TIP3   OH256410   3.394   5.992   3.698 -0.3076 -0.5236 -0.3722
11640TIP3    H156411   3.453   5.991   3.622  0.6477  1.2776  0.3017
11640TIP3    H256412   3.311   5.960   3.664  0.7201 -1.9009 -1.6503
11641TIP3   OH256413   1.846   6.613  15.995  0.4460  0.6663 -0.0230
11641TIP3    H156414   1.922   6.599  16.051  0.7840  0.2445 -0.5873
11641TIP3    H256415   1.838   6.533  15.943 -0.5429  0.6008  0.2152
11642TIP3   OH256416   3.929   2.420  15.975 -0.0031  0.2744  0.2871
11642TIP3    H156417   3.996   2.479  16.008 -1.8323  2.8156 -0.3215
11642TIP3    H256418   3.943   2.418  15.881  0.2852 -0.5956  0.3435
11643TIP3   OH256419   2.454   1.627   4.485 -0.0096  0.2911  0.5295
11643TIP3    H156420   2.526   1.608   4.425  1.9977  2.0291  2.2965
11643TIP3    H256421   2.384   1.660   4.428  0.6921 -1.1025 -1.1754
11644TIP3   OH256422   3.373   4.459   5.992 -0.1363 -0.3691  0.1541
11644TIP3    H156423   3.389   4.366   6.011  0.1903 -0.5696 -1.1089
11644TIP3    H256424   3.442   4.484   5.931 -1.1393  0.3030 -0.7224
11645TIP3   OH256425   1.961   5.983  13.220 -0.3505 -0.1630  0.5324
11645TIP3    H156426   1.922   5.910  13.172 -0.6508  1.0197 -1.0455
11645TIP3    H256427   1.921   6.061  13.182  0.8682  0.8892  1.3761
11646TIP3   OH256428   1.311   5.670   3.817  0.6397 -0.2343 -0.3708
11646TIP3    H156429   1.319   5.731   3.890  1.4229 -0.1627 -0.5139
11646TIP3    H256430   1.393   5.678   3.769  0.8457 -1.5583 -0.2674
11647TIP3   OH256431   4.532   3.222  12.170  0.4829 -0.6849  0.3512
11647TIP3    H156432   4.509   3.250  12.259 -1.1219 -0.8112  0.0030
11647TIP3    H256433   4.589   3.290  12.137 -1.1185  0.7720  0.5138
11648TIP3   OH256434   6.756   4.756   4.306 -0.0774 -0.0585  0.3247
11648TIP3    H156435   6.719   4.842   4.328 -0.4844 -0.2430  0.3517
11648TIP3    H256436   6.681   4.696   4.306 -0.2163  0.0732 -2.3881
11649TIP3   OH256437   5.000   5.020  15.328  0.4089 -0.0423  0.7163
11649TIP3    H156438   4.962   5.106  15.343  1.3891  0.2136  1.8049
11649TIP3    H256439   4.982   5.001  15.236 -0.7122  0.8735  0.7414
11650TIP3   OH256440   2.086   6.778   3.216 -0.4788 -0.3988 -0.0877
11650TIP3    H156441   2.114   6.866   3.188 -0.4674 -0.8135 -1.3836
11650TIP3    H256442   2.078   6.728   3.135 -2.0916 -1.1388  0.5133
11651TIP3   OH256443   3.084   1.012  15.714  0.4763 -0.0039  0.1526
11651TIP3    H156444   3.108   1.027  15.806 -0.3185 -2.9050  0.8680
11651TIP3    H256445   3.112   0.923  15.696  1.1705  0.7343 -2.6476
11652TIP3   OH256446   6.352   0.264   3.059 -0.0491 -0.1532  0.1081
11652TIP3    H156447   6.287   0.263   3.130 -1.0861 -0.1051 -0.8345
11652TIP3    H256448   6.416   0.198   3.085 -0.3622 -0.0564  1.1500
11653TIP3   OH256449   0.517   6.078  13.310 -0.0729  0.2186  0.1972
11653TIP3    H156450   0.493   6.091  13.401 -0.5252 -0.3092  0.1562
11653TIP3    H256451   0.606   6.044  13.313 -0.8270 -1.8202  0.5500
11654TIP3   OH256452   6.675   5.468  16.849  0.0535 -0.5330  0.0048
11654TIP3    H156453   6.592   5.516  16.858 -0.0686 -0.5310 -1.1335
11654TIP3    H256454   6.678   5.443  16.757 -0.1887 -3.2690  0.7189
11655TIP3   OH256455   4.499   3.335   3.818  0.4965  0.5405 -0.2348
11655TIP3    H156456   4.493   3.391   3.896  2.4132  0.9847 -0.3897
11655TIP3    H256457   4.479   3.247   3.850 -0.8246  1.0333  0.3415
11656TIP3   OH256458   0.387   1.785  16.274  0.2683 -0.6077 -0.3847
11656TIP3    H156459   0.476   1.767  16.305  0.0621 -1.1218 -0.0733
11656TIP3    H256460   0.398   1.849  16.204  0.7205  0.6820  0.8582
11657TIP3   OH256461   4.038   6.487   2.908 -0.1234 -0.0760  0.2044
11657TIP3    H156462   3.968   6.429   2.938  0.4347 -1.2189 -0.6649
11657TIP3    H256463   3.994   6.550   2.851 -0.2300 -1.8024 -1.6877
11658TIP3   OH256464   0.853   1.599   2.639  0.2784 -0.2870 -0.1780
11658TIP3    H156465   0.894   1.677   2.676 -1.1604  0.4562 -0.0958
11658TIP3    H256466   0.911   1.527   2.662  1.5962  0.7613 -0.2130
11659TIP3   OH256467   6.051   3.953  13.157 -0.0258 -0.4197  0.0744
11659TIP3    H156468   6.061   3.868  13.113 -0.1678  0.7385 -2.2874
11659TIP3    H256469   5.985   3.938  13.225 -0.5140 -2.0491 -0.7369
11660TIP3   OH256470   2.033   1.254   2.099 -0.3563 -0.8360  0.3079
11660TIP3    H156471   2.004   1.278   2.011 -2.4067 -1.4755  0.7989
11660TIP3    H256472   2.126   1.278   2.100 -0.9484  1.7408 -1.1083
11661TIP3   OH256473   4.487   1.156  14.961 -1.0689 -0.7424  0.0342
11661TIP3    H156474   4.453   1.240  14.929  2.1660  0.2724 -0.8898
11661TIP3    H256475   4.492   1.101  14.883 -0.0307 -0.6643  0.0376
11662TIP3   OH256476   2.630   2.855   3.842 -0.2147 -0.1550  0.1388
11662TIP3    H156477   2.583   2.778   3.810  0.3737 -0.9484  1.1332
11662TIP3    H256478   2.569   2.927   3.831 -0.3083 -0.5335 -2.0141
11663TIP3   OH256479   4.210   4.547   2.487 -0.0510  0.0303  0.0452
11663TIP3    H156480   4.278   4.615   2.486 -1.1627  1.1649  0.3333
11663TIP3    H256481   4.128   4.595   2.494 -0.7928 -1.3795  1.5568
11664TIP3   OH256482   4.172   6.379   0.472  0.3245  0.5279 -1.0841
11664TIP3    H156483   4.238   6.446   0.454 -0.9101  1.1658 -3.4256
11664TIP3    H256484   4.130   6.363   0.387 -2.3232 -0.0464  0.2754
11665TIP3   OH256485   5.132   6.529  10.436 -0.0020  0.6467 -0.1023
11665TIP3    H156486   5.069   6.589  10.476 -1.0015  0.4769 -1.4189
11665TIP3    H256487   5.175   6.581  10.368  0.6862  0.5093  0.2241
11666TIP3   OH256488   5.533   0.855  14.763 -0.5235  0.0971  0.4942
11666TIP3    H156489   5.487   0.775  14.737  0.9756 -0.3439 -0.8763
11666TIP3    H256490   5.554   0.898  14.680 -1.2398  1.8813  1.2133
11667TIP3   OH256491   1.504   3.887  12.531 -0.0440  0.3234  0.1815
11667TIP3    H156492   1.501   3.875  12.436 -0.0421 -0.4341  0.2713
11667TIP3    H256493   1.589   3.930  12.547 -0.6662  1.7651 -0.2818
11668TIP3   OH256494   2.281   6.077  16.234  0.0589 -0.4671  0.3312
11668TIP3    H156495   2.300   6.097  16.326 -0.3268 -2.5855  0.9166
11668TIP3    H256496   2.367   6.070  16.192  0.2212  1.0991  0.3745
11669TIP3   OH256497   5.819   2.044  11.742  0.2334 -0.5462 -0.5659
11669TIP3    H156498   5.873   2.122  11.726  1.3347 -1.3659 -0.9295
11669TIP3    H256499   5.785   2.020  11.656  1.7425 -1.7709 -0.8572
11670TIP3   OH256500   3.729   6.047   1.344 -0.3825 -0.3617 -0.5542
11670TIP3    H156501   3.814   6.083   1.371 -0.6007 -0.2719  0.0304
11670TIP3    H256502   3.749   5.959   1.312  0.3678  0.7491 -3.3240
11671TIP3   OH256503   4.285   5.665  13.457 -0.0863 -0.5096 -0.1149
11671TIP3    H156504   4.222   5.665  13.529 -1.8294 -1.4054 -1.6115
11671TIP3    H256505   4.281   5.753  13.421 -0.2379 -0.4748 -0.0112
11672TIP3   OH256506   5.706   4.207  16.689  0.1537  0.1714 -0.2101
11672TIP3    H156507   5.690   4.296  16.657 -0.2921  0.2142  0.1219
11672TIP3    H256508   5.619   4.176  16.717  0.5009  0.0516  0.7450
11673TIP3   OH256509   5.875   5.017  13.025  0.1979  0.8505  0.0415
11673TIP3    H156510   5.831   5.068  12.957 -0.2758  2.0604  1.2165
11673TIP3    H256511   5.815   4.944  13.042 -0.4780  1.4457  0.2873
11674TIP3   OH256512   6.735   2.909   0.563 -0.2410  0.2070  0.3182
11674TIP3    H156513   6.785   2.990   0.557  0.7594 -0.5055 -1.1707
11674TIP3    H256514   6.802   2.840   0.563 -1.0394 -0.6154  2.2302
11675TIP3   OH256515   4.496   1.746  12.392  0.3412  0.4515  0.9597
11675TIP3    H156516   4.486   1.760  12.298 -0.1509  1.4355  1.1493
11675TIP3    H256517   4.588   1.721  12.403 -0.1537 -1.9346 -0.0385
11676TIP3   OH256518   5.676   3.272  13.675 -0.0709  0.5108  0.0550
11676TIP3    H156519   5.733   3.347  13.659  0.3781  0.1923  0.1763
11676TIP3    H256520   5.615   3.302  13.743 -0.7152  1.1983 -0.8090
11677TIP3   OH256521   4.652   4.785   3.510  0.1492  0.1812  0.3983
11677TIP3    H156522   4.669   4.859   3.570 -0.4892  0.2723  0.4706
11677TIP3    H256523   4.733   4.776   3.460  0.1568  1.0816  0.2304
11678TIP3   OH256524   0.518   4.716  13.464 -0.3246  0.0811 -0.7116
11678TIP3    H156525   0.476   4.631  13.449  0.6972 -0.7349  0.8903
11678TIP3    H256526   0.571   4.730  13.387 -1.1339 -0.3526 -1.3578
11679TIP3   OH256527   0.245   3.258  16.182  0.5467 -0.1097 -0.1209
11679TIP3    H156528   0.200   3.326  16.132  0.6516  0.3275  0.3771
11679TIP3    H256529   0.188   3.242  16.257 -0.3419 -1.8150 -1.1402
11680TIP3   OH256530   0.078   0.090   4.185  0.2075 -0.4799  0.3702
11680TIP3    H156531   0.136   0.161   4.158  1.0028 -1.3646 -0.2596
11680TIP3    H256532   0.002   0.134   4.222  0.5493  0.7082 -0.3314
11681TIP3   OH256533   1.920   1.424   5.365  0.1456 -0.0191 -0.0339
11681TIP3    H156534   1.999   1.446   5.316  0.2687  0.7039  0.4812
11681TIP3    H256535   1.869   1.368   5.306  0.5191  0.4389 -0.7897
11682TIP3   OH256536   0.862   5.371   0.278 -0.4406 -0.4256 -0.1025
11682TIP3    H156537   0.794   5.386   0.213 -1.6713 -0.8055  1.0753
11682TIP3    H256538   0.819   5.387   0.362  0.4836 -2.2573  0.7447
11683TIP3   OH256539   2.641   2.400   3.996  0.2154  0.4229 -0.1658
11683TIP3    H156540   2.687   2.337   4.052 -1.2768 -0.4269  0.1052
11683TIP3    H256541   2.711   2.458   3.965  1.2520  0.1888  1.6084
11684TIP3   OH256542   0.026   5.003   2.410 -0.1875  0.5495  0.1040
11684TIP3    H156543   0.067   5.089   2.420 -1.0833  1.0415 -0.3996
11684TIP3    H256544  -0.010   5.005   2.321  1.3024 -0.9939 -0.5564
11685TIP3   OH256545   2.261   5.154  11.671 -0.1998 -0.4648 -0.0233
11685TIP3    H156546   2.263   5.233  11.617 -2.0656 -0.0172  0.5309
11685TIP3    H256547   2.218   5.089  11.617  1.0583 -1.0453 -0.3609
11686TIP3   OH256548   5.619   0.062   3.615  0.3522 -0.4455 -0.0822
11686TIP3    H156549   5.636   0.027   3.527 -1.7825  1.7330 -1.4575
11686TIP3    H256550   5.650   0.153   3.611 -0.1293 -0.2074  1.2780
11687TIP3   OH256551   1.938   4.943   2.022  0.0451  0.0634  0.3627
11687TIP3    H156552   2.004   4.956   1.953  0.0186  0.9171  0.4846
11687TIP3    H256553   1.983   4.967   2.103 -0.4187  0.6648  0.4458
11688TIP3   OH256554   1.226   4.931   4.614 -0.2604 -0.2904  0.2678
11688TIP3    H156555   1.311   4.975   4.608 -1.5088  1.9996 -1.4458
11688TIP3    H256556   1.234   4.854   4.557  0.8819 -0.5110  0.7142
11689TIP3   OH256557   4.341   4.292   0.849  0.8762  0.3317  0.0655
11689TIP3    H156558   4.349   4.317   0.941  0.4092 -2.6718  0.9816
11689TIP3    H256559   4.264   4.339   0.818  0.7355  0.9699  1.3535
11690TIP3   OH256560   0.349   6.634  15.362  0.6177 -0.1412  0.5620
11690TIP3    H156561   0.341   6.652  15.455 -0.6449 -0.6894  0.5822
11690TIP3    H256562   0.369   6.719  15.322 -2.2882  0.8150  0.9739
11691TIP3   OH256563   2.829   3.581  11.386  0.5337 -0.3244 -0.4335
11691TIP3    H156564   2.774   3.520  11.335  0.1740 -0.4361  0.0821
11691TIP3    H256565   2.767   3.625  11.445  0.7241  0.8495 -1.0929
11692TIP3   OH256566   6.482   3.948  17.269  0.3877  0.1344  0.6312
11692TIP3    H156567   6.478   4.040  17.293  2.2366  0.1350  0.9503
11692TIP3    H256568   6.456   3.901  17.348 -2.2749  0.4003 -0.0303
11693TIP3   OH256569   2.256   4.871  16.795  0.0209  0.5801 -0.3352
11693TIP3    H156570   2.345   4.836  16.789 -0.0793  0.2126  0.2655
11693TIP3    H256571   2.201   4.804  16.753 -0.2667 -0.3710  1.5217
11694TIP3   OH256572   4.904   4.533  11.761  0.2696  0.3521 -0.3366
11694TIP3    H156573   4.935   4.479  11.834  2.1328  1.7735 -0.0401
11694TIP3    H256574   4.809   4.518  11.758  0.6174 -2.1897  0.3208
11695TIP3   OH256575   1.889   1.205   0.934 -0.6265  0.2988 -0.2096
11695TIP3    H156576   1.935   1.224   1.015  1.8328  1.6831 -1.8657
11695TIP3    H256577   1.917   1.274   0.873  0.7536 -2.8801 -3.4033
11696TIP3   OH256578   2.635   3.201  11.789 -0.4472 -0.4492 -0.0947
11696TIP3    H156579   2.603   3.124  11.743  0.5517 -1.4177  0.8081
11696TIP3    H256580   2.726   3.182  11.809 -0.3540  0.7074  0.6750
11697TIP3   OH256581   0.659   4.628   2.031 -0.0910 -0.1407 -0.4107
11697TIP3    H156582   0.754   4.630   2.038 -0.1652 -0.5894  0.7441
11697TIP3    H256583   0.635   4.538   2.050 -0.8194  0.1959  0.3158
11698TIP3   OH256584   3.035   2.050   1.384 -0.1352 -0.2928 -0.3508
11698TIP3    H156585   2.957   2.105   1.382  0.3406  0.4833  1.4445
11698TIP3    H256586   3.070   2.061   1.473 -0.8041 -4.6079  0.5332
11699TIP3   OH256587   6.799   1.886  13.090  0.0077 -0.0110  0.1748
11699TIP3    H156588   6.796   1.958  13.153  1.3561  0.6607 -0.4933
11699TIP3    H256589   6.715   1.890  13.044 -0.4644  0.2961  1.0531
11700TIP3   OH256590   2.750   5.141   2.876 -0.0761 -0.1052  0.0431
11700TIP3    H156591   2.785   5.158   2.964 -1.0428  1.2641  0.1771
11700TIP3    H256592   2.656   5.133   2.889 -0.3623  1.3305 -1.0309
11701TIP3   OH256593   4.429   0.783   3.215 -1.0190  0.0976  0.3562
11701TIP3    H156594   4.377   0.724   3.160 -0.7270 -0.0620  0.2540
11701TIP3    H256595   4.481   0.835   3.154  0.3126 -1.0170  0.5361
11702TIP3   OH256596   0.550   3.704  14.462  0.2955  0.3686  0.3378
11702TIP3    H156597   0.594   3.788  14.449  0.3765  0.5011  1.4181
11702TIP3    H256598   0.460   3.728  14.485 -0.2294  0.1087 -1.3707
11703TIP3   OH256599   3.589   0.599  11.952  0.5849 -0.2004  0.1620
11703TIP3    H156600   3.567   0.525  12.009 -0.0272  0.9722  1.5016
11703TIP3    H256601   3.681   0.616  11.970  0.9285 -1.1032 -0.7114
11704TIP3   OH256602   1.884   0.355   0.373  0.2373  0.3503  0.0447
11704TIP3    H156603   1.800   0.310   0.373  1.5204 -2.1628  0.7922
11704TIP3    H256604   1.890   0.394   0.285 -1.1983 -0.4040 -0.4055
11705TIP3   OH256605   3.098   1.546  16.266  0.2828 -0.6312  0.4193
11705TIP3    H156606   3.157   1.540  16.191 -0.2935 -0.7330 -0.0314
11705TIP3    H256607   3.020   1.498  16.239 -1.3401  2.3427 -0.2748
11706TIP3   OH256608   4.154   5.195   5.074  0.2752 -0.1831 -0.4377
11706TIP3    H156609   4.158   5.254   5.149  3.5332  0.5679 -1.1081
11706TIP3    H256610   4.069   5.152   5.081 -1.0863  2.6709  1.5333
11707TIP3   OH256611   0.875   2.701   4.949 -0.5366 -0.3071 -0.1668
11707TIP3    H156612   0.945   2.668   4.893 -0.6341  0.7496 -0.9116
11707TIP3    H256613   0.842   2.778   4.904  0.6291  1.6782  2.2477
11708TIP3   OH256614   6.689   2.047  14.899  0.1650 -0.1349  0.5927
11708TIP3    H156615   6.680   2.065  14.992 -1.0215  1.6514  0.1629
11708TIP3    H256616   6.645   2.121  14.856  2.5858  0.2102 -1.4132
11709TIP3   OH256617   2.004   4.435  15.132  0.0773  0.5611  0.2429
11709TIP3    H156618   2.056   4.458  15.055  0.0908  1.5231  0.5414
11709TIP3    H256619   2.069   4.426  15.202 -0.0263  0.4991  0.3315
11710TIP3   OH256620   0.559   4.513  16.112 -0.2307  0.3135 -0.2118
11710TIP3    H156621   0.609   4.432  16.102  0.4092  0.4868  1.4516
11710TIP3    H256622   0.604   4.561  16.181 -0.5178  2.1653 -1.2810
11711TIP3   OH256623   0.269   1.755  14.227 -0.3814  0.3632  0.3188
11711TIP3    H156624   0.265   1.660  14.231 -2.5418  0.4330 -0.0203
11711TIP3    H256625   0.257   1.776  14.134 -1.2937  1.0309  0.5842
11712TIP3   OH256626   1.827   2.335  11.308  0.1030  0.3507 -0.4781
11712TIP3    H156627   1.793   2.256  11.267 -0.3604 -1.3441  3.0166
11712TIP3    H256628   1.778   2.406  11.267 -2.3053 -1.4719 -0.8781
11713TIP3   OH256629   2.688   4.076   4.899 -0.0414  0.6942 -0.1515
11713TIP3    H156630   2.616   4.036   4.850 -0.9810  0.8283  1.1251
11713TIP3    H256631   2.657   4.163   4.922  0.0077  0.2750  1.5537
11714TIP3   OH256632   2.887   1.165   5.104 -0.2859 -0.5304 -0.3303
11714TIP3    H156633   2.912   1.185   5.195 -0.5630  0.3068 -0.4306
11714TIP3    H256634   2.907   1.245   5.056  0.2486 -1.1184 -1.0968
11715TIP3   OH256635   6.271   5.514   5.281 -0.1449  0.0737  0.1832
11715TIP3    H156636   6.331   5.467   5.339 -0.3551 -0.8057 -0.3112
11715TIP3    H256637   6.271   5.604   5.314 -0.3476 -0.4449  1.6249
11716TIP3   OH256638   5.469   1.667  16.601  0.1903 -0.4169 -0.5893
11716TIP3    H156639   5.542   1.679  16.660 -0.1226 -1.1164 -0.0557
11716TIP3    H256640   5.443   1.755  16.576  0.2270 -0.1112  0.4349
11717TIP3   OH256641   4.326   1.332   1.598  0.1919  0.1371  0.1621
11717TIP3    H156642   4.376   1.329   1.679  2.0451 -1.4497 -1.0043
11717TIP3    H256643   4.274   1.251   1.598  1.5794 -0.7687 -1.0762
11718TIP3   OH256644   0.024   2.592  15.830  0.1033  0.5985  0.5202
11718TIP3    H156645  -0.056   2.590  15.777  0.1253  1.8307  0.4455
11718TIP3    H256646   0.086   2.641  15.777  0.5851  0.5672  1.0536
11719TIP3   OH256647   4.382   3.993   0.155  0.3074 -0.6288  0.1268
11719TIP3    H156648   4.359   3.962   0.068  0.1128  0.6726 -0.2948
11719TIP3    H256649   4.401   4.087   0.144  0.2574 -0.4381  1.4738
11720TIP3   OH256650   1.599   0.857  14.637 -0.2251 -0.7258  0.1287
11720TIP3    H156651   1.526   0.885  14.582  0.3963  0.3640 -0.1588
11720TIP3    H256652   1.658   0.932  14.638  1.4184 -1.9710 -0.5510
11721TIP3   OH256653   0.149   4.419   4.432 -0.0046  0.2409 -0.2959
11721TIP3    H156654   0.067   4.457   4.399 -0.1913  2.4554  2.5323
11721TIP3    H256655   0.120   4.360   4.502  0.7511  0.0869 -0.1178
11722TIP3   OH256656   4.080   6.311  11.170  0.3514  0.1520  0.6212
11722TIP3    H156657   4.089   6.328  11.076  0.9701 -1.1116  0.4462
11722TIP3    H256658   3.995   6.349  11.193  0.2484  0.5738 -0.4161
11723TIP3   OH256659   4.471   4.481   0.576  0.1029  0.1210 -0.2503
11723TIP3    H156660   4.490   4.493   0.669 -0.4228 -1.3612  0.0732
11723TIP3    H256661   4.557   4.477   0.534  0.3504  0.4459  0.2192
11724TIP3   OH256662   1.798   0.419   2.279  0.2937  0.1362  0.5997
11724TIP3    H156663   1.812   0.324   2.287  0.3420  0.2600  2.2631
11724TIP3    H256664   1.824   0.440   2.190 -0.9839 -1.6367 -0.2302
11725TIP3   OH256665   6.327   6.789  13.033  0.4241  0.2199  0.0251
11725TIP3    H156666   6.267   6.755  13.100  0.7980  0.4795  0.4896
11725TIP3    H256667   6.390   6.718  13.019 -0.0354 -0.0846 -0.5217
11726TIP3   OH256668   5.762   5.557   3.259  0.6851 -0.1332 -0.5074
11726TIP3    H156669   5.857   5.547   3.255  0.7705  0.8620 -0.9617
11726TIP3    H256670   5.738   5.595   3.174 -0.2891 -1.7397 -0.9875
11727TIP3   OH256671   2.914   4.341  13.721 -0.3262  0.0403 -0.0557
11727TIP3    H156672   2.913   4.272  13.788  1.3850 -0.0427 -0.0825
11727TIP3    H256673   2.823   4.366  13.710 -0.7461 -0.8038  1.4349
11728TIP3   OH256674   1.981   4.067   5.378  0.9263  0.3957 -0.2059
11728TIP3    H156675   2.068   4.057   5.340  1.2355  0.9439  0.3582
11728TIP3    H256676   1.989   4.141   5.438  0.4618 -0.5025  0.9830
11729TIP3   OH256677   2.174   2.587  11.464  0.4929  0.1198  0.2391
11729TIP3    H156678   2.172   2.497  11.431  0.6353 -0.6948  2.3421
11729TIP3    H256679   2.086   2.620  11.450  0.1512 -0.7202  0.3949
11730TIP3   OH256680   6.658   1.388   6.569  0.3337  0.2556  0.1504
11730TIP3    H156681   6.680   1.303   6.529  1.1535 -0.4175  1.9784
11730TIP3    H256682   6.577   1.415   6.526  0.1096 -1.4200 -0.5057
11731TIP3   OH256683   3.270   5.280   4.888  0.5793 -0.0138  0.0569
11731TIP3    H156684   3.177   5.293   4.870  0.5193 -0.2459  0.1931
11731TIP3    H256685   3.286   5.189   4.865  0.8155  0.0782 -0.1421
11732TIP3   OH256686   2.983   3.015  16.944  0.4213  0.5718  0.4071
11732TIP3    H156687   3.052   2.951  16.926  0.4243  0.5184  0.5995
11732TIP3    H256688   2.926   3.012  16.868  1.5976  1.8837 -0.5536
11733TIP3   OH256689   0.093   4.394   3.321  0.0302  0.1115  0.7123
11733TIP3    H156690   0.155   4.332   3.358 -1.0451 -1.2327  0.3030
11733TIP3    H256691   0.050   4.434   3.396  1.3723  1.0659  0.9995
11734TIP3   OH256692   3.194   0.815   0.394  0.0194  0.7615 -0.6636
11734TIP3    H156693   3.197   0.719   0.389  0.1286  0.8432 -3.4303
11734TIP3    H256694   3.164   0.842   0.307 -2.8147  3.1593  0.9744
11735TIP3   OH256695   3.829   3.538   3.021 -0.0611 -0.0386  0.2566
11735TIP3    H156696   3.917   3.500   3.016 -0.6554 -1.2701 -1.3648
11735TIP3    H256697   3.823   3.572   3.110  2.1381  0.2850  0.3265
11736TIP3   OH256698   6.591   6.197  14.807 -0.3243 -0.3467  0.1781
11736TIP3    H156699   6.637   6.116  14.829 -1.1636 -1.9250 -3.4377
11736TIP3    H256700   6.519   6.202  14.870  1.8058 -0.4709  2.7063
11737TIP3   OH256701   1.117   2.469   0.552 -0.4569 -1.1816  0.0100
11737TIP3    H156702   1.137   2.424   0.634 -2.8409 -0.3213  1.1304
11737TIP3    H256703   1.196   2.459   0.498  0.8241 -2.4906  2.0764
11738TIP3   OH256704   0.319   6.012   3.380  0.0601  0.0943  0.8482
11738TIP3    H156705   0.295   6.002   3.288 -0.7249 -0.0768  1.0699
11738TIP3    H256706   0.410   6.044   3.377  0.3664 -0.8071  0.0359
11739TIP3   OH256707   0.877   2.292  10.502 -0.4647 -0.3739 -0.1294
11739TIP3    H156708   0.790   2.332  10.500 -0.9069 -1.3281 -0.2746
11739TIP3    H256709   0.879   2.244  10.584  0.6421  1.1926  0.7864
11740TIP3   OH256710   4.925   6.209  12.816  0.4650 -0.3782 -0.4322
11740TIP3    H156711   4.864   6.265  12.767  0.0562 -2.3639 -2.2927
11740TIP3    H256712   5.009   6.220  12.770  1.0516  0.7723  0.8759
11741TIP3   OH256713   2.165   4.879   0.488  0.1539 -0.0209 -0.2913
11741TIP3    H156714   2.157   4.867   0.393 -3.8915  2.0667 -0.3264
11741TIP3    H256715   2.200   4.795   0.520  0.3404 -1.2218 -3.4772
11742TIP3   OH256716   5.684   2.114  14.260 -0.0389  0.8619 -0.2795
11742TIP3    H156717   5.674   2.195  14.210  0.9395  0.4742 -1.1318
11742TIP3    H256718   5.743   2.060  14.207  0.0361 -0.0519  0.7090
11743TIP3   OH256719   2.118   3.651   1.207 -0.0675 -0.2320 -0.2365
11743TIP3    H156720   2.191   3.621   1.263  0.9613  1.7656 -0.4474
11743TIP3    H256721   2.071   3.571   1.184  0.5857 -1.2951  1.9809
11744TIP3   OH256722   4.435   3.015   5.062 -0.5639 -0.0822  0.0455
11744TIP3    H156723   4.448   3.067   5.141 -1.0675 -0.4242  0.3522
11744TIP3    H256724   4.380   3.069   5.006 -1.4169 -0.4418  0.5249
11745TIP3   OH256725   6.559   0.589   6.089  0.4082 -0.1669 -0.6017
11745TIP3    H156726   6.532   0.540   6.167  1.2032  0.5352  0.1164
11745TIP3    H256727   6.637   0.636   6.116 -0.5038  1.7417 -1.2069
11746TIP3   OH256728   5.533   6.523   3.612 -0.2015  0.3938  0.3665
11746TIP3    H156729   5.537   6.454   3.678  0.7599  0.0547 -0.0343
11746TIP3    H256730   5.455   6.574   3.635  0.3426  0.5264  2.0026
11747TIP3   OH256731   3.807   5.795  16.962 -0.4911  0.5543  0.0466
11747TIP3    H156732   3.791   5.703  16.982 -0.7354  0.4604 -0.5706
11747TIP3    H256733   3.720   5.836  16.963 -0.3735  0.7992  0.4163
11748TIP3   OH256734   4.827   4.483  13.594 -0.2404  0.7238 -0.3838
11748TIP3    H156735   4.781   4.429  13.530  0.5585 -0.2441 -0.1448
11748TIP3    H256736   4.838   4.426  13.670  1.8186  0.7728 -0.6290
11749TIP3   OH256737   1.479   4.950  14.308  0.2464 -0.4597  0.0568
11749TIP3    H156738   1.535   5.017  14.346 -0.1388 -0.3016  0.3476
11749TIP3    H256739   1.391   4.970  14.340 -0.2017  0.0760 -1.4628
11750TIP3   OH256740   6.401   2.473   5.511  0.5358  0.1401 -0.0664
11750TIP3    H156741   6.401   2.561   5.548 -0.9323 -0.1057  0.5269
11750TIP3    H256742   6.313   2.462   5.475  0.3196 -1.5479  0.9488
11751TIP3   OH256743   0.074   0.125  11.456  0.1668 -0.8066 -0.1882
11751TIP3    H156744   0.049   0.083  11.538 -2.6337  1.9669  0.4597
11751TIP3    H256745   0.164   0.154  11.469 -0.2851 -0.3353  1.9458
11752TIP3   OH256746   4.410   5.658   1.517  0.0583  0.0480 -0.2367
11752TIP3    H156747   4.482   5.595   1.525  0.3009  0.2279 -0.9430
11752TIP3    H256748   4.333   5.611   1.549  0.7708  0.4114  2.1620
11753TIP3   OH256749   1.142   4.542   3.363  0.1081 -0.4521  0.3826
11753TIP3    H156750   1.172   4.501   3.282 -1.5765  2.3599 -1.7496
11753TIP3    H256751   1.205   4.515   3.429  1.9432 -2.1998 -2.0207
11754TIP3   OH256752   3.943   5.782   6.585 -0.6573 -0.4197 -0.2406
11754TIP3    H156753   4.010   5.716   6.566 -1.1717 -0.4134 -2.1672
11754TIP3    H256754   3.869   5.757   6.530 -1.0112  1.5254 -0.6540
11755TIP3   OH256755   2.083   3.542   0.744  0.0400 -0.2646  0.0820
11755TIP3    H156756   2.115   3.565   0.657 -0.5389  0.2874  0.0125
11755TIP3    H256757   2.096   3.447   0.750  1.5577 -0.0825  0.0042
11756TIP3   OH256758   3.037   0.779  15.043 -0.3369 -0.1910  0.9506
11756TIP3    H156759   3.091   0.807  14.969  0.2077 -1.6581  0.7789
11756TIP3    H256760   3.000   0.695  15.015 -1.5130  0.0771  1.6628
11757TIP3   OH256761   1.502   4.963  13.237  0.1908 -0.1081  0.0985
11757TIP3    H156762   1.414   4.928  13.245  0.4592 -1.0213 -0.8220
11757TIP3    H256763   1.538   4.960  13.326 -1.8383  3.3658  1.1198
11758TIP3   OH256764   0.010   4.129   2.288 -0.4012 -0.2049 -0.3486
11758TIP3    H156765   0.044   4.185   2.357  0.3733  0.6324 -1.3992
11758TIP3    H256766  -0.070   4.172   2.258 -0.7171 -0.5479 -0.0010
11759TIP3   OH256767   4.197   5.292   2.993  1.0609  0.1068 -0.1094
11759TIP3    H156768   4.250   5.361   3.033 -1.6120  2.6307 -0.8206
11759TIP3    H256769   4.112   5.299   3.035  0.2483 -1.6811 -1.4086
11760TIP3   OH256770   5.658   3.926  14.547 -0.1830 -0.1627  0.0256
11760TIP3    H156771   5.568   3.928  14.581 -0.0513  2.3882  0.3381
11760TIP3    H256772   5.710   3.889  14.619 -0.7253  0.0504  0.5319
11761TIP3   OH256773   0.381   2.214  17.205  0.4966 -0.0982  0.1950
11761TIP3    H156774   0.462   2.217  17.154 -0.8787  0.5884 -2.0464
11761TIP3    H256775   0.376   2.300  17.247 -1.0533  1.4154 -2.9463
11762TIP3   OH256776   3.019   0.552   1.325  0.2414  0.3534  0.3258
11762TIP3    H156777   3.110   0.527   1.341 -0.3643 -1.3514  1.1531
11762TIP3    H256778   2.991   0.594   1.406 -0.6967 -2.0868  1.3146
11763TIP3   OH256779   4.692   2.035   5.269  0.1437  0.3958 -0.1534
11763TIP3    H156780   4.734   1.959   5.310 -0.1525 -0.4845 -1.4594
11763TIP3    H256781   4.739   2.111   5.306  2.6233 -0.5337 -1.2496
11764TIP3   OH256782   0.096   5.827   2.717  0.3777 -0.0784  0.0359
11764TIP3    H156783   0.008   5.863   2.724  0.9385  1.4049 -0.1550
11764TIP3    H256784   0.084   5.735   2.695 -1.1191 -0.0111  0.5510
11765TIP3   OH256785   2.774   1.597  13.187 -0.2792  0.8499  0.1727
11765TIP3    H156786   2.810   1.654  13.118  0.0870 -0.4684 -0.7459
11765TIP3    H256787   2.842   1.596  13.254 -0.6148  2.1003  0.5578
11766TIP3   OH256788   1.057   4.505  12.013  0.1349  0.4665  0.0451
11766TIP3    H156789   0.971   4.506  11.971 -0.3023 -0.8568  0.8818
11766TIP3    H256790   1.038   4.503  12.106  1.0946  2.2096  0.2915
11767TIP3   OH256791   6.214   0.856  16.411  0.3164 -0.1992  0.2579
11767TIP3    H156792   6.243   0.947  16.418  0.1028 -0.1529  0.5260
11767TIP3    H256793   6.197   0.844  16.317  1.0839 -0.1929  0.1141
11768TIP3   OH256794   1.711   6.040  11.827 -0.0656  0.0072 -0.0916
11768TIP3    H156795   1.637   6.006  11.776 -0.0383 -0.7395  0.3483
11768TIP3    H256796   1.788   6.015  11.777 -0.0952  0.3910 -0.3247
11769TIP3   OH256797   1.196   0.789   0.419  0.3439  0.0662  0.3199
11769TIP3    H156798   1.143   0.719   0.380 -0.1267 -0.2091  1.4144
11769TIP3    H256799   1.268   0.801   0.358 -1.4166  1.0423 -1.6524
11770TIP3   OH256800   0.373   4.302   2.101  0.1640 -0.0885  0.2395
11770TIP3    H156801   0.460   4.339   2.109  0.3624 -0.5810  0.3882
11770TIP3    H256802   0.320   4.372   2.062  0.9879 -0.3217 -1.3343
11771TIP3   OH256803   6.429   4.748  14.090 -0.2548 -0.2680 -0.1210
11771TIP3    H156804   6.404   4.661  14.120  2.3700 -1.0674 -0.2082
11771TIP3    H256805   6.429   4.802  14.169 -2.1403 -0.2535 -0.1090
11772TIP3   OH256806   6.810   2.420   3.353  0.0253 -0.0114 -0.4732
11772TIP3    H156807   6.783   2.469   3.430  1.8897  0.1692  0.0813
11772TIP3    H256808   6.875   2.357   3.385 -0.6935 -1.3343 -1.5503
11773TIP3   OH256809   3.662   0.386  15.309  0.7922 -0.2149  0.1356
11773TIP3    H156810   3.604   0.367  15.236  1.1430 -0.0815 -0.1758
11773TIP3    H256811   3.605   0.382  15.386  0.2640  0.4213 -0.2148
11774TIP3   OH256812   3.150   0.497   1.753 -0.0965  0.3712 -0.3530
11774TIP3    H156813   3.122   0.550   1.827  2.3036  2.3142 -0.7804
11774TIP3    H256814   3.246   0.494   1.759  0.0233 -1.2178 -2.1823
11775TIP3   OH256815   1.550   5.379  14.209  0.2745  0.1230 -0.0163
11775TIP3    H156816   1.465   5.334  14.213 -0.9864  2.2728 -1.5117
11775TIP3    H256817   1.614   5.308  14.203 -1.2918 -1.5817  2.2211
11776TIP3   OH256818   5.577   0.642   0.376  0.3568  0.0647 -0.0969
11776TIP3    H156819   5.556   0.727   0.339  1.7323  1.0124  1.2468
11776TIP3    H256820   5.599   0.587   0.301 -0.8706  0.7891 -0.9953
11777TIP3   OH256821   0.227   3.037  13.400  0.3136  0.0115  0.1583
11777TIP3    H156822   0.229   2.944  13.423  1.1003  0.0203  0.1406
11777TIP3    H256823   0.259   3.082  13.478 -0.9565  0.3437  0.5050
11778TIP3   OH256824   3.179   6.623  15.311 -0.4135  0.0935 -0.0908
11778TIP3    H156825   3.108   6.568  15.343 -0.2439 -0.7521 -1.1283
11778TIP3    H256826   3.246   6.561  15.282  0.2569  0.8645 -0.2144
11779TIP3   OH256827   3.118   1.794  12.205  0.1734 -0.1292 -0.5649
11779TIP3    H156828   3.110   1.881  12.165 -1.3655 -0.4821 -1.0252
11779TIP3    H256829   3.213   1.783  12.217  0.3727  1.7612 -0.1533
11780TIP3   OH256830   6.248   4.466  12.011  0.0649 -0.3912  0.3649
11780TIP3    H156831   6.171   4.470  12.067 -1.2392  1.5637 -1.4554
11780TIP3    H256832   6.216   4.430  11.928  0.0695  4.1512 -1.8016
11781TIP3   OH256833   2.734   0.238   1.081 -0.4545  0.2941 -0.2555
11781TIP3    H156834   2.813   0.214   1.129 -1.0992 -2.1669 -0.3547
11781TIP3    H256835   2.700   0.315   1.128  0.8918  0.1480  1.0075
11782TIP3   OH256836   1.514   1.331   2.739 -0.0754 -0.0594  0.3756
11782TIP3    H156837   1.428   1.368   2.760  0.1611  0.2607  0.7734
11782TIP3    H256838   1.494   1.255   2.684 -0.5959  0.2379  0.1492
11783TIP3   OH256839   2.768   5.872  10.396  0.1809 -0.1661  0.5296
11783TIP3    H156840   2.719   5.951  10.417  1.2027  0.0928  1.9536
11783TIP3    H256841   2.823   5.896  10.321 -0.9647 -0.1148 -0.3056
11784TIP3   OH256842   1.795   3.250  12.823  0.0663  0.1576 -0.2726
11784TIP3    H156843   1.786   3.166  12.869 -2.6794  0.1247 -0.8284
11784TIP3    H256844   1.845   3.305  12.883 -1.5462 -0.6129  1.8355
11785TIP3   OH256845   0.605   0.556   5.462  0.4346  0.7224  0.6690
11785TIP3    H156846   0.592   0.643   5.499 -0.2233  1.2210 -0.7114
11785TIP3    H256847   0.541   0.500   5.508 -3.6474  2.2406 -2.8302
11786TIP3   OH256848   3.708   4.145   6.010  0.1751  0.4959 -0.2893
11786TIP3    H156849   3.754   4.182   5.934  0.5622 -1.9023 -1.2795
11786TIP3    H256850   3.775   4.139   6.078  1.0055 -1.4734 -1.2156
11787TIP3   OH256851   3.833   3.595  10.597  0.0547  0.8213 -0.3083
11787TIP3    H156852   3.777   3.673  10.601  0.4227  1.1817 -1.7208
11787TIP3    H256853   3.773   3.522  10.582 -0.0803  1.1645 -1.5052
11788TIP3   OH256854   2.048   4.981  15.922  0.2948  0.4723  0.1176
11788TIP3    H156855   2.065   4.901  15.972  1.4392  0.5003 -0.2101
11788TIP3    H256856   2.062   4.956  15.831  0.2524  0.9343 -0.0185
11789TIP3   OH256857   2.910   4.064   4.281 -0.3483 -0.1074  0.1151
11789TIP3    H156858   2.821   4.030   4.275 -0.4110  0.0486  0.1678
11789TIP3    H256859   2.956   4.000   4.336  0.1067 -1.2927 -1.6088
11790TIP3   OH256860   4.773   2.827  15.958  0.6990 -0.2274 -0.2690
11790TIP3    H156861   4.789   2.803  16.050 -0.4743 -0.7367 -0.1876
11790TIP3    H256862   4.860   2.830  15.919  1.5160  2.9798  1.5749
11791TIP3   OH256863   2.635   6.606  12.684 -0.4300 -0.3147  0.7573
11791TIP3    H156864   2.560   6.549  12.668  0.5093 -1.5364  0.5516
11791TIP3    H256865   2.693   6.591  12.609 -0.3857  1.2946  0.4559
11792TIP3   OH256866   0.687   0.349  11.136  0.3559  0.2651 -0.1243
11792TIP3    H156867   0.666   0.256  11.127  1.9986 -0.3208  1.7427
11792TIP3    H256868   0.781   0.354  11.118  0.3180  1.5417 -0.0335
11793TIP3   OH256869   6.539   5.830  15.780  0.1009  0.1969  0.2711
11793TIP3    H156870   6.451   5.850  15.813  0.6973 -1.5418  3.1039
11793TIP3    H256871   6.523   5.769  15.708 -1.0015 -0.7708  1.3095
11794TIP3   OH256872   4.886   3.555   0.839 -0.4518 -0.2378 -0.0006
11794TIP3    H156873   4.933   3.626   0.882  0.4954  0.0333 -1.4357
11794TIP3    H256874   4.804   3.596   0.809 -0.3431 -0.0051  0.0201
11795TIP3   OH256875   4.122   2.383  15.079 -0.4279 -0.0952  0.2595
11795TIP3    H156876   4.181   2.426  15.018 -2.2901  0.8864 -0.8908
11795TIP3    H256877   4.128   2.435  15.159  0.0995  0.1088  0.0910
11796TIP3   OH256878   1.818   4.535  15.388  0.1464  0.5914  0.0967
11796TIP3    H156879   1.756   4.586  15.441 -2.0554 -0.1326 -1.7076
11796TIP3    H256880   1.838   4.459  15.443 -0.6047  0.7917  0.6591
11797TIP3   OH256881   2.793   5.035  12.799  0.7348  0.2177 -0.4478
11797TIP3    H156882   2.756   5.120  12.776  1.1621  0.3409 -0.6945
11797TIP3    H256883   2.868   5.057  12.855  0.7816 -0.0015 -0.4270
11798TIP3   OH256884   4.381   3.627   3.125 -0.6586 -0.1888  0.9123
11798TIP3    H156885   4.407   3.557   3.066 -0.1213 -0.0457  0.9744
11798TIP3    H256886   4.286   3.633   3.116 -0.6921 -0.8497  0.8266
11799TIP3   OH256887   6.228   4.645  17.242 -0.0125  0.5116 -0.0177
11799TIP3    H156888   6.138   4.657  17.270 -0.7438 -0.6133 -1.8133
11799TIP3    H256889   6.269   4.595  17.313 -0.6559  1.4430  1.0191
11800TIP3   OH256890   6.411   5.845  14.604 -0.3581 -0.7136 -0.1776
11800TIP3    H156891   6.447   5.777  14.660  0.0972 -0.4442 -0.1410
11800TIP3    H256892   6.334   5.876  14.651 -0.3909 -0.9898 -0.0481
11801TIP3   OH256893   6.270   6.372   2.770  0.1660 -0.1352 -0.8939
11801TIP3    H156894   6.177   6.392   2.760  0.6368  1.2396 -2.7493
11801TIP3    H256895   6.286   6.300   2.709  0.2665 -0.5773 -0.3529
11802TIP3   OH256896   2.759   4.388   0.770 -0.1288 -0.2025 -0.0009
11802TIP3    H156897   2.664   4.389   0.755  0.1679 -0.4318 -2.0076
11802TIP3    H256898   2.790   4.471   0.734  0.3550  0.2160  1.3434
11803TIP3   OH256899   0.673   5.435   5.364  0.2721  0.1138  0.6633
11803TIP3    H156900   0.639   5.355   5.323  1.0776 -0.2179  0.6335
11803TIP3    H256901   0.752   5.406   5.409  0.1823  0.7657  1.2346
11804TIP3   OH256902   5.049   1.544  15.310 -0.5892  0.2835  1.0489
11804TIP3    H156903   5.027   1.621  15.363 -0.3049  1.6977 -0.8534
11804TIP3    H256904   5.117   1.499  15.360  1.1556  2.7136  0.9420
11805TIP3   OH256905   5.923   4.883   2.206  0.4709  0.5866  0.6756
11805TIP3    H156906   5.896   4.952   2.266  0.5782  1.1511  0.0791
11805TIP3    H256907   5.871   4.898   2.127  1.0916  0.4825  0.2441
11806TIP3   OH256908   5.194   0.902   2.769  0.0275  0.0651 -0.2559
11806TIP3    H156909   5.289   0.891   2.777  0.0126 -0.8149 -1.1826
11806TIP3    H256910   5.170   0.847   2.695 -1.0652  1.1374 -0.7054
11807TIP3   OH256911   2.214   1.142  14.403  0.0819  0.2198  0.3246
11807TIP3    H156912   2.189   1.056  14.371 -0.2918  0.3544  0.2462
11807TIP3    H256913   2.242   1.127  14.494  0.9690 -0.1297 -0.0028
11808TIP3   OH256914   2.382   3.878  13.043 -0.0874  0.2535  0.1604
11808TIP3    H156915   2.313   3.917  13.096 -2.1492 -1.6685 -1.0716
11808TIP3    H256916   2.429   3.821  13.104 -0.3682  0.5769  0.6911
11809TIP3   OH256917   6.459   4.563  14.574  0.3646 -0.0347 -0.0140
11809TIP3    H156918   6.384   4.509  14.549  0.2421 -0.6492  1.6891
11809TIP3    H256919   6.505   4.578  14.491 -0.2233 -1.7643 -0.6810
11810TIP3   OH256920   2.467   2.169  14.718  0.3871  0.2372  0.4890
11810TIP3    H156921   2.407   2.141  14.787 -1.1518 -0.1703 -0.9819
11810TIP3    H256922   2.494   2.257  14.744 -1.8030  0.9040  0.6044
11811TIP3   OH256923   3.752   0.121  15.412 -0.6927 -0.4165  0.0259
11811TIP3    H156924   3.680   0.067  15.443  0.4095 -2.2437 -0.5033
11811TIP3    H256925   3.711   0.203  15.385 -2.5364 -1.3748 -0.1538
11812TIP3   OH256926   1.962   0.050   0.921 -0.1809  0.2302 -0.6681
11812TIP3    H156927   1.983   0.137   0.956 -0.3206  0.8826 -2.1935
11812TIP3    H256928   1.883   0.024   0.969  0.8467  0.1719  1.0485
11813TIP3   OH256929   1.667   2.460   1.861 -0.2590  0.0231 -0.5482
11813TIP3    H156930   1.600   2.514   1.903  0.0366  0.1156 -0.1912
11813TIP3    H256931   1.732   2.523   1.829  0.1235 -0.1155 -0.0662
11814TIP3   OH256932   1.366   3.140   2.154  0.1544  0.3099  0.4725
11814TIP3    H156933   1.405   3.076   2.214 -0.9484 -0.0386  0.8382
11814TIP3    H256934   1.276   3.109   2.141  0.2735  0.5969 -1.0683
11815TIP3   OH256935   6.032   5.142  13.930 -0.0334 -0.2229  0.3898
11815TIP3    H156936   5.942   5.108  13.933 -0.0272 -0.1420  2.4541
11815TIP3    H256937   6.035   5.208  13.999  1.7849 -0.6686  0.7758
11816TIP3   OH256938   6.147   3.409   2.684  0.0342 -0.1586  0.3061
11816TIP3    H156939   6.206   3.388   2.756  0.1401  0.2380  0.3369
11816TIP3    H256940   6.170   3.347   2.615  0.1363 -0.3416  0.5044
11817TIP3   OH256941   1.351   4.435  15.909  0.7393 -0.0625  0.6403
11817TIP3    H156942   1.279   4.393  15.956  2.4169 -1.1865  2.2917
11817TIP3    H256943   1.406   4.362  15.879  1.4815  0.7943 -0.1056
11818TIP3   OH256944   2.720   2.945   4.500  0.0874  0.0661  0.5546
11818TIP3    H156945   2.633   2.908   4.485  0.9177 -1.4223 -0.8741
11818TIP3    H256946   2.719   3.029   4.454 -1.5072  1.4668  3.0135
11819TIP3   OH256947   1.046   1.693  16.360  1.0043 -0.0170  0.2847
11819TIP3    H156948   1.109   1.622  16.347  0.4343 -0.5059  0.1566
11819TIP3    H256949   1.008   1.707  16.273  1.2001  0.5327  0.2842
11820TIP3   OH256950   1.146   6.728  15.310 -0.2352  0.1055 -0.1189
11820TIP3    H156951   1.102   6.654  15.352 -0.1721  0.0772 -0.1032
11820TIP3    H256952   1.098   6.805  15.341  0.3957  0.1555  0.7416
11821TIP3   OH256953   2.022   4.650   1.318 -0.1554 -0.5614  0.0959
11821TIP3    H156954   2.028   4.695   1.233 -1.0799  0.1605  0.4005
11821TIP3    H256955   1.973   4.570   1.299 -0.6369 -0.2470  0.0073
11822TIP3   OH256956   0.721   0.795  15.565  0.1316  0.1481 -0.7853
11822TIP3    H156957   0.699   0.840  15.484 -1.5806  2.0143  0.6693
11822TIP3    H256958   0.697   0.703  15.549 -1.0452  0.6700 -2.0833
11823TIP3   OH256959   3.672   1.856   2.487 -0.5820 -0.0875  0.1694
11823TIP3    H156960   3.758   1.866   2.528 -1.2185  0.2454  1.4583
11823TIP3    H256961   3.615   1.825   2.558 -2.2472  2.7923  0.2120
11824TIP3   OH256962   6.234   1.627   1.487 -0.3760  0.3812 -0.8656
11824TIP3    H156963   6.162   1.666   1.538  0.1223  0.0661  0.0941
11824TIP3    H256964   6.248   1.541   1.527 -0.9981 -0.5142 -2.5345
11825TIP3   OH256965   1.346   1.904  14.340  0.3732 -0.6119  0.5577
11825TIP3    H156966   1.395   1.825  14.321  0.3457 -1.1772  2.7124
11825TIP3    H256967   1.408   1.975  14.325  1.0762 -1.1732  0.7733
11826TIP3   OH256968   2.288   4.476  16.705 -0.1111  0.3610  0.1567
11826TIP3    H156969   2.372   4.504  16.741 -0.6528  1.3594  0.6579
11826TIP3    H256970   2.273   4.534  16.630 -1.2887  1.5205  1.2632
11827TIP3   OH256971   2.218   5.348  17.101 -0.1788  0.1666 -0.1870
11827TIP3    H156972   2.200   5.329  17.009 -1.9566  3.5643 -0.6338
11827TIP3    H256973   2.305   5.313  17.116  0.0003 -0.7793 -3.0663
11828TIP3   OH256974   0.641   4.708   3.497 -0.0666  0.6441  0.0840
11828TIP3    H156975   0.571   4.698   3.432  0.3346 -0.7007 -0.1511
11828TIP3    H256976   0.602   4.678   3.579 -0.5714  2.3373  0.4758
11829TIP3   OH256977   2.671   3.803  10.641 -0.7213 -0.2744 -0.0174
11829TIP3    H156978   2.693   3.890  10.607  1.3501 -0.3446  1.1122
11829TIP3    H256979   2.581   3.813  10.674 -0.8771  1.1513 -0.8203
11830TIP3   OH256980   4.184   1.717  17.290 -0.3857  0.0711  0.1729
11830TIP3    H156981   4.241   1.734  17.365 -0.4882 -1.9165  0.7482
11830TIP3    H256982   4.184   1.798  17.240 -0.0139  1.2981  2.1345
11831TIP3   OH256983   5.777   3.332   5.948 -0.3065  0.4145  0.5798
11831TIP3    H156984   5.715   3.318   6.019 -0.3792  0.6245  0.5557
11831TIP3    H256985   5.732   3.299   5.870 -0.9267  1.8319  0.3336
11832TIP3   OH256986   2.930   4.943   5.733 -0.7806  0.0105 -0.7022
11832TIP3    H156987   2.952   4.914   5.645  0.2208 -0.2933 -0.3658
11832TIP3    H256988   2.922   4.862   5.784 -2.0868  0.1498 -0.6760
11833TIP3   OH256989   3.649   0.980  16.672  0.5899 -0.1754  0.8434
11833TIP3    H156990   3.577   1.040  16.689 -0.3581 -1.2373  0.6312
11833TIP3    H256991   3.700   0.980  16.752 -0.5042 -0.5839  1.5494
11834TIP3   OH256992   0.676   5.231  11.291  0.4863  0.3864 -0.2650
11834TIP3    H156993   0.725   5.273  11.362  1.7877 -0.7610 -0.4809
11834TIP3    H256994   0.703   5.279  11.212 -1.2760  1.9373  0.0382
11835TIP3   OH256995   5.224   1.280  11.979  0.5618  0.3067  0.0567
11835TIP3    H156996   5.262   1.202  11.939 -1.5983 -0.9800  0.4403
11835TIP3    H256997   5.145   1.298  11.927  1.0150  2.2367 -0.0185
11836TIP3   OH256998   6.714   6.240   1.668 -0.3860  1.0373 -0.1110
11836TIP3    H156999   6.736   6.190   1.589 -0.1644  1.3531 -0.2504
11836TIP3    H257000   6.629   6.206   1.696  1.1942 -1.6624  1.6163
11837TIP3   OH257001   0.062   3.106   1.540  0.7003  0.2258 -0.7699
11837TIP3    H157002   0.069   3.122   1.446 -0.7365  2.5233 -0.5166
11837TIP3    H257003  -0.032   3.106   1.557  0.9343 -0.7421  0.5928
11838TIP3   OH257004   0.124   4.744  12.485 -0.1364 -0.1290  0.0189
11838TIP3    H157005   0.034   4.777  12.483 -0.2407 -0.3532  0.9511
11838TIP3    H257006   0.171   4.805  12.542 -0.2033 -1.2554  1.3029
11839TIP3   OH257007   4.194   1.627  12.651  0.0179  0.0616 -0.8280
11839TIP3    H157008   4.153   1.540  12.653 -0.3602  0.2659  0.5006
11839TIP3    H257009   4.169   1.663  12.566  1.5098 -1.7674 -2.0792
11840TIP3   OH257010   2.202   4.594   0.533 -0.3194  0.2304 -0.1434
11840TIP3    H157011   2.239   4.509   0.556 -0.7745  0.3393  1.0585
11840TIP3    H257012   2.162   4.581   0.447 -0.3544 -0.7577  0.0196
11841TIP3   OH257013   2.155   2.415   2.569  0.0547 -0.3286 -0.1325
11841TIP3    H157014   2.081   2.376   2.522  2.1737 -1.5017 -2.5411
11841TIP3    H257015   2.154   2.372   2.655 -0.7307 -1.9451 -0.9330
11842TIP3   OH257016   4.125   3.534   5.600 -0.3438 -0.0944  0.3027
11842TIP3    H157017   4.122   3.581   5.517 -1.9325 -0.3674  0.2029
11842TIP3    H257018   4.036   3.503   5.614 -0.3513  0.9409  2.7019
11843TIP3   OH257019   0.612   1.963  12.734 -0.5936  0.0177  0.3006
11843TIP3    H157020   0.706   1.964  12.750 -0.4354  1.5341 -0.6057
11843TIP3    H257021   0.584   2.053  12.752 -1.7703 -0.2878  0.0238
11844TIP3   OH257022   0.783   0.101   0.611 -0.4529  0.3037  0.3718
11844TIP3    H157023   0.757   0.015   0.644  0.2816  0.5740  1.6766
11844TIP3    H257024   0.737   0.164   0.667 -1.1176  0.7739 -0.6785
11845TIP3   OH257025   5.578   4.874   0.345  0.2631 -0.0553 -0.0140
11845TIP3    H157026   5.547   4.859   0.256  3.0351 -0.3781 -0.9768
11845TIP3    H257027   5.640   4.803   0.361  0.0339  0.1836  2.0539
11846TIP3   OH257028   6.561   1.577   3.960  0.4800 -0.5650 -0.4026
11846TIP3    H157029   6.572   1.658   4.011  0.6635  0.7537 -2.4902
11846TIP3    H257030   6.630   1.519   3.992  0.7132  0.3140  0.7184
11847TIP3   OH257031   3.866   4.855  17.087 -0.1624  0.1693 -1.0236
11847TIP3    H157032   3.929   4.823  17.023 -0.4176 -1.5161 -0.4556
11847TIP3    H257033   3.883   4.949  17.093  0.9225  0.0721 -2.3740
11848TIP3   OH257034   4.313   6.665  12.642  0.0842  0.2773  0.2365
11848TIP3    H157035   4.373   6.720  12.694 -0.4415 -0.2920  1.4766
11848TIP3    H257036   4.239   6.649  12.701 -0.1345 -1.0934 -0.3897
11849TIP3   OH257037   0.704   3.179  11.980 -0.1120 -0.0766 -0.3753
11849TIP3    H157038   0.609   3.169  11.990 -0.0557 -0.6865 -0.4638
11849TIP3    H257039   0.731   3.103  11.929  0.8042 -1.3057  1.8596
11850TIP3   OH257040   4.832   2.705   3.261 -0.2017  0.2303 -0.2118
11850TIP3    H157041   4.755   2.692   3.317 -1.4298 -0.0793 -1.9429
11850TIP3    H257042   4.856   2.617   3.232  0.7125  0.3437  0.1636
11851TIP3   OH257043   2.008   4.783   4.903  0.1352 -0.1627  0.1115
11851TIP3    H157044   1.991   4.801   4.810 -1.0118 -0.7980  0.1857
11851TIP3    H257045   1.943   4.716   4.926  0.6616 -0.2779  1.2778
11852TIP3   OH257046   6.438   1.084  16.183 -0.6291 -0.5060 -0.2348
11852TIP3    H157047   6.468   1.153  16.242  1.4077  0.0250 -1.8222
11852TIP3    H257048   6.496   1.010  16.200 -2.1808 -1.5103  0.7683
11853TIP3   OH257049   0.051   4.267   0.442 -0.0150 -0.5620  0.4765
11853TIP3    H157050   0.008   4.351   0.459  0.5067 -0.3228  0.6278
11853TIP3    H257051   0.010   4.235   0.362 -0.5914 -0.4170  0.7092
11854TIP3   OH257052   6.802   5.866  16.302 -0.6894  0.2990  0.4338
11854TIP3    H157053   6.707   5.853  16.310 -0.7356  0.6021  0.3436
11854TIP3    H257054   6.815   5.901  16.214 -0.4470 -0.2136  0.2621
11855TIP3   OH257055   5.006   4.186   4.703  0.4650 -0.0010 -0.2451
11855TIP3    H157056   5.032   4.170   4.613 -2.0282 -2.1770 -0.6512
11855TIP3    H257057   5.071   4.139   4.755  0.1661 -1.3364 -1.0454
11856TIP3   OH257058   0.149   0.266   4.458 -0.3526  0.3569  0.2235
11856TIP3    H157059   0.160   0.198   4.525  0.4764 -0.5640 -0.8273
11856TIP3    H257060   0.064   0.247   4.419 -0.9919  1.0982  1.2198
11857TIP3   OH257061   2.175   1.675  14.376  0.1531  0.0805  0.7131
11857TIP3    H157062   2.229   1.753  14.392  0.2750 -0.1884  1.6347
11857TIP3    H257063   2.189   1.656  14.283  1.5990  0.0563  0.9191
11858TIP3   OH257064   4.527   4.355  13.780  0.3451  0.3134  0.1832
11858TIP3    H157065   4.446   4.397  13.808 -0.3711 -0.4274 -0.7938
11858TIP3    H257066   4.593   4.424  13.789 -0.8651  1.7440 -1.6364
11859TIP3   OH257067   6.698   2.524  13.406 -0.3258  0.4020 -0.3575
11859TIP3    H157068   6.699   2.613  13.442 -0.7249  0.5786 -0.7822
11859TIP3    H257069   6.781   2.516  13.359 -0.1467  0.4373 -0.0512
11860TIP3   OH257070   1.452   2.526   5.845  0.4295  0.5446 -0.2965
11860TIP3    H157071   1.441   2.602   5.789  0.0476  0.3555 -0.4794
11860TIP3    H257072   1.545   2.526   5.867  0.4315  1.0477 -0.3152
11861TIP3   OH257073   0.150   5.513  13.994 -0.3850  0.0148 -0.2941
11861TIP3    H157074   0.135   5.606  13.977  0.7529  0.2922  0.1519
11861TIP3    H257075   0.162   5.507  14.089  0.8608 -0.3823 -0.4702
11862TIP3   OH257076   6.458   0.020  15.264 -0.2746 -0.1085 -0.1398
11862TIP3    H157077   6.517  -0.015  15.197  0.5432  0.2443  0.3788
11862TIP3    H257078   6.432  -0.056  15.315 -0.1206 -0.2452 -0.2614
11863TIP3   OH257079   4.720   6.494   0.440  0.0763 -0.3950 -0.2500
11863TIP3    H157080   4.790   6.515   0.379  0.9931 -0.2113  0.8685
11863TIP3    H257081   4.686   6.410   0.408 -0.7424  0.6246 -2.1478
11864TIP3   OH257082   3.742   3.630  15.654  0.4486 -0.3940  0.5748
11864TIP3    H157083   3.735   3.551  15.600 -0.0351  0.3856 -0.5120
11864TIP3    H257084   3.830   3.625  15.693  0.5857 -1.2351  0.1641
11865TIP3   OH257085   5.419   0.176  12.842  0.7801  0.4317  0.0173
11865TIP3    H157086   5.512   0.197  12.849  0.4981  1.6681  0.2871
11865TIP3    H257087   5.391   0.217  12.760  0.6049 -0.4624 -0.3718
11866TIP3   OH257088   6.495   3.465   3.421  0.2326 -0.7256 -0.0797
11866TIP3    H157089   6.588   3.447   3.404  0.0101 -2.5032  0.4419
11866TIP3    H257090   6.484   3.446   3.514 -0.9478 -1.9242 -0.4462
11867TIP3   OH257091   6.660   3.044   1.683 -0.4336 -0.4840 -0.1325
11867TIP3    H157092   6.681   2.966   1.735 -1.4966 -0.4014  0.4337
11867TIP3    H257093   6.566   3.036   1.666 -0.1275 -0.4018 -1.8871
11868TIP3   OH257094   2.434   0.615  14.036 -0.3853  0.2191  0.6933
11868TIP3    H157095   2.481   0.589  14.115  0.4295  1.4721  0.6427
11868TIP3    H257096   2.468   0.557  13.968  0.1170  0.2118  0.9441
11869TIP3   OH257097   0.880   5.914   2.759  0.6770 -0.2688  0.1384
11869TIP3    H157098   0.794   5.888   2.793  1.4629 -2.6125  0.4106
11869TIP3    H257099   0.860   5.964   2.680 -1.0026  1.1912  1.4372
11870TIP3   OH257100   4.198   4.369  14.460 -0.4780  0.3720 -0.0991
11870TIP3    H157101   4.177   4.376  14.366 -0.7104 -1.2815 -0.1751
11870TIP3    H257102   4.153   4.445  14.499 -0.1685  1.2241 -1.3500
11871TIP3   OH257103   5.861   5.941  14.159 -0.9855  0.5803  0.0609
11871TIP3    H157104   5.767   5.924  14.144 -0.4259 -1.2404 -1.6683
11871TIP3    H257105   5.895   5.962  14.072  0.3818  0.3700  0.5332
11872TIP3   OH257106   6.534   1.807  13.244  0.1797 -0.0394 -0.0316
11872TIP3    H157107   6.512   1.816  13.151 -1.0971  0.9560  0.3385
11872TIP3    H257108   6.462   1.755  13.280  0.2449  0.2729  0.5485
11873TIP3   OH257109   2.417   6.111   6.403 -0.1737  0.3017  0.0916
11873TIP3    H157110   2.358   6.038   6.385  2.1387 -1.2545 -1.3954
11873TIP3    H257111   2.499   6.070   6.431  1.3869  2.2765 -1.3889
11874TIP3   OH257112   0.116   3.931  12.852 -0.1233  0.2273  0.3043
11874TIP3    H157113   0.131   3.904  12.942  0.2282  0.7797  0.4116
11874TIP3    H257114   0.085   4.022  12.859 -1.8344 -0.2977 -0.0114
11875TIP3   OH257115   0.651   5.595  16.153 -0.4750 -0.2724 -0.1687
11875TIP3    H157116   0.625   5.513  16.110  0.8359 -0.3575 -0.8294
11875TIP3    H257117   0.570   5.643  16.163 -1.0235 -0.9067 -1.3887
11876TIP3   OH257118   0.684   4.687   2.547 -0.1241  0.2105 -0.7771
11876TIP3    H157119   0.753   4.704   2.483  0.3012 -0.7088 -0.5686
11876TIP3    H257120   0.717   4.725   2.629 -0.4675  0.9792 -0.9912
11877TIP3   OH257121   3.186   6.674  14.388 -0.0693  0.1439 -0.0412
11877TIP3    H157122   3.278   6.667  14.364  0.6009  1.5733  2.0542
11877TIP3    H257123   3.177   6.620  14.466 -0.9015  0.4356  0.0680
11878TIP3   OH257124   1.664   0.286  14.571  0.4327 -0.4334 -0.0348
11878TIP3    H157125   1.586   0.323  14.613 -0.8939 -2.2902 -0.8017
11878TIP3    H257126   1.721   0.362  14.557 -0.1815  0.6241  2.7110
11879TIP3   OH257127   0.401   4.502   2.985  0.0626  0.1099 -0.8417
11879TIP3    H157128   0.491   4.478   3.006 -0.2697 -0.3637  0.0454
11879TIP3    H257129   0.374   4.437   2.920  0.1722 -0.0745 -0.7013
11880TIP3   OH257130   0.033   1.774   5.142 -0.5930  0.1766 -0.2090
11880TIP3    H157131   0.052   1.810   5.228  0.1621  0.6157 -0.5538
11880TIP3    H257132  -0.014   1.844   5.096  1.6720  1.1140 -1.1946
11881TIP3   OH257133   6.207   2.813   5.143  0.4772 -0.1234 -0.2105
11881TIP3    H157134   6.205   2.826   5.049 -0.4553 -1.2195 -0.3427
11881TIP3    H257135   6.179   2.723   5.156  2.0402 -0.4653  1.0198
11882TIP3   OH257136   5.787   1.481   5.779  0.4775  0.1147 -0.1546
11882TIP3    H157137   5.844   1.405   5.771 -3.3766 -3.1632  1.3890
11882TIP3    H257138   5.800   1.512   5.869  0.6495  0.0562 -0.1600
11883TIP3   OH257139   3.299   6.033   4.821  0.3055 -0.0506  0.2278
11883TIP3    H157140   3.236   6.064   4.756 -1.1547 -2.3060  0.4969
11883TIP3    H257141   3.287   6.092   4.896 -1.8799 -0.7447  0.4566
11884TIP3   OH257142   6.201   5.043   4.186 -0.2877 -0.0828  0.0147
11884TIP3    H157143   6.210   4.998   4.270  0.0220  1.3735  0.7763
11884TIP3    H257144   6.284   5.029   4.142 -0.8153 -1.7054 -0.4844
11885TIP3   OH257145   1.438   5.906   0.831  0.0193  0.2683  0.2111
11885TIP3    H157146   1.465   5.863   0.913 -0.4984  0.9161  0.7273
11885TIP3    H257147   1.383   5.841   0.787  0.9782 -0.3964 -0.0232
11886TIP3   OH257148   3.399   5.633   4.991 -0.3853  0.4401  0.2635
11886TIP3    H157149   3.377   5.602   5.079  0.0106 -1.3939 -0.2622
11886TIP3    H257150   3.465   5.700   5.006 -0.1475 -0.0159  1.3597
11887TIP3   OH257151   2.811   4.190   2.761  0.0638 -0.4405 -0.4750
11887TIP3    H157152   2.742   4.238   2.807  1.6713  0.8779  0.6333
11887TIP3    H257153   2.788   4.198   2.669 -1.4197 -0.2725 -0.1008
11888TIP3   OH257154   3.176   3.409  12.773 -0.1535 -0.4284 -0.2702
11888TIP3    H157155   3.166   3.422  12.679  0.4773 -1.1234 -0.4405
11888TIP3    H257156   3.236   3.335  12.781  0.8353  0.4522  0.6822
11889TIP3   OH257157   2.609   3.748   1.376  0.1502  0.2903 -0.1909
11889TIP3    H157158   2.676   3.689   1.341  1.5114  2.2342 -0.9767
11889TIP3    H257159   2.629   3.832   1.335 -2.6739  0.9434 -0.2599
11890TIP3   OH257160   4.421   6.534   5.419  0.3078 -0.7025 -0.6444
11890TIP3    H157161   4.415   6.468   5.489 -1.4791  0.7663  0.6416
11890TIP3    H257162   4.507   6.519   5.380  0.9776 -2.1631  1.2568
11891TIP3   OH257163   6.577   2.977  15.549 -0.1793 -0.1707 -0.4332
11891TIP3    H157164   6.608   3.059  15.511  0.5526  0.1981  0.9317
11891TIP3    H257165   6.645   2.913  15.526  1.3446  0.4986  1.9957
11892TIP3   OH257166   4.798   3.818  11.468 -0.3223  0.3314 -0.6521
11892TIP3    H157167   4.706   3.792  11.472 -0.2822  0.4000  1.1382
11892TIP3    H257168   4.826   3.821  11.560  1.6179 -0.2390 -1.2026
11893TIP3   OH257169   4.922   4.895   2.540 -0.1133 -0.2010  0.5224
11893TIP3    H157170   4.941   4.988   2.544  0.0038 -0.2247  0.5353
11893TIP3    H257171   4.928   4.865   2.631 -0.7458 -0.1056  0.5952
11894TIP3   OH257172   2.427   3.944  15.414 -0.2366  0.3997  0.0145
11894TIP3    H157173   2.381   3.894  15.482  3.9859 -1.2110  1.8615
11894TIP3    H257174   2.470   3.878  15.360 -0.9411  1.8126 -2.3427
11895TIP3   OH257175   3.116   4.789  12.987 -0.0589 -0.1042 -0.5159
11895TIP3    H157176   3.193   4.735  12.967  0.7404  0.7667  0.1698
11895TIP3    H257177   3.046   4.750  12.936  0.2798 -2.3874  0.6887
11896TIP3   OH257178   3.395   1.189   5.474 -0.0060 -0.2127 -0.4294
11896TIP3    H157179   3.483   1.171   5.507  1.0225  0.6782 -2.6156
11896TIP3    H257180   3.408   1.250   5.402 -2.3723 -0.5571 -1.1945
11897TIP3   OH257181   0.447   2.146   6.182  0.5976  0.2984  0.0770
11897TIP3    H157182   0.382   2.217   6.184  0.8039  0.5141 -0.7235
11897TIP3    H257183   0.470   2.133   6.274  0.8393  1.5400  0.2044
11898TIP3   OH257184   4.679   1.547  10.784  0.1338 -0.4130 -0.0901
11898TIP3    H157185   4.715   1.498  10.710 -0.7056  1.3675 -1.7087
11898TIP3    H257186   4.615   1.607  10.745  1.5848  2.4319  1.7133
11899TIP3   OH257187   4.595   5.793   5.698  0.3358 -0.4543  0.1161
11899TIP3    H157188   4.566   5.867   5.751  0.8739 -1.5827  2.0298
11899TIP3    H257189   4.582   5.822   5.607 -1.6440  1.0847  0.8530
11900TIP3   OH257190   6.569   0.140   5.358  0.3927 -0.1420  0.3655
11900TIP3    H157191   6.593   0.208   5.421  2.4310 -0.3593 -0.1562
11900TIP3    H257192   6.588   0.179   5.273 -0.9391 -0.4010 -0.0568
11901TIP3   OH257193   4.089   1.691   5.290  0.4212 -0.0013  0.5371
11901TIP3    H157194   4.081   1.757   5.221 -0.6488  0.5581  1.1790
11901TIP3    H257195   4.171   1.713   5.334  0.8851 -0.0877 -0.2747
11902TIP3   OH257196   0.918   3.785   5.112  0.4447  0.4222  0.1502
11902TIP3    H157197   0.912   3.804   5.018  1.7155  0.3447  0.0497
11902TIP3    H257198   0.870   3.702   5.122  2.5939 -0.9968 -0.8876
11903TIP3   OH257199   2.536   2.014   1.530 -0.5177  0.1331 -0.6458
11903TIP3    H157200   2.597   1.990   1.599 -2.5950 -1.2113  0.7963
11903TIP3    H257201   2.536   1.940   1.469  0.4114  0.7980 -1.4756
11904TIP3   OH257202   5.096   1.915  11.009 -0.0941 -0.1945  0.2242
11904TIP3    H157203   5.140   1.870  10.937 -1.9651  0.0970 -1.1482
11904TIP3    H257204   5.017   1.953  10.969 -0.2149  1.5606  2.0264
11905TIP3   OH257205   3.906   6.370  11.795  0.2644  0.1810 -0.2340
11905TIP3    H157206   3.884   6.403  11.707  1.5058 -0.4474 -0.8018
11905TIP3    H257207   3.871   6.282  11.797 -2.8246  1.3848  1.1925
11906TIP3   OH257208   3.019   2.844   1.316  0.0850  0.4107  0.6272
11906TIP3    H157209   2.980   2.773   1.367 -0.7424  1.0111  0.8398
11906TIP3    H257210   2.965   2.850   1.237 -0.5579  1.5504  1.1393
11907TIP3   OH257211   4.388   4.754   4.743  0.1456  0.0621 -0.1254
11907TIP3    H157212   4.462   4.696   4.762 -0.2918 -0.4406  0.0551
11907TIP3    H257213   4.412   4.798   4.662 -0.3347 -1.7873 -1.3021
11908TIP3   OH257214   3.602   1.421  11.975  0.0121  0.4791  0.0860
11908TIP3    H157215   3.529   1.462  12.022 -0.5287  0.3692 -0.6358
11908TIP3    H257216   3.634   1.489  11.916  1.4975  1.0088  1.4919
11909TIP3   OH257217   5.374   3.561   0.778  0.2171  0.0240  0.3337
11909TIP3    H157218   5.434   3.488   0.763 -0.3973 -0.6908  1.2673
11909TIP3    H257219   5.287   3.524   0.762 -0.0392  0.7857 -0.0402
11910TIP3   OH257220   6.012   5.492  13.262  0.0831  0.0670 -0.0524
11910TIP3    H157221   5.978   5.572  13.222  0.5502  1.0841  1.5423
11910TIP3    H257222   6.105   5.510  13.276  0.1865 -0.7584  0.3380
11911TIP3   OH257223   4.460   0.942  11.434  0.0898 -0.2266  0.0259
11911TIP3    H157224   4.422   0.874  11.489  1.6318  0.1098  1.5597
11911TIP3    H257225   4.508   0.894  11.366 -1.4064 -0.6435 -0.7572
11912TIP3   OH257226   5.797   3.326   4.638  0.2364  0.4210  0.8234
11912TIP3    H157227   5.783   3.301   4.547  0.7415 -1.6507  1.2937
11912TIP3    H257228   5.724   3.287   4.685  0.3031  0.9744  1.3988
11913TIP3   OH257229   3.115   5.750  16.021  0.0198 -0.1143  0.2017
11913TIP3    H157230   3.202   5.730  16.055  0.6426  1.5037 -0.4242
11913TIP3    H257231   3.106   5.695  15.943  0.6925  0.1145 -0.0399
11914TIP3   OH257232   0.557   1.993   1.218 -0.7604  0.2787 -0.0615
11914TIP3    H157233   0.499   2.040   1.279  0.0895  0.6435  0.4702
11914TIP3    H257234   0.599   1.926   1.272 -0.9869 -0.2546 -0.5398
11915TIP3   OH257235   0.451   4.223  15.025 -0.5843  0.5681  0.4285
11915TIP3    H157236   0.363   4.198  14.996  0.7545 -1.2347 -2.3547
11915TIP3    H257237   0.458   4.316  15.003 -1.4231  0.4619 -0.3428
11916TIP3   OH257238   1.086   4.969   4.883  0.4394 -0.9274  0.5485
11916TIP3    H157239   1.172   5.011   4.883  1.0605 -2.1549 -0.1189
11916TIP3    H257240   1.067   4.953   4.790 -0.2975 -1.0776  0.7185
11917TIP3   OH257241   2.235   4.751   3.613 -0.5031  0.2397  0.4393
11917TIP3    H157242   2.297   4.679   3.616  0.0775  0.7735  1.7336
11917TIP3    H257243   2.167   4.722   3.552  1.7659  0.2560 -2.1861
11918TIP3   OH257244   3.270   1.340   3.058  0.2373 -0.0082 -0.0427
11918TIP3    H157245   3.195   1.314   3.004  1.8347  0.6573 -2.6342
11918TIP3    H257246   3.320   1.259   3.068  0.3739  0.0494 -0.2604
11919TIP3   OH257247   1.725   4.273  14.244  0.4330 -0.1798  0.1644
11919TIP3    H157248   1.796   4.232  14.293 -0.0103 -0.7216  0.3615
11919TIP3    H257249   1.735   4.238  14.155 -0.3345 -1.2336  0.4824
11920TIP3   OH257250   1.466   2.910   0.168 -0.1246 -0.4591 -0.4222
11920TIP3    H157251   1.547   2.955   0.192  0.6393 -0.1031 -3.3840
11920TIP3    H257252   1.396   2.962   0.208  1.0760 -0.4125  1.6434
11921TIP3   OH257253   3.357   3.126   1.907 -0.0252 -0.4896 -0.3867
11921TIP3    H157254   3.305   3.149   1.831 -0.2830 -0.7881 -0.2987
11921TIP3    H257255   3.298   3.137   1.981 -0.2090 -1.6350 -0.3568
11922TIP3   OH257256   2.326   1.615  16.436  0.2079  0.0023 -0.5371
11922TIP3    H157257   2.326   1.707  16.408  3.7635  0.3556  0.3464
11922TIP3    H257258   2.291   1.618  16.525  1.5616  0.7459  0.0004
11923TIP3   OH257259   1.719   1.641   6.321  0.1382 -0.1941  0.4468
11923TIP3    H157260   1.809   1.650   6.350  0.4732 -0.5135 -0.4843
11923TIP3    H257261   1.725   1.623   6.227 -0.9270  1.0114  0.1308
11924TIP3   OH257262   6.197   3.411  14.405 -0.8694  0.1949 -0.4039
11924TIP3    H157263   6.132   3.481  14.404 -1.3510 -0.2097  0.9226
11924TIP3    H257264   6.247   3.426  14.485  0.0099 -0.0917 -0.8919
11925TIP3   OH257265   5.868   4.160   2.401  0.2880 -0.1680 -0.3489
11925TIP3    H157266   5.841   4.245   2.366  1.3266  0.1596 -0.3584
11925TIP3    H257267   5.786   4.113   2.416 -0.3829  1.4365  1.1602
11926TIP3   OH257268   5.656   0.440  16.459  0.3823  0.1473  0.2379
11926TIP3    H157269   5.669   0.346  16.471  0.2169  0.2654  1.4068
11926TIP3    H257270   5.561   0.449  16.449  0.5035  0.0652 -1.1407
11927TIP3   OH257271   6.237   4.217   6.270  0.2040 -0.3549  0.6920
11927TIP3    H157272   6.239   4.200   6.176  1.5320  3.5131 -0.0802
11927TIP3    H257273   6.308   4.164   6.306  1.5794  0.3338 -0.9627
11928TIP3   OH257274   4.581   1.625   5.898 -0.3623  0.0788  0.1468
11928TIP3    H157275   4.580   1.654   5.989  1.3784  1.1368 -0.1602
11928TIP3    H257276   4.668   1.646   5.867 -0.7800 -0.7355 -1.6407
11929TIP3   OH257277   4.024   4.984   4.606  0.2640  0.2979 -0.6092
11929TIP3    H157278   4.062   4.967   4.692  1.4173 -0.7728 -1.3117
11929TIP3    H257279   4.024   5.079   4.598  0.9726  0.3688  0.2079
11930TIP3   OH257280   4.130   3.521  16.052  0.2282  0.0325  0.4492
11930TIP3    H157281   4.123   3.597  16.110 -0.8577  0.9216 -0.8173
11930TIP3    H257282   4.222   3.497  16.055  1.0269  2.7151 -0.7496
11931TIP3   OH257283   4.283   3.191   2.495 -0.4457  0.2101 -0.3037
11931TIP3    H157284   4.305   3.281   2.522  0.7313 -0.8087  2.3120
11931TIP3    H257285   4.236   3.155   2.570 -1.8495 -1.0524 -1.7611
11932TIP3   OH257286   3.022   3.486  13.980  0.6034 -0.3796  0.0922
11932TIP3    H157287   3.086   3.498  13.910  0.2547  0.8249 -0.0360
11932TIP3    H257288   3.013   3.392  13.989  0.8519 -0.5445 -1.2984
11933TIP3   OH257289   4.621   2.946   3.527 -0.0115 -0.0368 -0.3144
11933TIP3    H157290   4.612   2.874   3.464  0.9361  1.6043 -2.3961
11933TIP3    H257291   4.665   2.906   3.602  0.0236 -1.7572 -1.2146
11934TIP3   OH257292   5.645   1.294   4.456  0.0783 -0.1878 -0.3820
11934TIP3    H157293   5.729   1.251   4.468  1.0513  1.6994 -0.2415
11934TIP3    H257294   5.651   1.335   4.370 -1.1786 -1.0873 -0.9120
11935TIP3   OH257295   0.909   5.085   2.622  0.6560 -0.0764 -0.2990
11935TIP3    H157296   0.834   5.113   2.675  0.2390  0.2688 -1.0585
11935TIP3    H257297   0.942   5.007   2.666 -0.3161 -0.3858 -0.1112
11936TIP3   OH257298   6.488   5.953  15.001 -0.4426  0.2287  0.4651
11936TIP3    H157299   6.435   6.000  15.065  1.0913 -0.6945  2.4656
11936TIP3    H257300   6.576   5.989  15.013  0.2621 -1.4136  0.3126
11937TIP3   OH257301   5.951   4.248   5.836  0.5275 -0.1134  0.0272
11937TIP3    H157302   5.994   4.321   5.880 -0.2214  0.9821 -0.9930
11937TIP3    H257303   6.018   4.210   5.779  0.5208  0.7261 -0.5471
11938TIP3   OH257304   3.537   0.267  14.033 -0.7042  0.1415 -0.0128
11938TIP3    H157305   3.479   0.194  14.054  0.1843 -0.3557  0.7333
11938TIP3    H257306   3.530   0.326  14.109  0.6961 -0.5131  0.6334
11939TIP3   OH257307   5.756   1.641  12.400  0.4153  0.0858  0.3075
11939TIP3    H157308   5.787   1.670  12.314 -0.9790  0.7479  0.0183
11939TIP3    H257309   5.667   1.676  12.407 -0.2871 -1.7891  1.1205
11940TIP3   OH257310   0.401   6.428   4.006  0.1457  0.1231 -0.3716
11940TIP3    H157311   0.442   6.501   4.054 -1.0525 -1.1791  2.6986
11940TIP3    H257312   0.456   6.352   4.026 -0.0916 -0.3570 -1.4919
11941TIP3   OH257313   2.272   1.351  13.505  0.1410  0.3190  0.2539
11941TIP3    H157314   2.283   1.431  13.453  0.0767 -0.2277 -0.6137
11941TIP3    H257315   2.282   1.380  13.595  0.3826  1.2674 -0.0661
11942TIP3   OH257316   0.619   0.721   2.238  0.2154 -0.0922  0.7060
11942TIP3    H157317   0.690   0.725   2.302  0.4972 -2.0172  0.5452
11942TIP3    H257318   0.624   0.632   2.202  0.0092  0.9139 -1.9284
11943TIP3   OH257319   0.636   6.333  12.323 -0.1532  0.5078  0.6175
11943TIP3    H157320   0.636   6.298  12.412  0.2163  0.9866  0.8060
11943TIP3    H257321   0.545   6.325  12.294 -0.4222  1.0353  1.3076
11944TIP3   OH257322   1.174   4.529  10.934 -0.2768  0.2103 -0.4204
11944TIP3    H157323   1.265   4.499  10.932  0.3425  2.1201 -2.2983
11944TIP3    H257324   1.168   4.584  11.012 -0.0932 -0.6543  0.2148
11945TIP3   OH257325   1.898   5.839   1.307  0.3339 -0.6488  0.9906
11945TIP3    H157326   1.910   5.776   1.377 -0.0285  0.3323  1.9531
11945TIP3    H257327   1.879   5.922   1.352 -1.2273 -0.2869 -0.2757
11946TIP3   OH257328   5.936   6.667  11.662  0.2986 -0.1788  0.1005
11946TIP3    H157329   5.932   6.577  11.695 -0.9719 -0.5525 -1.0180
11946TIP3    H257330   5.856   6.677  11.611 -1.1328  2.5889  2.7076
11947TIP3   OH257331   6.158   1.059   1.332 -0.1750  0.3639 -0.0318
11947TIP3    H157332   6.096   0.993   1.301 -0.6647  0.2752  1.1391
11947TIP3    H257333   6.111   1.142   1.325 -0.9915  0.1159  2.3603
11948TIP3   OH257334   2.815   5.476  13.762 -0.4772 -0.0398 -0.6464
11948TIP3    H157335   2.880   5.444  13.699  1.0489 -1.1954  1.4424
11948TIP3    H257336   2.738   5.422  13.747 -0.5899  0.5856 -2.3981
11949TIP3   OH257337   3.409   1.574   5.387 -0.2354  0.3799 -0.3188
11949TIP3    H157338   3.329   1.563   5.438 -1.1753  0.3296 -1.8008
11949TIP3    H257339   3.381   1.615   5.306  1.5848  2.5547  0.1233
11950TIP3   OH257340   6.217   4.474   3.010  0.2791 -0.2330  0.0606
11950TIP3    H157341   6.301   4.448   2.972 -0.2646  1.0087 -2.0914
11950TIP3    H257342   6.164   4.394   3.008  0.9148 -0.6581  0.0370
11951TIP3   OH257343   5.763   3.929   6.291 -0.1708  0.2239 -0.5149
11951TIP3    H157344   5.762   3.835   6.305 -1.9461  0.1808 -0.8917
11951TIP3    H257345   5.819   3.941   6.214 -0.9671 -0.6292 -1.2267
11952TIP3   OH257346   0.027   3.954  15.701 -0.2986 -0.3746  0.2190
11952TIP3    H157347  -0.048   3.997  15.743 -0.0643 -0.8669  1.1560
11952TIP3    H257348   0.098   3.962  15.764  0.9826  1.7627 -1.4546
11953TIP3   OH257349   5.630   0.801   4.645 -0.3704  0.3565 -0.1251
11953TIP3    H157350   5.621   0.802   4.550  1.1061  1.2513 -0.2706
11953TIP3    H257351   5.702   0.741   4.662 -0.5392  0.2999  0.4222
11954TIP3   OH257352   1.681   5.749  14.206 -0.1301 -0.2502 -0.1811
11954TIP3    H157353   1.670   5.824  14.147  0.5678 -1.2104 -1.5554
11954TIP3    H257354   1.667   5.672  14.151  1.6847 -1.2001  0.6284
11955TIP3   OH257355   2.368   2.299   2.912 -0.3755 -0.7599 -0.0363
11955TIP3    H157356   2.374   2.289   3.007 -1.2041 -0.3560  0.0692
11955TIP3    H257357   2.275   2.287   2.892 -0.5144  0.9285 -0.5608
11956TIP3   OH257358   4.405   5.754  13.913 -0.0125  0.1852 -0.1070
11956TIP3    H157359   4.424   5.660  13.910 -2.0348 -0.2164 -1.7540
11956TIP3    H257360   4.406   5.781  13.821 -1.2279  1.3882  0.2219
11957TIP3   OH257361   4.794   4.871  13.643  0.2777  0.4270 -0.3436
11957TIP3    H157362   4.807   4.928  13.567  1.4702 -1.1570 -1.3709
11957TIP3    H257363   4.883   4.850  13.672 -0.1622 -0.2747  0.5074
11958TIP3   OH257364   4.454   0.940   3.909 -0.5017 -0.4636 -0.4706
11958TIP3    H157365   4.491   0.885   3.839 -1.8053 -1.5401 -0.3349
11958TIP3    H257366   4.421   0.877   3.973 -2.5737  0.4574 -0.5924
11959TIP3   OH257367   3.540   3.727   1.767  0.7474  0.2113  0.7554
11959TIP3    H157368   3.480   3.665   1.725  1.1485 -0.4739  1.1937
11959TIP3    H257369   3.586   3.676   1.833 -0.3829  1.4380  2.5417
11960TIP3   OH257370   5.340   0.605   5.076 -0.1032 -0.4185 -0.2264
11960TIP3    H157371   5.251   0.571   5.067  0.0233 -0.8550  0.1480
11960TIP3    H257372   5.370   0.620   4.986 -0.6102 -0.1214 -0.3439
11961TIP3   OH257373   0.035   5.307   2.162  0.7665 -0.0290  0.0291
11961TIP3    H157374   0.106   5.280   2.221  0.6737  0.8153  0.5279
11961TIP3    H257375   0.031   5.237   2.097  0.7512 -1.0707  1.1259
11962TIP3   OH257376   0.161   2.628   3.574  0.1782 -0.1697 -0.8014
11962TIP3    H157377   0.074   2.588   3.568  0.2097 -0.3031 -0.3748
11962TIP3    H257378   0.172   2.649   3.667 -0.0055  1.2036 -1.0807
11963TIP3   OH257379   1.273   4.925   3.556  0.8128 -0.0631 -0.4539
11963TIP3    H157380   1.319   4.971   3.486  0.6840 -1.1299 -1.2531
11963TIP3    H257381   1.300   4.970   3.636  2.0991  0.2625 -1.0535
11964TIP3   OH257382   4.391   1.631   1.950  0.0016 -0.0337  0.6505
11964TIP3    H157383   4.301   1.598   1.951  0.5037 -1.7250 -2.1659
11964TIP3    H257384   4.392   1.694   1.878  0.4706  1.8548  2.2977
11965TIP3   OH257385   1.080   1.952   6.115  0.7919 -0.4173  0.6105
11965TIP3    H157386   1.048   1.972   6.027 -1.0766  0.4668  1.4448
11965TIP3    H257387   1.175   1.954   6.107  0.6458 -0.3240 -1.3840
11966TIP3   OH257388   2.663   4.568   2.083  0.4444 -0.0601 -0.0148
11966TIP3    H157389   2.702   4.506   2.021  3.5610  1.7497  0.0542
11966TIP3    H257390   2.657   4.519   2.165  2.1739 -0.5117 -0.1536
11967TIP3   OH257391   0.452   3.008   2.438 -0.3543 -0.1207 -0.3823
11967TIP3    H157392   0.521   3.035   2.378  0.8502 -0.1266  0.9584
11967TIP3    H257393   0.439   3.084   2.495 -1.9058  0.1043 -0.9985
11968TIP3   OH257394   0.872   5.375   3.667  0.4507 -0.3774 -0.4475
11968TIP3    H157395   0.915   5.291   3.681 -2.5256 -2.1454 -1.3927
11968TIP3    H257396   0.917   5.413   3.592  2.2317 -0.7896  0.3743
11969TIP3   OH257397   5.689   4.480   2.867  0.4457 -0.5155  0.2221
11969TIP3    H157398   5.610   4.431   2.847  0.1223 -0.2534  0.8362
11969TIP3    H257399   5.761   4.422   2.842  0.0736 -0.3213 -1.4063
11970TIP3   OH257400   5.948   0.725   0.137  0.9074  0.1411 -0.3191
11970TIP3    H157401   6.035   0.704   0.106  0.5297  0.3875 -1.5652
11970TIP3    H257402   5.901   0.642   0.136  1.5489 -0.2719  1.7855
11971TIP3   OH257403   2.124   1.998  12.049 -0.4616 -0.0997 -0.0313
11971TIP3    H157404   2.083   1.939  12.111 -0.2534 -2.7829 -2.3531
11971TIP3    H257405   2.052   2.052  12.016 -0.7387  0.6053  1.7227
11972TIP3   OH257406   0.496   4.767   4.449  0.6897 -0.4617 -0.0226
11972TIP3    H157407   0.437   4.709   4.400 -0.2930  0.4989  0.0200
11972TIP3    H257408   0.453   4.779   4.534  0.9100  0.3172 -0.0244
11973TIP3   OH257409   1.561   5.291   2.920  0.1305  0.3541 -0.0955
11973TIP3    H157410   1.617   5.298   2.997 -0.7888 -3.0147  0.9873
11973TIP3    H257411   1.479   5.331   2.946  0.3083  0.5645  0.1428
11974TIP3   OH257412   4.477   1.489  14.102 -0.0927 -0.2584 -0.2684
11974TIP3    H157413   4.458   1.396  14.093 -0.6714 -0.3418  1.6227
11974TIP3    H257414   4.572   1.493  14.115 -0.2118 -0.6772  0.7467
11975TIP3   OH257415   6.792   6.513  10.981  0.3879 -0.3370  0.4358
11975TIP3    H157416   6.769   6.422  10.965  0.4189  0.0124 -1.6548
11975TIP3    H257417   6.724   6.544  11.041 -1.4955 -0.8513 -1.3575
11976TIP3   OH257418   4.297   1.815   1.325 -0.0470 -0.3422  0.2025
11976TIP3    H157419   4.282   1.747   1.390 -1.2641 -2.5542 -2.2642
11976TIP3    H257420   4.393   1.823   1.320  0.0540  0.0834  2.4192
11977TIP3   OH257421   2.360   4.721  13.698  0.1598  0.1464  0.1772
11977TIP3    H157422   2.389   4.700  13.609 -0.5787 -0.0817 -0.0201
11977TIP3    H257423   2.266   4.700  13.698  0.1757  0.0260  1.0443
11978TIP3   OH257424   2.095   1.708   4.121  0.6710  0.3516  0.5370
11978TIP3    H157425   2.025   1.759   4.079 -0.1229 -1.4347 -0.3446
11978TIP3    H257426   2.049   1.645   4.176  1.6393  0.0069  0.9594
11979TIP3   OH257427   2.811   6.602   0.967  0.3613  0.3849  0.5711
11979TIP3    H157428   2.871   6.645   0.906  0.6156  0.6071  0.9799
11979TIP3    H257429   2.855   6.606   1.052 -0.8146  1.7614  1.1455
11980TIP3   OH257430   3.607   0.647   0.266  0.0771 -0.8423 -0.1106
11980TIP3    H157431   3.698   0.626   0.284  0.0001 -0.6315  0.5453
11980TIP3    H257432   3.572   0.568   0.224  0.6707 -0.7581 -0.7780
11981TIP3   OH257433   2.046   2.734  12.306 -0.1791 -0.3332  0.8783
11981TIP3    H157434   2.120   2.706  12.360  1.3514  1.3756 -0.2865
11981TIP3    H257435   2.057   2.828  12.297 -0.8819 -0.4587 -1.7190
11982TIP3   OH257436   6.476   3.884  15.136 -0.6780  0.0169 -0.2885
11982TIP3    H157437   6.412   3.917  15.199  1.7234  0.5446  1.9355
11982TIP3    H257438   6.548   3.946  15.140  0.4513 -1.1497 -1.9895
11983TIP3   OH257439   5.878   1.704   0.244 -0.0787  0.0055 -0.2135
11983TIP3    H157440   5.967   1.739   0.237  0.7348 -1.4845  2.0930
11983TIP3    H257441   5.835   1.759   0.310 -0.6667  0.2813 -0.8139
11984TIP3   OH257442   2.589   3.877   5.352 -0.1509  0.4929  0.1802
11984TIP3    H157443   2.656   3.944   5.339 -0.8763  0.9417 -1.3547
11984TIP3    H257444   2.527   3.918   5.414  0.3521  0.5344  0.6632
11985TIP3   OH257445   3.753   3.803   0.202 -0.1713 -0.0883  0.8263
11985TIP3    H157446   3.683   3.848   0.250  0.0522 -1.1747  2.2027
11985TIP3    H257447   3.833   3.845   0.231 -0.1479  0.2426  0.2817
11986TIP3   OH257448   2.190   2.893   4.196 -0.2155 -0.5994 -0.1878
11986TIP3    H157449   2.285   2.901   4.192 -0.2067 -0.6553 -0.1093
11986TIP3    H257450   2.158   2.982   4.181 -0.1524 -0.5897 -0.2648
11987TIP3   OH257451   5.309   6.668  11.001 -0.1655 -0.2622 -0.0501
11987TIP3    H157452   5.404   6.662  11.018 -0.2490 -2.8932 -0.3463
11987TIP3    H257453   5.287   6.757  11.027  2.7737  1.1030 -1.9470
11988TIP3   OH257454   0.369   4.409  12.511  0.0264 -0.0095  0.0654
11988TIP3    H157455   0.444   4.433  12.565 -0.5286 -0.0244  0.8393
11988TIP3    H257456   0.298   4.467  12.541 -0.7140 -1.0946  0.4307
11989TIP3   OH257457   0.417   0.350   0.944 -0.2306 -0.2006 -0.2907
11989TIP3    H157458   0.409   0.291   1.019 -2.2574 -1.0920 -1.1629
11989TIP3    H257459   0.362   0.425   0.966  0.4430  0.2628 -0.1979
11990TIP3   OH257460   6.700   4.044  15.115  0.5999  0.2481  0.0321
11990TIP3    H157461   6.739   3.998  15.040 -0.2313  0.3723 -0.4736
11990TIP3    H257462   6.677   4.130  15.082  2.2464  1.1002  1.0127
11991TIP3   OH257463   2.883   0.993   3.732  0.1718 -0.0446 -0.0378
11991TIP3    H157464   2.801   0.954   3.703 -0.3266  0.3616  0.7900
11991TIP3    H257465   2.888   1.076   3.684  0.2806 -0.2383 -0.3614
11992TIP3   OH257466   0.885   2.647   5.212  0.2567  0.3830  0.1673
11992TIP3    H157467   0.793   2.659   5.239 -0.6877 -2.5772 -1.5804
11992TIP3    H257468   0.884   2.662   5.117  1.4163 -0.5408  0.0026
11993TIP3   OH257469   0.677   2.511  17.132  0.1886 -0.0080 -0.0546
11993TIP3    H157470   0.604   2.516  17.070 -0.2133  0.6012  0.4641
11993TIP3    H257471   0.754   2.500  17.076  0.1401  3.2933 -0.8580
11994TIP3   OH257472   2.872   0.021   4.749 -0.3423  0.3769 -0.0914
11994TIP3    H157473   2.904  -0.060   4.709 -0.5724 -0.3803  1.2392
11994TIP3    H257474   2.780   0.025   4.725 -0.3902  0.1184  0.0465
11995TIP3   OH257475   6.626   3.573   5.377 -0.2744  0.0125  0.0744
11995TIP3    H157476   6.594   3.491   5.339 -0.0138 -0.6519  1.2487
11995TIP3    H257477   6.559   3.597   5.441 -1.0558  1.4954 -1.2685
11996TIP3   OH257478   0.689   1.842   4.499 -0.0452 -0.0016  0.2919
11996TIP3    H157479   0.673   1.852   4.592  0.9321  0.3935  0.4267
11996TIP3    H257480   0.610   1.802   4.464 -0.0685 -0.9346  1.4341
11997TIP3   OH257481   4.502   5.413  12.036  0.7177  0.1021  0.2255
11997TIP3    H157482   4.519   5.446  11.948 -3.4356  0.2397 -0.5999
11997TIP3    H257483   4.544   5.477  12.094  1.6048  1.1819 -1.5725
11998TIP3   OH257484   6.180   1.357   1.645 -0.4469  0.1645  0.0958
11998TIP3    H157485   6.128   1.277   1.642 -2.6166  1.4579  1.7395
11998TIP3    H257486   6.218   1.357   1.733 -1.2186  1.3992  0.4332
11999TIP3   OH257487   0.690   1.471  14.363  0.0524  0.1119 -0.6517
11999TIP3    H157488   0.671   1.409  14.433 -0.7474 -0.8602 -1.7308
11999TIP3    H257489   0.614   1.530  14.362 -0.0235  0.0097 -0.8349
12000TIP3   OH257490   6.300   6.783   5.958  0.2752  0.4567 -0.0184
12000TIP3    H157491   6.236   6.812   5.893  0.0033  2.6190  1.1546
12000TIP3    H257492   6.357   6.859   5.971  0.5277 -0.0431  2.0010
12001TIP3   OH257493   4.627   1.356  16.862  0.3222 -0.6216  0.0438
12001TIP3    H157494   4.604   1.292  16.794 -1.1158  0.6403 -0.6931
12001TIP3    H257495   4.571   1.334  16.936  0.5640 -0.8416  0.1631
12002TIP3   OH257496   6.134   1.986  16.653 -0.2874 -0.0404  0.3858
12002TIP3    H157497   6.123   1.895  16.680 -0.5019 -0.2092 -0.2683
12002TIP3    H257498   6.217   2.012  16.692  0.1175 -0.7270 -0.0031
12003TIP3   OH257499   0.600   0.360  12.397  0.5253 -0.6467 -0.5871
12003TIP3    H157500   0.561   0.448  12.395  1.6182 -0.0890  1.1724
12003TIP3    H257501   0.637   0.348  12.310 -0.3103  0.3361 -1.0834
12004TIP3   OH257502   1.921   2.992   1.937 -0.5289 -0.3009  0.2050
12004TIP3    H157503   1.833   3.022   1.962 -0.3878  1.1455 -0.9636
12004TIP3    H257504   1.908   2.947   1.854 -0.4024 -1.6218  0.8844
12005TIP3   OH257505   3.158   0.507  14.781 -0.5908  0.0496 -0.4680
12005TIP3    H157506   3.132   0.433  14.727  2.3454 -1.6468  0.3399
12005TIP3    H257507   3.088   0.516  14.845 -2.3374 -0.2018 -2.2828
12006TIP3   OH257508   5.198   3.678  15.472 -0.0233  0.8929 -0.1002
12006TIP3    H157509   5.210   3.763  15.430 -0.9878  0.4127 -1.4017
12006TIP3    H257510   5.120   3.642  15.430 -0.2261 -0.1853  1.1848
12007TIP3   OH257511   0.014   4.503  13.423 -0.3225 -0.7861  0.2215
12007TIP3    H157512   0.010   4.432  13.487 -0.2876 -0.8770  0.1227
12007TIP3    H257513   0.075   4.472  13.356 -1.7855 -1.4936 -0.8243
12008TIP3   OH257514   1.995   5.390   0.345 -0.2640 -0.3419  0.2091
12008TIP3    H157515   2.054   5.335   0.398 -0.2369 -0.8558 -0.3517
12008TIP3    H257516   2.052   5.458   0.310 -0.6160  1.1010  2.3281
12009TIP3   OH257517   3.878   5.275   5.684 -0.5584  0.2801 -0.2574
12009TIP3    H157518   3.783   5.272   5.692 -0.5849  1.1782 -0.2416
12009TIP3    H257519   3.895   5.258   5.592 -0.6748 -1.0741 -0.0364
12010TIP3   OH257520   2.499   5.506  13.381  0.4872 -0.0292  0.5957
12010TIP3    H157521   2.458   5.436  13.331  0.7119 -0.2430  0.7101
12010TIP3    H257522   2.553   5.553  13.318 -0.4918  0.7010  0.2851
12011TIP3   OH257523   1.083   5.457  13.413  0.2593 -0.2114 -0.6533
12011TIP3    H157524   1.041   5.446  13.328 -1.0857 -0.3421 -0.0025
12011TIP3    H257525   1.031   5.401  13.472  0.9617  0.1289  0.3034
12012TIP3   OH257526   1.573   3.992   0.594  0.2439  0.1861 -0.5011
12012TIP3    H157527   1.663   4.024   0.591 -0.1609  1.5708  1.5608
12012TIP3    H257528   1.519   4.070   0.597 -1.1204 -0.6178 -2.8649
12013TIP3   OH257529   0.475   5.894   5.459 -0.0330 -0.0765  0.1845
12013TIP3    H157530   0.446   5.849   5.538 -1.5138  0.0526 -0.2494
12013TIP3    H257531   0.453   5.986   5.474 -1.5387 -0.2356 -0.8698
12014TIP3   OH257532   0.874   5.451  13.940  0.1054 -0.6456 -0.2277
12014TIP3    H157533   0.914   5.510  13.876  0.9783 -0.1385  0.7906
12014TIP3    H257534   0.924   5.370  13.932  1.2000 -0.0921  0.8697
12015TIP3   OH257535   3.963   3.264  16.946  0.2278 -0.1503  0.2818
12015TIP3    H157536   4.014   3.344  16.927 -0.7564  0.8070  1.5627
12015TIP3    H257537   3.894   3.264  16.880 -0.2050  0.4527  0.7318
12016TIP3   OH257538   5.984   2.390   5.805 -0.1225  0.4140  0.9648
12016TIP3    H157539   5.962   2.298   5.795 -0.7498  0.6627  0.0496
12016TIP3    H257540   6.062   2.390   5.861 -0.1411 -0.6604  0.9961
12017TIP3   OH257541   0.254   2.231  16.326  0.3924 -0.4371 -0.6487
12017TIP3    H157542   0.292   2.232  16.414  3.2497  0.2466 -1.8295
12017TIP3    H257543   0.319   2.275  16.271 -0.0465 -3.2659 -3.6124
12018TIP3   OH257544   2.889   4.666   5.788  0.0200  0.0675 -0.2425
12018TIP3    H157545   2.811   4.634   5.832  0.0532  0.2990 -0.0176
12018TIP3    H257546   2.867   4.664   5.695 -0.5509  0.9479 -0.1237
12019TIP3   OH257547   3.533   3.555   2.420  0.1190 -0.1542  0.6136
12019TIP3    H157548   3.552   3.604   2.340 -2.1528  0.8218  0.6254
12019TIP3    H257549   3.502   3.470   2.390 -0.9918  0.3063  0.4125
12020TIP3   OH257550   1.319   4.061  15.822  0.1977 -0.5102 -0.3404
12020TIP3    H157551   1.285   4.099  15.903 -0.8758 -3.3422  0.6156
12020TIP3    H257552   1.270   4.103  15.753 -0.3684  0.4410  0.6260
12021TIP3   OH257553   3.814   4.935  13.210  0.6517  0.1663  0.1911
12021TIP3    H157554   3.829   5.026  13.237  2.8656  0.2565 -1.1507
12021TIP3    H257555   3.732   4.938  13.161  0.2684  1.2883  0.8835
12022TIP3   OH257556   3.951   2.899  14.241  0.4290 -0.0168 -0.3021
12022TIP3    H157557   3.916   2.988  14.249 -0.4737 -0.2859 -1.1095
12022TIP3    H257558   3.979   2.876  14.329  1.6833  1.4715 -0.2873
12023TIP3   OH257559   3.699   5.692  14.228 -0.1219  0.6460  0.2203
12023TIP3    H157560   3.656   5.706  14.313  1.2121 -0.3985  1.0975
12023TIP3    H257561   3.642   5.734  14.165 -1.1619  1.4241  1.6452
12024TIP3   OH257562   1.254   0.602   2.168  0.1033 -0.3393 -0.1267
12024TIP3    H157563   1.220   0.591   2.257  1.5396 -0.2375  0.4402
12024TIP3    H257564   1.349   0.599   2.178  0.2768 -0.0827 -1.6320
12025TIP3   OH257565   2.620   4.236   0.963 -0.0222  0.6680 -0.2111
12025TIP3    H157566   2.693   4.298   0.961  0.5040  0.0529 -1.1043
12025TIP3    H257567   2.631   4.184   0.882 -0.8340 -0.1284  0.1761
12026TIP3   OH257568   5.308   4.169   5.053  0.2149 -0.0830  0.4495
12026TIP3    H157569   5.250   4.165   5.128  0.8452 -0.5888  0.9191
12026TIP3    H257570   5.278   4.099   4.995  0.6868 -0.7093  0.9435
12027TIP3   OH257571   4.976   5.854   3.150  0.5059 -0.3860  0.1517
12027TIP3    H157572   5.043   5.884   3.211 -0.2603 -0.4515  1.0321
12027TIP3    H257573   5.018   5.784   3.101  1.5526  0.5391 -0.3129
12028TIP3   OH257574   5.155   0.071   1.610  0.1760 -0.1956  0.0301
12028TIP3    H157575   5.203   0.153   1.620 -1.1004  0.4175  1.3572
12028TIP3    H257576   5.088   0.090   1.544  0.0564 -0.2580  0.1341
12029TIP3   OH257577   3.040   1.550  15.206  0.1240  0.1853 -0.1715
12029TIP3    H157578   3.111   1.613  15.196 -0.2360  0.7656  0.9027
12029TIP3    H257579   3.060   1.502  15.286 -1.2947  1.1669  0.7967
12030TIP3   OH257580   5.281   6.378  14.184 -0.2138  0.1692  0.2303
12030TIP3    H157581   5.187   6.363  14.189  0.0076 -0.8056  1.9595
12030TIP3    H257582   5.296   6.455  14.240 -0.0811  0.8697 -0.7483
12031TIP3   OH257583   0.923   1.744   4.439 -0.4184 -0.3081 -0.0173
12031TIP3    H157584   0.840   1.779   4.470 -0.5229 -1.0584  0.5838
12031TIP3    H257585   0.961   1.701   4.516  0.3980 -0.2028 -0.3531
12032TIP3   OH257586   6.684   0.138  13.137 -0.0098  0.1971  0.7059
12032TIP3    H157587   6.668   0.154  13.230  0.9984  0.8185  0.7787
12032TIP3    H257588   6.759   0.079  13.135 -0.8832 -0.9313  0.3106
12033TIP3   OH257589   4.427   1.793  11.744  0.0451 -0.0254 -0.0952
12033TIP3    H157590   4.505   1.849  11.749 -0.4440  0.7402 -0.9215
12033TIP3    H257591   4.365   1.833  11.805  0.3423 -0.7175  0.6704
12034TIP3   OH257592   0.925   5.218  12.148  0.4820 -0.6091  0.2466
12034TIP3    H157593   0.861   5.286  12.169 -0.0208 -0.8689 -0.4129
12034TIP3    H257594   0.963   5.246  12.064  0.2570 -1.1431 -0.0410
12035TIP3   OH257595   2.468   4.502   0.406  0.1095  0.0311  0.3547
12035TIP3    H157596   2.561   4.522   0.401  0.1837 -0.2413  0.6373
12035TIP3    H257597   2.464   4.407   0.416 -0.2374 -0.1166 -0.9899
12036TIP3   OH257598   3.959   1.215   1.333 -0.3109 -0.7189  0.1362
12036TIP3    H157599   3.889   1.253   1.280  0.6484 -0.0879 -0.6945
12036TIP3    H257600   3.985   1.285   1.393  0.0810 -0.7112 -0.0363
12037TIP3   OH257601   0.250   5.607   3.143 -0.3628  1.0243  0.0917
12037TIP3    H157602   0.253   5.646   3.230  3.7157  1.4870 -0.1648
12037TIP3    H257603   0.283   5.518   3.155 -0.0123  1.0142 -0.9414
12038TIP3   OH257604   1.122   3.262   3.083  0.0307  0.0650  0.2817
12038TIP3    H157605   1.079   3.209   3.017  0.1755 -1.1387  1.1350
12038TIP3    H257606   1.059   3.267   3.155 -0.1609  1.4290  0.0332
12039TIP3   OH257607   0.225   5.326  12.268 -0.8001 -0.1710  0.0755
12039TIP3    H157608   0.277   5.389  12.317  0.3860 -1.9914  1.2064
12039TIP3    H257609   0.135   5.340  12.297 -0.1566 -1.0424  2.6122
12040TIP3   OH257610   3.610   0.632   0.862 -0.4530  0.7532 -0.0678
12040TIP3    H157611   3.548   0.568   0.896  0.1297 -0.5506 -1.4255
12040TIP3    H257612   3.593   0.635   0.768  1.8981 -0.0122 -0.5420
12041TIP3   OH257613   2.692   5.600   1.457 -0.1843  0.1902 -0.0188
12041TIP3    H157614   2.676   5.509   1.432  1.8432  0.5036 -2.7128
12041TIP3    H257615   2.609   5.644   1.440  0.0496 -0.3659 -2.9404
12042TIP3   OH257616   4.078   4.018   5.944  0.1300  0.2177  0.5071
12042TIP3    H157617   4.071   4.110   5.969 -2.2367 -0.1681  1.3858
12042TIP3    H257618   4.090   4.020   5.849  1.6984  1.4607  0.7118
12043TIP3   OH257619   1.179   4.545   3.672 -0.5143  0.1033  0.0289
12043TIP3    H157620   1.115   4.616   3.674 -0.8305 -0.1398 -0.9558
12043TIP3    H257621   1.134   4.473   3.627 -0.4852 -1.0191  1.7126
12044TIP3   OH257622   1.026   4.866  13.577  0.1617 -0.0859  0.4939
12044TIP3    H157623   0.937   4.900  13.578 -0.4189 -1.3418 -1.9814
12044TIP3    H257624   1.079   4.933  13.620 -1.3255  2.6787 -1.8503
12045TIP3   OH257625   0.533   1.303  15.807 -0.0293 -0.2096  0.6448
12045TIP3    H157626   0.483   1.263  15.737  0.4606 -1.9336  1.2574
12045TIP3    H257627   0.604   1.241  15.824  2.2653  2.1391 -0.1420
12046TIP3   OH257628   5.611   5.551   5.737 -0.4315  0.1227 -0.1156
12046TIP3    H157629   5.578   5.620   5.680 -0.8865  2.0776  2.4502
12046TIP3    H257630   5.537   5.490   5.746 -1.3252  1.2999  0.6732
12047TIP3   OH257631   4.504   0.165  14.769 -0.4575  0.2430 -0.1134
12047TIP3    H157632   4.524   0.258  14.776 -0.5205  0.3057 -0.7070
12047TIP3    H257633   4.523   0.129  14.855 -2.0958  1.1211  0.6276
12048TIP3   OH257634   2.068   0.403  15.376  0.5018 -0.1712 -0.2520
12048TIP3    H157635   2.141   0.342  15.377  1.2941  0.7345 -1.5568
12048TIP3    H257636   2.003   0.364  15.434  1.9595 -1.0518  0.8243
12049TIP3   OH257637   5.497   1.307   5.673 -0.7948  0.4331  0.5683
12049TIP3    H157638   5.568   1.370   5.685 -1.3028  1.3465 -1.0419
12049TIP3    H257639   5.511   1.272   5.585 -2.5774  0.9606  0.0439
12050TIP3   OH257640   2.978   3.009   4.191  0.0981  0.2278 -0.1371
12050TIP3    H157641   3.032   2.955   4.248  1.3056  0.5296 -0.9553
12050TIP3    H257642   2.918   2.948   4.148 -0.4776 -0.0621  1.0568
12051TIP3   OH257643   1.843   5.330   1.677 -0.1612 -0.7380 -0.0753
12051TIP3    H157644   1.889   5.269   1.620 -1.5056 -0.3117 -1.6419
12051TIP3    H257645   1.845   5.288   1.763 -0.2821 -2.5659 -0.9481
12052TIP3   OH257646   0.010   5.430  14.830 -0.3690  0.3937 -0.0839
12052TIP3    H157647  -0.006   5.497  14.896  0.4248  0.8157 -0.3252
12052TIP3    H257648   0.054   5.360  14.878 -0.1910  0.5124 -0.0745
12053TIP3   OH257649   3.627   6.136   5.750 -0.2942 -0.5473 -0.2488
12053TIP3    H157650   3.706   6.096   5.786 -1.0725 -1.3747  0.5402
12053TIP3    H257651   3.643   6.230   5.757  0.8316 -0.7062 -0.5565
12054TIP3   OH257652   6.422   3.158  16.411 -0.6863  0.1591  0.2953
12054TIP3    H157653   6.361   3.145  16.483 -1.9553 -2.5078 -1.2093
12054TIP3    H257654   6.372   3.136  16.332  2.0425 -1.6652 -1.0282
12055TIP3   OH257655   6.136   6.153   5.629  0.5188 -0.4491  0.4608
12055TIP3    H157656   6.095   6.090   5.569  0.2579  1.1644 -1.0924
12055TIP3    H257657   6.229   6.147   5.609  0.5946 -1.0256  0.9811
12056TIP3   OH257658   4.888   1.772   4.181 -0.0201 -0.7536  0.2153
12056TIP3    H157659   4.891   1.698   4.121 -0.6517  0.4521 -1.3534
12056TIP3    H257660   4.973   1.814   4.172 -0.5201  0.0811 -0.7076
12057TIP3   OH257661   6.554   3.951   5.579  0.4823 -0.3050 -0.4371
12057TIP3    H157662   6.484   3.940   5.515  1.3822 -1.6760 -1.2147
12057TIP3    H257663   6.597   3.865   5.582  2.1957  0.5512 -0.0597
12058TIP3   OH257664   4.671   4.414   5.675 -0.6026 -0.1224  0.3036
12058TIP3    H157665   4.714   4.449   5.753 -0.1884 -0.3027  0.1542
12058TIP3    H257666   4.647   4.491   5.624 -0.8810 -0.0023  0.6129
12059TIP3   OH257667   5.406   1.204  14.153  0.5350 -0.6453  0.2807
12059TIP3    H157668   5.474   1.146  14.117  1.7958  0.4925  0.7961
12059TIP3    H257669   5.433   1.292  14.126 -1.2035 -0.2506 -0.2377
12060TIP3   OH257670   4.701   4.787  16.732 -0.7742 -0.4387  0.5466
12060TIP3    H157671   4.667   4.807  16.645 -1.1750 -1.0704  0.5569
12060TIP3    H257672   4.788   4.750  16.715 -0.7305 -0.2861  0.4354
12061TIP3   OH257673   0.308   5.650   3.567  0.4031  0.0658  0.3278
12061TIP3    H157674   0.257   5.674   3.645 -1.0164 -1.9611  0.0449
12061TIP3    H257675   0.351   5.568   3.590 -1.1094 -1.2851 -1.4486
12062TIP3   OH257676   1.826   5.140   3.961  0.5739 -0.6192  0.4350
12062TIP3    H157677   1.816   5.233   3.982 -2.5362 -1.0898  1.3969
12062TIP3    H257678   1.896   5.137   3.896  1.7785  2.2279  1.5247
12063TIP3   OH257679   5.955   6.451   2.368  0.0248  0.0529 -0.6066
12063TIP3    H157680   6.000   6.532   2.391 -1.0110 -0.2247  2.6803
12063TIP3    H257681   5.981   6.389   2.437 -1.6744 -1.4640 -1.2935
12064TIP3   OH257682   5.910   2.754   4.840  0.4356 -0.0807  0.1050
12064TIP3    H157683   5.834   2.725   4.890  0.4050 -0.7341 -0.3195
12064TIP3    H257684   5.916   2.848   4.858 -0.4891 -0.0210  0.1122
12065TIP3   OH257685   5.544   5.741  11.260 -0.0602  0.2313 -0.2754
12065TIP3    H157686   5.478   5.725  11.328  0.0510 -0.4094 -0.3128
12065TIP3    H257687   5.581   5.654  11.243  1.4889  0.7336  0.4482
12066TIP3   OH257688   5.137   6.251  12.177 -0.5071 -0.1154 -0.1006
12066TIP3    H157689   5.162   6.326  12.231  1.4800 -1.9058  1.5644
12066TIP3    H257690   5.077   6.201  12.232 -0.7993 -0.4278 -0.7024
12067TIP3   OH257691   2.044   0.172  14.938  0.2104  0.8212  0.7628
12067TIP3    H157692   1.989   0.195  15.013  0.7514  1.0679  1.0843
12067TIP3    H257693   2.026   0.079  14.923 -0.9364  1.1033  0.3336
12068TIP3   OH257694   1.338   6.255  10.940 -0.5113 -0.2977 -0.1559
12068TIP3    H157695   1.400   6.276  10.870 -0.9010 -0.3149 -0.5086
12068TIP3    H257696   1.256   6.236  10.894 -0.5469 -1.1544  0.2491
12069TIP3   OH257697   4.659   1.885  15.576  0.0721  0.4134 -0.0582
12069TIP3    H157698   4.744   1.884  15.619 -0.0545  1.0828  0.2108
12069TIP3    H257699   4.619   1.968  15.602 -0.8058 -0.0433  0.0893
12070TIP3   OH257700   0.456   5.598  13.813 -0.6027  0.1945  0.0208
12070TIP3    H157701   0.367   5.595  13.778  0.0542 -0.9852 -1.6386
12070TIP3    H257702   0.506   5.644  13.745  0.4622 -1.0290 -0.0269
12071TIP3   OH257703   0.393   1.646   3.570 -0.2679 -0.2021 -0.1768
12071TIP3    H157704   0.298   1.642   3.562 -0.0428 -1.4576 -2.6806
12071TIP3    H257705   0.418   1.731   3.534 -0.3263 -0.5446 -1.0395
12072TIP3   OH257706   0.968   0.306  12.874  0.1589  0.1999 -0.5545
12072TIP3    H157707   1.004   0.394  12.861  1.5418  0.0137  1.7417
12072TIP3    H257708   0.874   0.320  12.882  0.1631  1.2406 -1.9456
12073TIP3   OH257709   1.030   6.223  11.919 -0.3678 -0.0334  1.1678
12073TIP3    H157710   1.101   6.202  11.858  0.9506 -1.4251  3.1365
12073TIP3    H257711   0.963   6.263  11.864  1.5105  0.3798 -0.9044
12074TIP3   OH257712   0.642   2.046  11.756 -0.2336 -0.2144  0.2506
12074TIP3    H157713   0.573   2.013  11.699 -1.5943  2.5721  0.2172
12074TIP3    H257714   0.604   2.042  11.844 -0.7027  1.9001  0.1637
12075TIP3   OH257715   5.950   2.941  16.911 -0.0386  0.3240 -0.4838
12075TIP3    H157716   5.879   2.878  16.924 -1.9506  1.8659 -3.0317
12075TIP3    H257717   5.934   3.009  16.977 -0.9719  0.6644 -1.0483
12076TIP3   OH257718   5.863   0.444   3.313 -0.1289 -0.0992 -0.0975
12076TIP3    H157719   5.871   0.492   3.395  0.4651 -1.1248  0.4555
12076TIP3    H257720   5.796   0.491   3.264 -2.1199 -0.7861  1.8987
12077TIP3   OH257721   6.013   0.507   1.834  0.0835  0.6575 -0.6041
12077TIP3    H157722   5.980   0.465   1.913 -1.9096 -0.5962 -2.0668
12077TIP3    H257723   6.107   0.488   1.835 -0.0126  0.1438  1.1333
12078TIP3   OH257724   6.468   2.134  13.669 -0.1021 -0.4110 -0.4768
12078TIP3    H157725   6.471   2.077  13.592  1.1594  0.4497 -1.0877
12078TIP3    H257726   6.453   2.074  13.742 -0.7649 -1.3005 -1.3297
12079TIP3   OH257727   6.180   3.736  13.671 -0.3245  0.0064 -0.2386
12079TIP3    H157728   6.171   3.740  13.766 -1.4737 -1.1060 -0.2749
12079TIP3    H257729   6.104   3.784  13.638  0.0966  0.4268 -0.5984
12080TIP3   OH257730   1.617   1.870  15.631 -0.3814  0.1934  0.1127
12080TIP3    H157731   1.618   1.957  15.591 -0.4597  0.3252  0.3928
12080TIP3    H257732   1.682   1.820  15.582 -1.6359 -0.1328 -1.2736
12081TIP3   OH257733   5.884   4.652  14.035  0.0746 -0.2606  0.2704
12081TIP3    H157734   5.812   4.614  14.086  2.0112 -1.7082  2.0026
12081TIP3    H257735   5.866   4.625  13.945 -2.6716  1.1813  0.3311
12082TIP3   OH257736   2.508   0.807  11.370  0.0924 -0.3070 -0.2926
12082TIP3    H157737   2.443   0.759  11.421 -0.3810 -0.4426 -1.0168
12082TIP3    H257738   2.588   0.754  11.378 -0.0049 -0.3814  0.2115
12083TIP3   OH257739   1.550   4.404  16.151 -0.3130  0.3130 -0.6178
12083TIP3    H157740   1.534   4.333  16.089  0.6826  0.2075 -0.7646
12083TIP3    H257741   1.608   4.464  16.104 -0.6772  0.9314 -0.2837
12084TIP3   OH257742   6.114   0.281   6.109  0.3291 -0.4171  0.3633
12084TIP3    H157743   6.029   0.257   6.145 -0.9121  2.7747 -0.2912
12084TIP3    H257744   6.120   0.233   6.027  0.3914 -2.7604  1.6919
12085TIP3   OH257745   6.176   0.930   1.055 -0.3266 -0.0558 -0.0858
12085TIP3    H157746   6.155   1.023   1.047 -0.4585  0.1630  2.4600
12085TIP3    H257747   6.253   0.919   0.999 -0.7336  1.4134 -0.9901
12086TIP3   OH257748   5.988   3.912  11.623  0.2203 -0.2424 -0.0193
12086TIP3    H157749   5.970   3.992  11.573  0.5775 -0.2859 -0.2203
12086TIP3    H257750   6.046   3.941  11.694  1.4583 -0.5590 -0.8823
12087TIP3   OH257751   4.449   6.539  13.130 -0.2075 -0.2460 -0.6670
12087TIP3    H157752   4.500   6.521  13.051 -2.8019 -2.1117 -1.9759
12087TIP3    H257753   4.377   6.594  13.100 -0.0515  0.8056  0.8249
12088TIP3   OH257754   5.448   3.708  14.116  1.0383  0.1892  0.5258
12088TIP3    H157755   5.453   3.663  14.201  0.6113  1.1463  1.0583
12088TIP3    H257756   5.511   3.661  14.061 -0.1009 -1.6923  0.7804
12089TIP3   OH257757   4.408   1.501  12.508 -0.4299 -0.3216  0.0789
12089TIP3    H157758   4.459   1.579  12.484  0.2122 -0.7704 -0.0329
12089TIP3    H257759   4.347   1.532  12.575 -1.8798  0.8339 -1.7196
12090TIP3   OH257760   3.359   6.724  16.441  0.3853  0.2442  0.1898
12090TIP3    H157761   3.375   6.647  16.387 -0.1833 -1.4066  2.3571
12090TIP3    H257762   3.437   6.732  16.496  0.2702  1.0129  0.2581
12091TIP3   OH257763   1.719   1.094   6.005 -0.1662 -0.1483 -0.1649
12091TIP3    H157764   1.793   1.076   6.064 -0.2074 -0.2548 -0.1455
12091TIP3    H257765   1.716   1.190   6.000  0.3324 -0.1552 -0.6202
12092TIP3   OH257766   2.770   5.424   6.458  0.5159 -0.0632 -0.6839
12092TIP3    H157767   2.708   5.428   6.532 -0.2120  3.3421 -1.3950
12092TIP3    H257768   2.745   5.344   6.411 -1.8643  0.0182  0.3395
12093TIP3   OH257769   1.949   0.078   4.195  0.2355  0.3683  0.1744
12093TIP3    H157770   1.938   0.026   4.275  1.8635 -0.6383 -0.2482
12093TIP3    H257771   1.969   0.166   4.226  2.1062 -0.2929  0.8902
12094TIP3   OH257772   4.457   0.209  11.176  0.3434  0.2946  0.0254
12094TIP3    H157773   4.441   0.288  11.227  0.6083  0.0348  0.5106
12094TIP3    H257774   4.485   0.144  11.240 -2.2167 -0.9040 -0.0282
12095TIP3   OH257775   6.380   5.541   2.150  0.0285 -0.0608 -0.3356
12095TIP3    H157776   6.409   5.457   2.185 -0.9785  0.0648  0.8198
12095TIP3    H257777   6.385   5.601   2.224 -1.2342  0.4145 -0.6190
12096TIP3   OH257778   2.031   5.842   2.055  0.1950 -0.1743 -0.3536
12096TIP3    H157779   1.967   5.771   2.060 -0.4081  0.1937 -2.2969
12096TIP3    H257780   1.993   5.912   2.108  0.3821 -0.9906  0.8710
12097TIP3   OH257781   0.203   1.049   5.181  0.0180  0.2859  0.2725
12097TIP3    H157782   0.164   0.999   5.253  0.2636 -0.0008  0.2064
12097TIP3    H257783   0.260   0.986   5.136 -2.2494 -0.3688 -1.8832
12098TIP3   OH257784   3.749   5.846  13.416 -0.2407  0.2263  0.5620
12098TIP3    H157785   3.739   5.861  13.510 -3.2938  0.8910  0.2045
12098TIP3    H257786   3.740   5.751  13.406  0.0031  0.1631  0.9473
12099TIP3   OH257787   0.090   0.998  13.583  0.5959 -0.4517 -0.4854
12099TIP3    H157788   0.123   0.955  13.662  0.2207 -0.6307 -0.4260
12099TIP3    H257789   0.156   1.065  13.564  0.4703 -0.1075  0.2418
12100TIP3   OH257790   3.407   6.814   1.489 -0.5649 -0.3899 -0.3362
12100TIP3    H157791   3.405   6.906   1.516  1.1520 -0.2753 -0.5752
12100TIP3    H257792   3.315   6.792   1.474 -0.8988  1.6578 -1.5091
12101TIP3   OH257793   6.746   0.697  16.034  0.0792 -0.3861  0.6356
12101TIP3    H157794   6.797   0.742  16.101  0.5423 -1.3974  0.9647
12101TIP3    H257795   6.786   0.724  15.951 -0.6640  1.0759  0.7377
12102TIP3   OH257796   0.502   2.964  14.278  0.2140  0.3179  0.4198
12102TIP3    H157797   0.485   2.990  14.368  0.7801  0.6293  0.4364
12102TIP3    H257798   0.596   2.946  14.275  0.0392 -0.6054  0.1241
12103TIP3   OH257799   5.201   4.389  13.369  0.2821 -0.3644  0.0431
12103TIP3    H157800   5.177   4.416  13.281 -3.6443  2.5333  1.8601
12103TIP3    H257801   5.186   4.294  13.370 -0.8183 -0.2464 -2.0511
12104TIP3   OH257802   1.933   1.283  12.408  0.4007 -0.2186  0.0239
12104TIP3    H157803   1.945   1.192  12.381 -0.5462 -0.9282  1.8659
12104TIP3    H257804   2.020   1.313  12.433  0.9465 -0.1727 -1.8478
12105TIP3   OH257805   4.788   0.990  11.152 -0.2724  0.0656  0.2428
12105TIP3    H157806   4.823   0.948  11.074  0.1828 -1.4278  1.2245
12105TIP3    H257807   4.864   1.008  11.206 -0.4413  2.4050 -0.2538
12106TIP3   OH257808   0.808   4.600   0.318  0.1150  0.3837 -0.1501
12106TIP3    H157809   0.726   4.634   0.355 -0.3785 -0.1393 -0.7537
12106TIP3    H257810   0.824   4.655   0.241 -0.9136 -0.9933 -1.3786
12107TIP3   OH257811   2.701   4.578   4.201 -0.7769  0.4420  0.4125
12107TIP3    H157812   2.710   4.489   4.169  0.4311  0.3854  0.8687
12107TIP3    H257813   2.791   4.612   4.204 -1.0072  0.9520  2.2288
12108TIP3   OH257814   2.891   1.810   5.287  0.4404 -0.2663  0.6183
12108TIP3    H157815   2.880   1.880   5.222  1.0570  0.0328  0.8305
12108TIP3    H257816   2.834   1.835   5.360  2.8607  1.5660  1.9578
12109TIP3   OH257817   1.594   6.789  13.784  0.2961  0.6263 -0.1175
12109TIP3    H157818   1.609   6.835  13.866  0.0623  0.8078 -0.1774
12109TIP3    H257819   1.582   6.697  13.810  0.6398  0.6151  0.0104
12110TIP3   OH257820   1.072   5.640   0.516 -0.2422 -0.1764 -0.3005
12110TIP3    H157821   0.986   5.668   0.549 -2.3212 -4.1421 -1.9328
12110TIP3    H257822   1.067   5.654   0.421  1.0297 -0.2244 -0.3832
12111TIP3   OH257823   2.143   5.424   3.974 -0.1143 -0.1087 -0.0783
12111TIP3    H157824   2.189   5.366   4.035 -0.7485  0.5386  1.0298
12111TIP3    H257825   2.091   5.365   3.919 -1.9024 -0.5194  2.0010
12112TIP3   OH257826   4.368   2.694  13.662  0.1031 -0.2660 -0.1669
12112TIP3    H157827   4.382   2.599  13.658  0.6447 -0.1582 -1.0891
12112TIP3    H257828   4.341   2.718  13.573  2.0077  0.7515 -0.4885
12113TIP3   OH257829   3.457   0.199  15.398 -0.3415  0.2608 -0.3979
12113TIP3    H157830   3.394   0.127  15.401 -0.5006  0.4428  1.0623
12113TIP3    H257831   3.408   0.272  15.360 -0.2146 -0.3569 -1.7656
12114TIP3   OH257832   2.245   4.189   6.148  0.5099 -0.0220 -0.5491
12114TIP3    H157833   2.267   4.122   6.212 -0.3832  0.2524  0.0516
12114TIP3    H257834   2.234   4.269   6.199 -0.9992  0.0339 -0.9346
12115TIP3   OH257835   5.533   0.885   0.286 -0.8643 -0.1117 -0.5868
12115TIP3    H157836   5.478   0.960   0.308 -0.4712 -0.4354  1.6951
12115TIP3    H257837   5.620   0.909   0.319 -0.4174 -0.9655 -1.1294
12116TIP3   OH257838   0.472   0.154  12.575 -0.0785  0.3167 -0.2790
12116TIP3    H157839   0.386   0.157  12.534 -0.0943  0.1605 -0.2561
12116TIP3    H257840   0.528   0.206  12.517  0.1778 -0.9217 -1.1450
12117TIP3   OH257841   5.360   6.736  10.700 -0.1262  0.2131 -0.7927
12117TIP3    H157842   5.445   6.777  10.683  1.0113 -1.3978  0.8951
12117TIP3    H257843   5.341   6.758  10.791 -0.7078 -0.8677 -0.6532
12118TIP3   OH257844   4.232   4.852  13.734 -0.1567  0.5175 -0.6344
12118TIP3    H157845   4.300   4.823  13.794  0.4036  2.1402 -0.4727
12118TIP3    H257846   4.272   4.846  13.647 -0.3527 -0.0766 -0.6849
12119TIP3   OH257847   2.162   4.825  11.348  0.5016  0.5182  0.5098
12119TIP3    H157848   2.102   4.784  11.410  0.4406  1.2398  0.9379
12119TIP3    H257849   2.112   4.832  11.267  1.2585 -2.2939 -0.2421
12120TIP3   OH257850   2.850   1.519   0.637  0.0078  0.5808  0.4504
12120TIP3    H157851   2.831   1.607   0.604  1.1311  0.1676 -1.4068
12120TIP3    H257852   2.945   1.512   0.631  0.0470 -0.2439  1.9552
12121TIP3   OH257853   3.873   3.845  11.211 -0.5134 -0.4274  0.7237
12121TIP3    H157854   3.844   3.758  11.238 -0.7623 -0.4437  0.3981
12121TIP3    H257855   3.966   3.848  11.235 -0.6945 -0.5021  1.4430
12122TIP3   OH257856   4.232   1.081   2.309  0.3507  0.3005  0.4230
12122TIP3    H157857   4.299   1.045   2.251 -0.3504  0.0797 -0.2576
12122TIP3    H257858   4.244   1.176   2.303  0.0536  0.2907 -0.3552
12123TIP3   OH257859   1.044   1.148  17.272  0.2095 -0.4849 -0.3204
12123TIP3    H157860   0.985   1.174  17.202  0.8787 -1.4967 -1.2680
12123TIP3    H257861   0.993   1.090  17.327 -0.1561 -0.0999 -0.2492
12124TIP3   OH257862   6.116   6.385  10.960 -0.0792  0.4836  0.3909
12124TIP3    H157863   6.185   6.371  10.895 -1.1946 -0.7514 -0.5550
12124TIP3    H257864   6.163   6.410  11.040  1.4645 -0.3660 -0.2191
12125TIP3   OH257865   3.363   2.815  15.107  0.7514  0.2150 -0.2671
12125TIP3    H157866   3.311   2.734  15.108  1.1921 -0.0670  0.7474
12125TIP3    H257867   3.314   2.874  15.050 -1.2903  0.3390  1.5487
12126TIP3   OH257868   2.261   2.894   5.576 -0.5411  0.1856 -0.2807
12126TIP3    H157869   2.323   2.856   5.514  0.0853 -0.3859  0.6929
12126TIP3    H257870   2.315   2.927   5.647 -1.4198 -1.3434  1.1212
12127TIP3   OH257871   1.064   6.175  15.493  0.6116 -0.1001  0.6167
12127TIP3    H157872   1.051   6.204  15.583  0.5903 -0.4687  0.7301
12127TIP3    H257873   1.078   6.081  15.499 -0.0567 -0.2311  0.1738
12128TIP3   OH257874   6.161   5.608   1.987 -0.0748  0.6079  0.3469
12128TIP3    H157875   6.230   5.629   1.924  0.8543 -1.7071  0.5427
12128TIP3    H257876   6.207   5.566   2.060 -1.5684  0.0049  0.9594
12129TIP3   OH257877   2.215   0.411   3.543 -0.0326 -0.1841 -0.5548
12129TIP3    H157878   2.171   0.360   3.611 -0.9709  2.0496  0.5728
12129TIP3    H257879   2.166   0.392   3.464  0.4113 -1.9900 -0.4199
12130TIP3   OH257880   2.480   4.260  14.143 -0.8547 -0.2772 -0.0265
12130TIP3    H157881   2.571   4.262  14.114 -1.8618  2.2471 -3.2943
12130TIP3    H257882   2.477   4.323  14.215 -0.1807  0.3337 -0.5187
12131TIP3   OH257883   3.370   6.330   4.262 -0.1498 -0.3137 -0.0748
12131TIP3    H157884   3.356   6.285   4.346 -0.0283  0.9975  0.6675
12131TIP3    H257885   3.388   6.420   4.287  1.4934 -0.2533 -1.4592
12132TIP3   OH257886   3.704   6.072   3.485  0.5167  0.1125 -0.1836
12132TIP3    H157887   3.614   6.052   3.457  1.4155 -4.1668 -0.3059
12132TIP3    H257888   3.697   6.086   3.579 -0.0861 -1.7485  0.0713
12133TIP3   OH257889   3.938   0.093   5.430 -0.1422  0.0856 -0.5285
12133TIP3    H157890   3.855   0.048   5.446  0.4955 -1.8661 -2.3847
12133TIP3    H257891   3.987   0.081   5.510 -1.2033  0.2102  0.1515
12134TIP3   OH257892   5.097   3.636   2.690 -0.8371  0.2847  0.2289
12134TIP3    H157893   5.175   3.683   2.659 -0.7847  1.0962  1.5311
12134TIP3    H257894   5.024   3.694   2.670 -0.7788  0.9159  1.7847
12135TIP3   OH257895   0.539   6.570   5.898 -0.4750  0.6013 -0.8067
12135TIP3    H157896   0.585   6.545   5.818  1.9160  2.6685 -0.1068
12135TIP3    H257897   0.447   6.571   5.873  0.0319 -1.1237 -2.8826
12136TIP3   OH257898   5.306   4.348  12.347 -0.3793  0.8598 -0.3246
12136TIP3    H157899   5.384   4.294  12.354  1.0590  2.8248 -0.6846
12136TIP3    H257900   5.276   4.359  12.437  0.4729  1.1186 -0.0771
12137TIP3   OH257901   4.449   5.077   4.764  0.2659 -0.1863 -0.2578
12137TIP3    H157902   4.451   5.002   4.824 -1.7798  0.1308  0.2360
12137TIP3    H257903   4.514   5.055   4.697  0.8071 -1.6877  0.7334
12138TIP3   OH257904   0.601   3.405  16.572  0.5558 -0.2625  0.6363
12138TIP3    H157905   0.509   3.394  16.545  0.5044 -0.4113  0.8711
12138TIP3    H257906   0.602   3.381  16.665  0.1755  3.0092  1.5397
12139TIP3   OH257907   6.628   0.786   3.992  0.0911 -0.3576 -0.1207
12139TIP3    H157908   6.697   0.722   3.975 -1.0823 -1.5491 -0.5239
12139TIP3    H257909   6.617   0.833   3.909 -0.4036 -0.9903 -0.4174
12140TIP3   OH257910   3.726   4.569   3.275 -0.1567 -0.0992  0.2516
12140TIP3    H157911   3.759   4.505   3.338  0.1399  0.6332  0.8473
12140TIP3    H257912   3.777   4.648   3.292 -0.5643  0.3170 -0.4362
12141TIP3   OH257913   4.409   1.711   5.698  0.3961  0.0160 -0.3482
12141TIP3    H157914   4.456   1.690   5.779  0.2724  0.8230 -0.0585
12141TIP3    H257915   4.423   1.805   5.687 -1.3187  0.3040 -0.1502
12142TIP3   OH257916   6.094   2.976   1.509  0.4735 -0.6129 -0.4455
12142TIP3    H157917   6.015   3.016   1.473 -0.6021 -0.7416  1.7021
12142TIP3    H257918   6.063   2.901   1.559  2.0844 -1.4149 -0.6033
12143TIP3   OH257919   5.121   4.271  12.152  0.1881 -0.4146  0.0877
12143TIP3    H157920   5.174   4.249  12.076  2.5830  3.6965  0.3974
12143TIP3    H257921   5.184   4.273  12.225 -1.6778 -2.1211  1.8114
12144TIP3   OH257922   2.108   3.434  14.440 -0.3207  0.2779 -0.3680
12144TIP3    H157923   2.057   3.421  14.520  1.0747  1.5784  0.7711
12144TIP3    H257924   2.198   3.445  14.471  0.0883  1.8045 -2.0504
12145TIP3   OH257925   1.850   1.133  16.221  0.4838 -0.1098 -0.1322
12145TIP3    H157926   1.879   1.219  16.191 -0.1653 -0.1083 -0.7665
12145TIP3    H257927   1.788   1.153  16.292 -0.4769 -0.0096 -0.9800
12146TIP3   OH257928   4.761   1.013  14.686  0.5481 -0.3118  0.1791
12146TIP3    H157929   4.842   0.977  14.724  0.4251 -0.8988 -0.1074
12146TIP3    H257930   4.788   1.047  14.601  0.3009 -1.4014 -0.3378
12147TIP3   OH257931   4.585   5.859  13.191  0.8178 -0.1116 -0.1718
12147TIP3    H157932   4.664   5.895  13.231  0.6082  1.4852 -1.1523
12147TIP3    H257933   4.571   5.914  13.113 -1.5079 -0.0963  0.2456
12148TIP3   OH257934   3.206   5.356   1.596 -0.0551 -0.6236 -0.2736
12148TIP3    H157935   3.281   5.302   1.572 -1.0792 -1.4468 -1.7455
12148TIP3    H257936   3.230   5.445   1.568  0.7842 -0.6923  0.2233
12149TIP3   OH257937   1.405   2.062   0.720  0.5107  0.1209  0.1834
12149TIP3    H157938   1.444   2.107   0.795  0.8705  0.0242  0.0552
12149TIP3    H257939   1.459   2.088   0.646  1.6846 -1.7308  0.3380
12150TIP3   OH257940   6.157   4.028  15.677 -0.3469 -0.4447 -0.3063
12150TIP3    H157941   6.127   4.056  15.591 -0.3174  2.3251  0.5168
12150TIP3    H257942   6.246   3.996  15.663  0.1448  1.2234 -1.1334
12151TIP3   OH257943   3.304   6.168   3.271  0.2103  0.5297 -0.0398
12151TIP3    H157944   3.311   6.205   3.183  1.3943 -0.9650 -0.5924
12151TIP3    H257945   3.210   6.165   3.289 -0.1682 -0.9892 -2.0726
12152TIP3   OH257946   5.807   2.149  16.801 -0.1753  0.2829  0.0478
12152TIP3    H157947   5.765   2.158  16.715 -0.3887 -1.4350 -0.0522
12152TIP3    H257948   5.857   2.230  16.812  0.7659  0.0383 -2.1995
12153TIP3   OH257949   1.583   3.571  15.779  0.0452  0.3360  0.2747
12153TIP3    H157950   1.611   3.481  15.760  0.8752  0.4238  1.0488
12153TIP3    H257951   1.497   3.561  15.818  0.0493 -0.1098  0.1720
12154TIP3   OH257952   5.479   1.638   0.511  0.3098  0.2667 -0.3227
12154TIP3    H157953   5.391   1.617   0.540  0.6759  0.3550  0.8941
12154TIP3    H257954   5.535   1.615   0.585  1.2040  1.1450 -0.7126
12155TIP3   OH257955   3.912   5.094   5.112  0.6028 -0.1822 -0.2125
12155TIP3    H157956   3.893   5.003   5.134  1.2450  0.4526  3.1671
12155TIP3    H257957   3.829   5.140   5.128  1.2317  0.3790  1.5609
12156TIP3   OH257958   1.193   2.992  11.690 -0.2794  0.3915  0.6700
12156TIP3    H157959   1.150   3.057  11.745  0.4818  1.3630  0.1350
12156TIP3    H257960   1.136   2.984  11.613 -3.7230 -4.1902  3.3966
12157TIP3   OH257961   6.276   5.257  12.237 -0.1917 -0.3296  0.1607
12157TIP3    H157962   6.229   5.216  12.164 -0.4387 -0.2687  0.2869
12157TIP3    H257963   6.208   5.299  12.289  0.2492  1.9678 -1.0673
12158TIP3   OH257964   5.393   2.245  13.091  0.3709  0.4447 -0.2451
12158TIP3    H157965   5.302   2.219  13.080  1.3537 -2.1572 -2.7995
12158TIP3    H257966   5.413   2.224  13.182 -0.6787 -2.0795 -0.5579
12159TIP3   OH257967   2.222   1.099  11.414  0.3936 -0.4217  0.0136
12159TIP3    H157968   2.151   1.052  11.370  0.0660 -0.5697  0.7043
12159TIP3    H257969   2.186   1.185  11.431  0.5497 -0.3400 -0.0698
12160TIP3   OH257970   4.727   3.864  16.009 -0.1195 -0.0131 -0.5979
12160TIP3    H157971   4.757   3.883  16.098 -0.8423  0.7919 -0.5213
12160TIP3    H257972   4.677   3.783  16.018 -0.7069  0.3934 -0.1588
12161TIP3   OH257973   6.678   3.127  16.507  0.1175  0.0521 -0.4105
12161TIP3    H157974   6.676   3.184  16.584  0.9862 -2.4118  1.5375
12161TIP3    H257975   6.604   3.155  16.454  1.3866  3.9592 -0.3106
12162TIP3   OH257976   4.171   0.579   3.513 -0.0768  0.2070 -0.0886
12162TIP3    H157977   4.190   0.486   3.527 -2.5870 -0.0901  1.6393
12162TIP3    H257978   4.104   0.580   3.446 -0.3172  0.7555  0.1589
12163TIP3   OH257979   1.805   0.780  16.734  0.8432 -0.0159 -0.0996
12163TIP3    H157980   1.772   0.690  16.727 -0.0358  0.2748  0.1848
12163TIP3    H257981   1.824   0.805  16.644  2.9013 -1.1376  0.0052
12164TIP3   OH257982   2.273   4.037   0.969 -0.3648  0.5037 -0.7913
12164TIP3    H157983   2.339   3.988   0.919 -1.0178  0.8784 -2.0164
12164TIP3    H257984   2.199   3.977   0.976 -0.6021  0.7740 -1.0094
12165TIP3   OH257985   6.172   1.531  14.038 -0.3620  0.6895 -0.2707
12165TIP3    H157986   6.190   1.571  14.123 -0.5458 -0.3779  0.2857
12165TIP3    H257987   6.092   1.481  14.052 -0.0833  0.0601 -0.9174
12166TIP3   OH257988   1.291   2.223  12.684 -0.6275 -0.3986  0.0606
12166TIP3    H157989   1.336   2.226  12.600 -1.1003 -1.3382 -0.2371
12166TIP3    H257990   1.253   2.310  12.694 -1.5801 -0.6344 -1.2840
12167TIP3   OH257991   3.357   3.180  13.844 -0.2076 -0.2220 -0.1217
12167TIP3    H157992   3.386   3.123  13.772 -1.7358 -0.6587 -0.4025
12167TIP3    H257993   3.425   3.247  13.850  0.0368 -0.2878 -1.8562
12168TIP3   OH257994   3.954   0.801  12.914  0.2350 -0.0298 -0.5513
12168TIP3    H157995   3.958   0.896  12.907 -0.0007  0.1123  1.1112
12168TIP3    H257996   3.973   0.769  12.826  1.5990  1.5176 -0.8184
12169TIP3   OH257997   2.091   0.028   2.407  0.4182 -0.4692  0.0213
12169TIP3    H157998   2.003   0.061   2.391  0.2450  0.1185  1.9630
12169TIP3    H257999   2.149   0.092   2.367 -0.0199 -0.2028 -0.1844
12170TIP3   OH258000   2.877   1.361   1.789  0.2323  0.0899  0.0351
12170TIP3    H158001   2.897   1.406   1.871  0.6534  1.5619 -0.8568
12170TIP3    H258002   2.794   1.399   1.761  0.5633  0.2641 -0.7012
12171TIP3   OH258003   0.125   0.131   5.879 -0.5355 -0.0829  0.1786
12171TIP3    H158004   0.186   0.191   5.921  0.2332 -0.2475 -0.6964
12171TIP3    H258005   0.094   0.075   5.951 -1.1563  1.2532  0.9701
12172TIP3   OH258006   0.443   2.794   2.223  0.3571 -0.0411  0.2275
12172TIP3    H158007   0.487   2.832   2.147 -2.8109  0.1545 -1.6048
12172TIP3    H258008   0.430   2.867   2.282  0.0503  0.4695 -0.4581
12173TIP3   OH258009   4.251   6.169   5.328 -0.4543  0.2715 -0.0982
12173TIP3    H158010   4.212   6.235   5.385 -0.9363  0.2817 -0.4446
12173TIP3    H258011   4.222   6.085   5.364  1.8969  0.1569  1.6386
12174TIP3   OH258012   5.195   2.225  16.552 -0.0229 -0.2079  0.4041
12174TIP3    H158013   5.153   2.250  16.469  1.8409 -2.3705 -1.2465
12174TIP3    H258014   5.141   2.154  16.586  0.2385 -0.5368  0.1316
12175TIP3   OH258015   2.802   6.530  14.501 -0.4572 -0.4934 -0.0740
12175TIP3    H158016   2.827   6.542  14.410  1.9074 -2.7580  0.2177
12175TIP3    H258017   2.885   6.515  14.547 -1.7597 -0.9960  2.1776
12176TIP3   OH258018   0.206   1.528  16.000  0.6823 -0.4151 -0.3760
12176TIP3    H158019   0.232   1.437  16.018 -0.8085 -0.8572 -0.3691
12176TIP3    H258020   0.141   1.548  16.068 -1.0524 -0.3022 -2.0079
12177TIP3   OH258021   0.284   6.775   4.042 -0.2836 -0.3754  0.0010
12177TIP3    H158022   0.278   6.729   3.959  0.5970  0.9990 -0.8457
12177TIP3    H258023   0.193   6.795   4.064 -0.5586 -1.2042 -0.3632
12178TIP3   OH258024   5.130   0.862   2.369  0.0458  0.1876  0.2493
12178TIP3    H158025   5.115   0.825   2.456 -2.8559  0.1324 -0.2217
12178TIP3    H258026   5.208   0.816   2.336 -0.5000 -1.8259  1.6939
12179TIP3   OH258027   2.706   5.742  13.887  0.2781 -0.0623  0.2370
12179TIP3    H158028   2.627   5.698  13.917  0.6900 -0.2857  0.9936
12179TIP3    H258029   2.723   5.809  13.954  2.1002 -1.6110  1.3534
12180TIP3   OH258030   3.496   3.813  10.817 -0.7880 -0.5420 -0.2042
12180TIP3    H158031   3.405   3.819  10.787 -1.0161 -0.5133  0.4942
12180TIP3    H258032   3.502   3.726  10.857 -0.8745 -0.0192  0.9551
12181TIP3   OH258033   3.882   1.089   4.532 -0.2772  0.2491  0.7342
12181TIP3    H158034   3.935   1.017   4.497 -1.1230 -0.3581  0.7061
12181TIP3    H258035   3.907   1.165   4.479 -0.5789 -0.3721 -0.3061
12182TIP3   OH258036   0.043   0.718   1.388  0.4330  0.6036  0.4346
12182TIP3    H158037   0.036   0.661   1.312  0.3365 -0.2112  1.0508
12182TIP3    H258038   0.068   0.803   1.352  0.3154  0.2418 -0.5107
12183TIP3   OH258039   1.703   0.516  16.789  0.1131 -0.4406  0.0614
12183TIP3    H158040   1.690   0.566  16.869 -1.4959 -2.9281  1.4041
12183TIP3    H258041   1.617   0.513  16.747  0.8392  0.4466 -1.5440
12184TIP3   OH258042   6.174   4.539   2.159 -0.2322  0.5292  0.7604
12184TIP3    H158043   6.098   4.577   2.117  0.0689  0.2874 -0.0124
12184TIP3    H258044   6.176   4.578   2.246  0.2450  2.5106 -0.1050
12185TIP3   OH258045   1.953   5.500  12.461 -0.0012  0.6337  0.0650
12185TIP3    H158046   1.926   5.467  12.375  0.0521  0.6512  0.0415
12185TIP3    H258047   1.962   5.594  12.449  2.3976  0.3598 -0.5686
12186TIP3   OH258048   6.585   4.030  14.682  0.4878 -0.0169 -0.1536
12186TIP3    H158049   6.662   3.989  14.644  0.8461 -0.2859  0.8446
12186TIP3    H258050   6.595   4.018  14.776 -0.9682 -0.4127 -0.0268
12187TIP3   OH258051   3.510   3.146  14.969  0.2074 -0.0178  0.2923
12187TIP3    H158052   3.438   3.085  14.952  1.7857 -1.5710 -0.9779
12187TIP3    H258053   3.517   3.150  15.064 -0.9312 -0.5788  0.4031
12188TIP3   OH258054   3.541   2.021   1.557  0.4189 -0.2040 -0.6616
12188TIP3    H158055   3.630   2.037   1.589  0.5249  0.2115 -1.1512
12188TIP3    H258056   3.524   1.929   1.579  0.6751 -0.0649  0.1253
12189TIP3   OH258057   3.776   3.560   3.319  0.0359 -0.1394  0.3049
12189TIP3    H158058   3.687   3.528   3.306 -0.5293  1.6616 -0.5342
12189TIP3    H258059   3.814   3.503   3.385 -2.0404 -0.3732  1.3118
12190TIP3   OH258060   5.615   3.854   5.079 -0.2438  0.8981 -0.0313
12190TIP3    H158061   5.594   3.895   4.996 -0.0033  1.3406  0.1271
12190TIP3    H258062   5.644   3.765   5.055 -1.1483  0.6834 -0.3341
12191TIP3   OH258063   3.951   3.826   5.339  0.2808 -0.7654  0.5071
12191TIP3    H158064   3.902   3.791   5.414  0.8101  0.4799  1.4349
12191TIP3    H258065   4.035   3.781   5.342 -0.2391 -1.8167 -0.2280
12192TIP3   OH258066   2.308   0.385   1.717  1.2064 -0.7728  0.3032
12192TIP3    H158067   2.388   0.429   1.688 -0.2271  1.5645 -0.2966
12192TIP3    H258068   2.279   0.335   1.641  0.4256  0.9367 -0.5643
12193TIP3   OH258069   2.617   0.139   2.320 -0.0682  0.3654 -0.5054
12193TIP3    H158070   2.646   0.189   2.244  1.8456  1.6806  1.0319
12193TIP3    H258071   2.584   0.205   2.381 -1.2177 -0.6332 -0.0238
12194TIP3   OH258072   4.990   0.345   1.839  0.0054 -0.0794 -0.4847
12194TIP3    H158073   4.972   0.428   1.883 -0.1839 -0.3826  0.0154
12194TIP3    H258074   5.065   0.363   1.783 -0.0957  0.4566 -0.4491
12195TIP3   OH258075   1.110   4.980  13.333  0.2964 -0.4887 -0.3327
12195TIP3    H158076   1.041   4.920  13.304  0.7817 -0.6614 -1.1396
12195TIP3    H258077   1.137   4.945  13.418 -1.3881  0.2355  0.5266
12196TIP3   OH258078   3.818   0.486   2.165 -0.0168 -0.0400 -0.1149
12196TIP3    H158079   3.781   0.403   2.134 -0.0223 -0.2702  0.5002
12196TIP3    H258080   3.894   0.460   2.218 -0.4025  0.3176  0.6172
12197TIP3   OH258081   1.504   5.961  11.676  0.0225 -0.5849  0.1612
12197TIP3    H158082   1.434   5.905  11.712 -1.3622  1.9824  1.5835
12197TIP3    H258083   1.483   5.967  11.583 -0.1416 -1.9742  0.0961
12198TIP3   OH258084   2.884   2.164  16.457  0.2540 -0.3249 -0.1606
12198TIP3    H158085   2.810   2.121  16.500  0.4769 -1.1702 -0.6099
12198TIP3    H258086   2.861   2.162  16.364  0.1161  0.8309 -0.1521
12199TIP3   OH258087   1.394   6.346  14.776  0.0761 -0.0248 -0.3188
12199TIP3    H158088   1.343   6.425  14.759 -1.1929 -0.8287 -0.3963
12199TIP3    H258089   1.396   6.340  14.872  0.0518  0.0437 -0.3134
12200TIP3   OH258090   3.962   1.513  17.215 -0.7940 -0.1542  0.5224
12200TIP3    H158091   3.880   1.510  17.264 -0.3942 -0.8660  1.1596
12200TIP3    H258092   3.996   1.601  17.231 -0.3141 -0.6223  2.1143
12201TIP3   OH258093   1.867   5.425   1.395 -0.1532  0.4964  0.1579
12201TIP3    H158094   1.774   5.424   1.417 -0.1169  0.0665  0.3010
12201TIP3    H258095   1.895   5.335   1.407  0.8671  1.0866  2.7405
12202TIP3   OH258096   3.300   2.512   6.083  0.1648  0.4104  0.1136
12202TIP3    H158097   3.256   2.527   5.999 -1.4484 -0.7597  0.7276
12202TIP3    H258098   3.256   2.570   6.144 -0.6955 -0.9189  0.7788
12203TIP3   OH258099   4.272   0.505  12.931  0.0162 -0.1544 -0.0865
12203TIP3    H158100   4.252   0.502  13.024 -1.7847 -0.9396 -0.4681
12203TIP3    H258101   4.367   0.515  12.927  0.0350  0.7140  1.8215
12204TIP3   OH258102   4.460   4.853   2.119  0.4642  0.7215  0.3953
12204TIP3    H158103   4.479   4.882   2.208 -0.3109  0.2546  0.7230
12204TIP3    H258104   4.382   4.798   2.128  2.0274 -1.6278 -0.1768
12205TIP3   OH258105   5.436   1.733  15.756 -0.1459  0.5853  0.2813
12205TIP3    H158106   5.375   1.674  15.800 -0.5419  1.4420  0.8840
12205TIP3    H258107   5.512   1.737  15.814  0.1764  0.1223 -0.1014
12206TIP3   OH258108   4.520   6.531  12.851 -0.0561 -0.0172  0.3556
12206TIP3    H158109   4.525   6.512  12.758 -0.3699 -0.5600  0.4445
12206TIP3    H258110   4.522   6.627  12.857  1.3560 -0.0128 -0.1124
12207TIP3   OH258111   4.196   1.390  14.021 -0.6189  0.5629 -0.0896
12207TIP3    H158112   4.160   1.404  13.934  1.5405  0.7707 -0.9701
12207TIP3    H258113   4.200   1.294  14.030  2.2872  0.5076 -1.5798
12208TIP3   OH258114   5.203   1.245   2.904  0.1615  0.1236 -0.7288
12208TIP3    H158115   5.143   1.198   2.846 -2.4539  1.4691  0.8251
12208TIP3    H258116   5.180   1.337   2.892  1.5574  0.6238  0.3221
12209TIP3   OH258117   3.648   4.338   1.563  0.1002  0.3835  0.3984
12209TIP3    H158118   3.646   4.424   1.520  1.9543  0.1216 -0.2227
12209TIP3    H258119   3.567   4.296   1.534  0.0963  1.1912 -0.8201
12210TIP3   OH258120   2.013   5.996  12.103 -0.6051 -0.0133 -0.2400
12210TIP3    H158121   2.088   5.968  12.156 -2.1121  0.2644  2.1120
12210TIP3    H258122   2.051   6.050  12.035  1.3863 -0.1520  0.7190
12211TIP3   OH258123   0.557   2.988   0.863 -0.2728  0.7526  0.1080
12211TIP3    H158124   0.629   3.047   0.887 -0.4166  1.0770 -0.2508
12211TIP3    H258125   0.601   2.911   0.827 -0.1074  1.0278 -0.2849
12212TIP3   OH258126   6.281   3.605   0.941 -0.1064 -0.5168  0.7304
12212TIP3    H158127   6.312   3.568   1.024 -0.6239 -0.2248  1.0533
12212TIP3    H258128   6.190   3.627   0.958 -1.0028 -2.9398 -0.7223
12213TIP3   OH258129   6.253   1.265  12.702  0.2271  0.5665  0.0781
12213TIP3    H158130   6.310   1.222  12.638  0.0976 -0.4295  0.6217
12213TIP3    H258131   6.169   1.220  12.694  0.0980  0.7017  0.6874
12214TIP3   OH258132   2.103   1.920   4.540  0.4899  0.1196  0.3406
12214TIP3    H158133   2.177   1.947   4.594  0.1515 -0.5916  1.1696
12214TIP3    H258134   2.039   1.991   4.550  0.4272 -0.0123  0.8767
12215TIP3   OH258135   3.664   4.273   3.886 -0.2664  0.1146 -0.0690
12215TIP3    H158136   3.696   4.341   3.828 -1.6411  0.8152 -0.0350
12215TIP3    H258137   3.669   4.311   3.974 -1.6887  0.4527 -0.1173
12216TIP3   OH258138   4.843   5.943  14.971  0.2560 -0.1990 -0.8615
12216TIP3    H158139   4.898   5.889  15.027 -1.3309 -1.2192 -0.2282
12216TIP3    H258140   4.904   5.998  14.922  1.7575 -0.6089  0.5140
12217TIP3   OH258141   3.467   0.809   1.906 -0.8443 -1.0232  0.1113
12217TIP3    H158142   3.430   0.763   1.981 -0.9739  1.4430  1.6168
12217TIP3    H258143   3.560   0.821   1.928 -1.4638  2.1846  1.2245
12218TIP3   OH258144   0.071   0.504  15.746  0.5232 -0.6610  0.0561
12218TIP3    H158145   0.101   0.477  15.832  1.1459 -0.5348 -0.1213
12218TIP3    H258146  -0.006   0.449  15.729  0.5934 -0.9144  0.5437
12219TIP3   OH258147   5.374   6.566   1.303 -0.2903 -0.0642  0.2053
12219TIP3    H158148   5.379   6.470   1.300  0.7082 -0.0040 -0.5197
12219TIP3    H258149   5.381   6.588   1.396  2.3085 -0.5930  0.1897
12220TIP3   OH258150   1.258   2.608   4.879  0.2493 -0.1233  0.8179
12220TIP3    H158151   1.234   2.618   4.971  0.9329  0.5112  0.9399
12220TIP3    H258152   1.262   2.514   4.865  0.5297 -0.2278  1.5475
12221TIP3   OH258153   2.245   4.039   1.505  0.9302  0.9869  0.5333
12221TIP3    H158154   2.189   4.057   1.581  2.1579  2.0163  1.2343
12221TIP3    H258155   2.197   3.975   1.454  0.1167  0.2028  2.2419
12222TIP3   OH258156   6.153   2.807  16.743  0.3221  0.1855 -0.1017
12222TIP3    H158157   6.080   2.854  16.783  0.2189 -0.0151 -0.0487
12222TIP3    H258158   6.126   2.794  16.652  0.0024 -0.4534  0.0750
12223TIP3   OH258159   3.959   3.268  16.067 -0.4003  0.1965  0.3215
12223TIP3    H158160   3.935   3.238  16.155  2.4090 -3.1180  0.0124
12223TIP3    H258161   4.009   3.348  16.082 -1.5402  0.6958  1.5943
12224TIP3   OH258162   0.083   0.907  11.775 -0.4632 -0.5054  0.3271
12224TIP3    H158163   0.126   0.860  11.847 -0.2864 -0.3400  0.3299
12224TIP3    H258164   0.083   0.998  11.802  0.4713 -0.3084 -0.3090
12225TIP3   OH258165   3.165   4.571   5.769 -0.1288  0.2030 -0.1685
12225TIP3    H158166   3.087   4.616   5.800  0.5463 -0.0689  2.0119
12225TIP3    H258167   3.238   4.622   5.805  0.6736 -0.5830 -0.6573
12226TIP3   OH258168   4.415   3.979   1.211 -0.2736 -0.4284  0.1633
12226TIP3    H158169   4.376   3.923   1.278 -1.1038  0.4888  0.4728
12226TIP3    H258170   4.353   4.051   1.203  0.7201  0.3760 -0.3153
12227TIP3   OH258171   0.382   4.461  13.449 -0.6780 -0.3211  0.7072
12227TIP3    H158172   0.435   4.412  13.512 -1.8923 -2.0794  0.4060
12227TIP3    H258173   0.298   4.416  13.449 -0.9956  0.2254 -1.4909
12228TIP3   OH258174   1.516   0.198  14.253  0.3186  0.1822  1.0737
12228TIP3    H158175   1.475   0.265  14.307  2.7864  0.4937  2.6262
12228TIP3    H258176   1.608   0.223  14.249  1.1761 -2.7484  1.1435
12229TIP3   OH258177   4.256   1.126  16.299  0.1012 -0.6011  0.5716
12229TIP3    H158178   4.241   1.043  16.255 -1.5517 -0.0652  0.1157
12229TIP3    H258179   4.212   1.192  16.245  0.6342  0.4633  1.3936
12230TIP3   OH258180   0.160   1.168   0.164  0.1961  0.6574 -0.7233
12230TIP3    H158181   0.108   1.144   0.088  0.9921 -0.5235 -0.8999
12230TIP3    H258182   0.201   1.251   0.140  1.1225 -0.1397 -1.9137
12231TIP3   OH258183   5.130   0.910  15.242 -0.1082  0.4781  0.3234
12231TIP3    H158184   5.118   0.963  15.163  0.0142  2.0315  1.3229
12231TIP3    H258185   5.220   0.928  15.270 -0.0564 -0.2882  0.6638
12232TIP3   OH258186   1.572   2.448   0.823  0.1367 -0.4221  0.0277
12232TIP3    H158187   1.530   2.490   0.898 -0.1085 -1.1974  0.3235
12232TIP3    H258188   1.666   2.458   0.840  0.1017 -2.5048  1.5184
12233TIP3   OH258189   2.133   2.103   3.830  0.3982 -0.7008 -0.0188
12233TIP3    H158190   2.178   2.182   3.801 -1.5246  0.6713  0.6021
12233TIP3    H258191   2.126   2.111   3.925  0.8346 -1.9784  0.1376
12234TIP3   OH258192   1.059   3.699   4.652  0.0593 -0.6907 -0.0227
12234TIP3    H158193   1.033   3.756   4.580  0.9629  1.2910  1.1719
12234TIP3    H258194   1.100   3.623   4.610  2.0901  1.1978 -1.5724
12235TIP3   OH258195   5.677   3.017  12.229  0.5908  0.0295  0.8194
12235TIP3    H158196   5.641   2.995  12.143  1.0687  3.1605 -0.2620
12235TIP3    H258197   5.607   2.998  12.291  0.0989 -1.8620 -0.3048
12236TIP3   OH258198   3.561   1.654  14.427  1.0422  0.4284 -0.0498
12236TIP3    H158199   3.483   1.710  14.430  0.8062  0.1932 -1.6325
12236TIP3    H258200   3.631   1.713  14.399  1.5907  0.7862  1.9752
12237TIP3   OH258201   5.093   3.483   0.664  0.1955  0.2800  0.1732
12237TIP3    H158202   5.030   3.522   0.726 -0.4848 -0.4952 -0.0249
12237TIP3    H258203   5.051   3.491   0.579  0.3946 -0.2042  0.0328
12238TIP3   OH258204   1.323   3.678  13.480  0.4032  0.3631  0.0245
12238TIP3    H158205   1.283   3.667  13.567  0.0197 -1.7542 -0.4156
12238TIP3    H258206   1.262   3.736  13.434 -1.0373 -1.0522  0.1057
12239TIP3   OH258207   3.227   5.971   4.141  0.5085 -0.2105 -0.3097
12239TIP3    H158208   3.319   5.949   4.154 -0.0257 -1.8793  0.6331
12239TIP3    H258209   3.204   5.932   4.057  0.7120  0.4243 -0.6680
12240TIP3   OH258210   4.607   4.620   0.820  0.3687  0.3151  0.2237
12240TIP3    H158211   4.632   4.589   0.906  0.4686 -2.2470 -0.6988
12240TIP3    H258212   4.519   4.655   0.832  0.5548  0.3905  1.4412
12241TIP3   OH258213   1.163   1.077   1.515 -0.4309 -0.3759  0.0901
12241TIP3    H158214   1.214   1.032   1.448 -0.6141 -1.3776  0.6171
12241TIP3    H258215   1.200   1.047   1.598 -1.9724 -1.2796  0.4905
12242TIP3   OH258216   6.773   1.649   2.482 -0.3231 -0.1218 -0.4560
12242TIP3    H158217   6.717   1.710   2.530  0.3285  1.8765 -2.1132
12242TIP3    H258218   6.713   1.580   2.452 -1.1427 -0.1425  1.1633
12243TIP3   OH258219   1.803   0.204  15.178  0.0345 -0.0597  0.2353
12243TIP3    H158220   1.745   0.268  15.138 -1.1086 -0.2875  1.5135
12243TIP3    H258221   1.788   0.212  15.272  2.8463  0.6356  0.6904
12244TIP3   OH258222   4.844   3.990   5.991  0.0413 -0.5842 -0.0712
12244TIP3    H158223   4.776   3.981   5.924 -1.5947 -0.9953  1.6308
12244TIP3    H258224   4.797   4.019   6.069  1.6320 -2.1708  1.4864
12245TIP3   OH258225   5.776   3.635   2.682  0.1223 -0.5632 -0.0772
12245TIP3    H158226   5.837   3.687   2.630 -1.1699  1.8704  0.7123
12245TIP3    H258227   5.692   3.680   2.672 -0.8947 -2.0936  1.2592
12246TIP3   OH258228   1.577   5.159  13.863  0.0910 -0.4759 -0.2102
12246TIP3    H158229   1.513   5.143  13.793 -0.7859 -1.0433  0.7016
12246TIP3    H258230   1.662   5.159  13.819 -0.3993 -1.4732 -1.1724
12247TIP3   OH258231   5.591   0.479  14.469 -0.3039  0.3098 -0.0731
12247TIP3    H158232   5.536   0.423  14.413  0.3975  0.3692 -0.8366
12247TIP3    H258233   5.596   0.562  14.422  0.6864  0.2070 -0.1572
12248TIP3   OH258234   3.925   4.021  16.372 -1.0150  0.2306  0.0747
12248TIP3    H158235   4.019   4.037  16.382 -1.0374 -1.2070  3.6104
12248TIP3    H258236   3.918   3.960  16.298  0.8908 -0.0094  0.0717
12249TIP3   OH258237   3.893   4.219   2.387 -0.4628  0.0174 -0.5028
12249TIP3    H158238   3.915   4.142   2.334 -0.5181 -0.0159 -0.4769
12249TIP3    H258239   3.948   4.288   2.352  1.6731 -0.7045  1.3040
12250TIP3   OH258240   6.573   2.285  16.795  0.1009  0.0074 -0.0494
12250TIP3    H158241   6.539   2.375  16.791 -0.1558 -0.0261  1.2529
12250TIP3    H258242   6.657   2.290  16.749  0.3023  1.0230  0.4098
12251TIP3   OH258243   2.545   4.392   1.495 -0.5106  0.2179  0.3058
12251TIP3    H158244   2.530   4.298   1.482  2.8462 -0.5122  1.1167
12251TIP3    H258245   2.584   4.422   1.413 -0.0034  0.4925  0.6395
12252TIP3   OH258246   2.643   5.304   0.614 -0.3287  0.6942 -0.4775
12252TIP3    H158247   2.615   5.258   0.692  0.9817 -0.3153 -0.5836
12252TIP3    H258248   2.738   5.310   0.622 -0.1817  0.6536 -1.9494
12253TIP3   OH258249   3.643   3.427   1.753  0.2174 -0.6496  0.2092
12253TIP3    H158250   3.565   3.455   1.705  0.6358  0.0736 -0.0697
12253TIP3    H258251   3.711   3.422   1.686  0.6777 -0.1662  0.6357
12254TIP3   OH258252   2.787   2.016   5.879 -0.6182  0.3274  0.3998
12254TIP3    H158253   2.702   2.039   5.843 -0.3703 -0.7479 -0.9237
12254TIP3    H258254   2.848   2.025   5.806  0.0000 -1.2784  0.6830
12255TIP3   OH258255   0.134   1.597  16.660 -0.3237  0.0770 -0.2494
12255TIP3    H158256   0.214   1.635  16.696 -1.1330  0.9330  0.7098
12255TIP3    H258257   0.140   1.613  16.566 -0.0564  1.5279 -0.0103
12256TIP3   OH258258   1.478   5.144  14.689  0.9274 -0.3280 -0.2269
12256TIP3    H158259   1.439   5.057  14.682  2.1268 -1.0265  1.5166
12256TIP3    H258260   1.449   5.190  14.610 -1.4481 -1.6060 -0.1390
12257TIP3   OH258261   4.479   2.163  14.542  0.2498  0.1626 -0.0336
12257TIP3    H158262   4.532   2.136  14.467  1.0832 -1.0323  0.9506
12257TIP3    H258263   4.391   2.176  14.506  1.3514  3.0112 -1.8575
12258TIP3   OH258264   4.221   6.224   4.263  0.1442  0.0819  0.3931
12258TIP3    H158265   4.164   6.299   4.279 -1.2296 -0.2972 -2.4557
12258TIP3    H258266   4.224   6.178   4.347 -0.5915  2.2264  1.6303
12259TIP3   OH258267   1.940   1.584  13.121 -0.7580  0.1421  0.5683
12259TIP3    H158268   1.920   1.655  13.182  1.3627  2.1504 -1.0051
12259TIP3    H258269   1.897   1.608  13.040 -1.1300 -1.0510  0.4015
12260TIP3   OH258270   2.266   2.001  11.019  0.0096 -0.6388 -0.0481
12260TIP3    H158271   2.295   2.023  10.930  2.4810 -1.3429  0.5364
12260TIP3    H258272   2.337   2.032  11.075 -1.0256 -1.1916  1.5975
12261TIP3   OH258273   3.367   0.376   3.048 -0.0359  0.2654 -0.0482
12261TIP3    H158274   3.352   0.469   3.036 -1.3062  0.1586  0.5463
12261TIP3    H258275   3.319   0.354   3.128 -1.0502 -1.1949 -1.0256
12262TIP3   OH258276   4.153   3.838  11.255 -0.0684 -0.5020 -0.0530
12262TIP3    H158277   4.242   3.842  11.290 -0.1824 -1.5204  0.3621
12262TIP3    H258278   4.145   3.917  11.201  1.1354 -0.4766 -0.2117
12263TIP3   OH258279   5.521   2.279   2.162  0.6511 -0.3787 -0.0292
12263TIP3    H158280   5.485   2.252   2.246  1.6383  2.1907  1.2799
12263TIP3    H258281   5.605   2.234   2.156  0.7943 -0.1987  0.5838
12264TIP3   OH258282   3.339   4.294   5.190  0.2108 -0.3050  0.2791
12264TIP3    H158283   3.296   4.379   5.205  0.7338 -0.1991  1.2327
12264TIP3    H258284   3.408   4.313   5.126  0.5735  0.0674  0.7793
12265TIP3   OH258285   3.796   3.720  16.578 -0.1864 -0.1505  0.3590
12265TIP3    H158286   3.786   3.807  16.538  0.3398 -0.3719 -0.2529
12265TIP3    H258287   3.886   3.719  16.611 -0.6536  0.0754  1.6585
12266TIP3   OH258288   2.499   3.251   0.803  0.3249 -0.1951 -0.6518
12266TIP3    H158289   2.409   3.269   0.827  0.7003  1.1978 -0.2148
12266TIP3    H258290   2.551   3.298   0.868  1.4016 -2.8377  0.4895
12267TIP3   OH258291   3.881   0.046   2.228  0.2400  0.1021  0.0452
12267TIP3    H158292   3.841   0.008   2.306 -0.1571 -1.6319 -0.9687
12267TIP3    H258293   3.975   0.037   2.242  0.1510 -1.6697 -0.3485
12268TIP3   OH258294   0.618   2.312   5.196  0.0176 -0.3913 -0.1392
12268TIP3    H158295   0.589   2.363   5.121  0.2954  0.7644  0.5325
12268TIP3    H258296   0.612   2.372   5.271  0.8017 -1.1857  0.5845
12269TIP3   OH258297   6.814   3.411   3.439  0.3300 -0.3717 -0.1777
12269TIP3    H158298   6.833   3.395   3.532  0.0467 -1.8597 -0.3600
12269TIP3    H258299   6.869   3.349   3.392  1.0782  0.9400 -1.0528
12270TIP3   OH258300   0.067   3.848   0.603 -0.0312  0.4713 -0.0295
12270TIP3    H158301   0.109   3.864   0.519  0.7350 -2.2606 -0.2185
12270TIP3    H258302  -0.022   3.821   0.580 -0.9598  3.1237  0.2386
12271TIP3   OH258303   0.128   3.216   3.319 -0.2760 -0.0189  0.2789
12271TIP3    H158304   0.137   3.161   3.241 -1.2641 -0.2091  0.2950
12271TIP3    H258305   0.201   3.190   3.375  0.8959  0.6763 -0.9160
12272TIP3   OH258306   5.290   2.892   0.923 -0.2350  0.3094  0.1748
12272TIP3    H158307   5.242   2.952   0.980 -1.9495  0.0046 -0.9006
12272TIP3    H258308   5.329   2.949   0.856 -1.2318  0.3162 -0.4115
12273TIP3   OH258309   4.355   3.918  17.199 -0.0912 -0.0707  0.0038
12273TIP3    H158310   4.260   3.917  17.200 -0.1385  0.7637 -1.4979
12273TIP3    H258311   4.379   3.846  17.140  0.1951  0.0989 -0.0885
12274TIP3   OH258312   6.569   5.077   5.712 -0.1841 -0.6634  0.0403
12274TIP3    H158313   6.486   5.110   5.678  0.9239  0.6387 -1.5387
12274TIP3    H258314   6.599   5.145   5.772  0.2559 -0.5959 -0.2504
12275TIP3   OH258315   3.224   5.591  15.822  0.1694 -0.2013 -0.4520
12275TIP3    H158316   3.228   5.510  15.872  0.3280  0.6966  1.0224
12275TIP3    H258317   3.309   5.598  15.780  1.4374  0.9246  2.1981
12276TIP3   OH258318   6.218   1.296  17.078  0.1255 -0.1262 -0.5363
12276TIP3    H158319   6.165   1.353  17.133 -0.5520 -0.5504 -0.7367
12276TIP3    H258320   6.246   1.351  17.005 -2.0933 -0.5125 -1.7240
12277TIP3   OH258321   2.986   6.077   2.774 -0.5220  0.8463 -0.0047
12277TIP3    H158322   2.905   6.026   2.769 -0.8345  1.3919 -0.6810
12277TIP3    H258323   2.961   6.164   2.744  0.4921  0.7949 -1.0364
12278TIP3   OH258324   2.611   0.351   4.849  0.5180 -0.5810  0.0344
12278TIP3    H158325   2.618   0.260   4.877  1.4431 -0.6593 -0.4390
12278TIP3    H258326   2.683   0.395   4.894 -0.9786  0.2798  1.6618
12279TIP3   OH258327   5.675   2.235  16.580 -0.0316  0.6524 -0.6200
12279TIP3    H158328   5.591   2.193  16.561 -0.0014  0.7560 -1.0008
12279TIP3    H258329   5.718   2.241  16.495  0.1721  1.0056 -0.4926
12280TIP3   OH258330   0.167   1.387   5.695 -0.1856  0.4626 -0.0556
12280TIP3    H158331   0.082   1.399   5.737 -0.0424  2.0320 -0.1565
12280TIP3    H258332   0.152   1.320   5.628 -1.4060  0.8985 -0.2262
12281TIP3   OH258333   4.045   5.773   1.264 -0.1844 -0.5079 -0.0645
12281TIP3    H158334   4.076   5.703   1.322 -1.9587 -1.7770 -0.5749
12281TIP3    H258335   4.091   5.757   1.182  0.4601 -0.2362  0.2460
12282TIP3   OH258336   4.223   5.983  11.063  0.2986 -0.1444  0.3373
12282TIP3    H158337   4.245   6.026  11.146 -1.0912  1.1184  0.0898
12282TIP3    H258338   4.305   5.944  11.034  1.6677  2.4049  0.5597
12283TIP3   OH258339   1.797   4.955  16.371 -0.3925 -0.3565  0.3104
12283TIP3    H158340   1.855   4.880  16.386  0.1528  0.3816  2.0034
12283TIP3    H258341   1.777   4.951  16.277 -0.2873 -2.5429  0.3515
12284TIP3   OH258342   5.555   0.104  11.798  0.0131 -0.3758  0.2139
12284TIP3    H158343   5.504   0.131  11.874 -0.0166  0.5446 -0.1199
12284TIP3    H258344   5.549   0.008  11.796  2.2192 -0.6393  2.9016
12285TIP3   OH258345   5.088   0.337   2.581 -0.0745  0.0044  0.1979
12285TIP3    H158346   5.017   0.393   2.614 -0.2694  0.2556 -0.6308
12285TIP3    H258347   5.052   0.298   2.501  1.7331  2.3853 -1.8563
12286TIP3   OH258348   5.990   5.736  16.355  0.0096  0.2281  0.0070
12286TIP3    H158349   6.044   5.805  16.394  1.2686 -1.1213  0.7022
12286TIP3    H258350   5.941   5.700  16.429  0.1766 -0.3474 -0.1651
12287TIP3   OH258351   4.179   4.918   6.312  0.7628 -0.2652 -0.6233
12287TIP3    H158352   4.143   4.844   6.361 -0.2442  0.2650 -0.5627
12287TIP3    H258353   4.148   4.995   6.359 -0.0067  0.2472 -1.9741
12288TIP3   OH258354   1.299   4.553  11.843  0.4277 -0.0144  0.5301
12288TIP3    H158355   1.255   4.559  11.758  1.4748  0.6083  0.0112
12288TIP3    H258356   1.229   4.544  11.907 -0.5543  2.7931 -0.0957
12289TIP3   OH258357   2.626   0.148  13.193  0.2789  0.2223  0.7801
12289TIP3    H158358   2.598   0.080  13.132  0.4418 -0.6254  1.6314
12289TIP3    H258359   2.547   0.197  13.211 -0.0091 -0.2253  0.7540
12290TIP3   OH258360   3.613   3.237  11.194 -0.9491 -0.5271  0.3250
12290TIP3    H158361   3.648   3.241  11.284 -0.4187 -0.9849  0.1424
12290TIP3    H258362   3.557   3.314  11.187  0.6542  0.6825  0.3754
12291TIP3   OH258363   4.818   1.401   2.026  0.4796 -0.0381  0.5663
12291TIP3    H158364   4.857   1.314   2.037  0.6488  0.0797  0.9216
12291TIP3    H258365   4.871   1.442   1.958  0.7131 -0.0338  0.7485
12292TIP3   OH258366   1.507   1.208   4.163 -0.4934  0.7113  0.2723
12292TIP3    H158367   1.441   1.139   4.167  2.1466 -1.8365  1.8010
12292TIP3    H258368   1.486   1.256   4.082 -2.7873 -1.4655 -0.5044
12293TIP3   OH258369   5.277   0.645   4.530 -0.0185  0.7717  0.1241
12293TIP3    H158370   5.193   0.659   4.575  0.6744  2.2603  0.9895
12293TIP3    H258371   5.296   0.730   4.490  1.7322  0.8132  1.0337
12294TIP3   OH258372   1.695   3.306  14.731 -0.6532  0.0940 -0.3788
12294TIP3    H158373   1.768   3.335  14.675 -0.6549  0.4961 -0.1751
12294TIP3    H258374   1.697   3.211  14.726  0.0749  0.0980 -0.1303
12295TIP3   OH258375   1.982   4.093  12.847  0.1957 -0.0681 -0.5364
12295TIP3    H158376   1.945   4.181  12.843 -1.0748 -0.4883  1.1511
12295TIP3    H258377   2.047   4.098  12.917 -1.7011 -1.0747  1.3596
12296TIP3   OH258378   0.047   5.509  14.440 -0.0660 -0.5351  0.5184
12296TIP3    H158379   0.094   5.526  14.521  0.7727 -2.0893  0.3710
12296TIP3    H258380  -0.032   5.462  14.468  0.7052 -1.9534  0.3690
12297TIP3   OH258381   2.323   0.615   4.156  0.0027 -0.9558  0.4005
12297TIP3    H158382   2.342   0.664   4.235 -0.3055 -0.0383 -0.0813
12297TIP3    H258383   2.408   0.590   4.122  0.2955  1.2254 -0.5624
12298TIP3   OH258384   6.692   0.870  15.247  0.2747  0.8961 -0.4534
12298TIP3    H158385   6.625   0.882  15.315 -0.1070  0.1292 -0.6775
12298TIP3    H258386   6.704   0.956  15.209 -0.9366  0.9554 -0.7266
12299TIP3   OH258387   5.044   4.856  16.408 -0.4823 -0.3583 -0.3233
12299TIP3    H158388   5.100   4.930  16.384  1.3900 -0.9399  2.0873
12299TIP3    H258389   4.981   4.892  16.470  0.5430 -0.8192  0.9899
12300TIP3   OH258390   4.047   6.572   6.387 -0.4117  0.1588  0.1278
12300TIP3    H158391   3.999   6.490   6.401  0.6006 -0.3215  0.8945
12300TIP3    H258392   4.132   6.543   6.354 -0.4968  0.9728 -0.7997
12301TIP3   OH258393   5.468   6.476   4.948 -0.1859  0.2472  0.0922
12301TIP3    H158394   5.479   6.444   4.859  1.5046  1.7238 -0.2737
12301TIP3    H258395   5.504   6.565   4.946 -0.6037  0.4943  2.1144
12302TIP3   OH258396   2.008   3.974   3.531  0.4361 -0.1123 -0.3376
12302TIP3    H158397   2.027   3.891   3.487  0.1366  0.0801 -0.8322
12302TIP3    H258398   1.914   3.972   3.548  0.4151  0.1597 -0.4218
12303TIP3   OH258399   5.254   5.176   3.665  0.3315  0.4809  0.3216
12303TIP3    H158400   5.202   5.208   3.739 -0.6456  1.2745 -0.6923
12303TIP3    H258401   5.202   5.198   3.588  1.0435 -0.9229 -0.5783
12304TIP3   OH258402   4.535   1.322   6.453  0.3427  0.0715  0.4737
12304TIP3    H158403   4.505   1.333   6.544 -0.1563 -0.8893  0.4295
12304TIP3    H258404   4.456   1.298   6.405  0.7621 -0.2358 -0.0602
12305TIP3   OH258405   0.291   5.928  12.928 -0.8729  0.3912  0.2501
12305TIP3    H158406   0.206   5.906  12.967 -0.9318  2.6390  1.4648
12305TIP3    H258407   0.334   5.982  12.993  1.1489  0.0228 -0.7450
12306TIP3   OH258408   1.993   6.583   2.341 -0.4882 -0.1024 -0.7714
12306TIP3    H158409   2.076   6.564   2.297 -0.5658  0.8859 -1.3634
12306TIP3    H258410   2.005   6.670   2.379 -0.6831 -0.6389  0.5457
12307TIP3   OH258411   6.755   2.738  12.541 -0.3044  0.2343  0.2226
12307TIP3    H158412   6.708   2.659  12.568 -1.7784  0.5757 -1.2899
12307TIP3    H258413   6.827   2.706  12.487 -1.1369 -0.0564 -0.7159
12308TIP3   OH258414   3.204   0.343   3.276  0.2575  0.3572 -0.4194
12308TIP3    H158415   3.166   0.256   3.285  2.8808 -1.0555 -2.2678
12308TIP3    H258416   3.159   0.381   3.201  1.3578 -0.6897 -1.6251
12309TIP3   OH258417   3.042   6.626   4.433  0.2568 -0.0402  0.1017
12309TIP3    H158418   3.107   6.696   4.427  0.2320 -0.0590 -0.4414
12309TIP3    H258419   3.092   6.546   4.420 -0.0890  0.0326 -1.8700
12310TIP3   OH258420   0.319   2.614  14.055  0.2305 -0.0481  0.0372
12310TIP3    H158421   0.285   2.616  14.145 -0.0338 -0.8088 -0.0451
12310TIP3    H258422   0.350   2.524  14.043  1.2950  0.3542 -0.2562
12311TIP3   OH258423   2.050   1.029   1.897  0.4329  0.3859 -0.0802
12311TIP3    H158424   2.072   1.115   1.932  0.3592  0.3761 -0.0101
12311TIP3    H258425   2.084   1.030   1.807 -0.4427  0.8457 -0.4127
12312TIP3   OH258426   6.674   5.039   1.295 -0.7135 -0.0324 -0.0366
12312TIP3    H158427   6.615   5.041   1.370 -0.5184 -0.2525  0.1231
12312TIP3    H258428   6.743   5.102   1.318 -1.3953  0.9521 -0.6463
12313TIP3   OH258429   5.641   0.819  15.836 -0.5075  0.6569  0.5385
12313TIP3    H158430   5.620   0.740  15.785 -1.3595  0.5989  0.9666
12313TIP3    H258431   5.570   0.825  15.900 -1.0436  2.4170 -0.2220
12314TIP3   OH258432   4.742   6.562  12.316  0.1944 -0.5685 -0.8074
12314TIP3    H158433   4.759   6.470  12.294  1.9651 -0.0103 -1.8283
12314TIP3    H258434   4.710   6.600  12.235 -0.6526 -0.2880 -0.3522
12315TIP3   OH258435   3.429   6.207  15.460  0.3234 -0.3404  0.4874
12315TIP3    H158436   3.388   6.140  15.515 -0.9352 -0.2937 -0.3535
12315TIP3    H258437   3.522   6.184  15.458 -0.0563 -1.9344  0.3851
12316TIP3   OH258438   3.669   5.558   4.517 -0.4255  0.1367  0.0878
12316TIP3    H158439   3.613   5.630   4.489 -1.3846 -1.2037 -1.5153
12316TIP3    H258440   3.682   5.573   4.611 -0.9549  2.1416 -0.1381
12317TIP3   OH258441   1.327   4.368  11.185 -0.4876 -0.2840 -0.5643
12317TIP3    H158442   1.405   4.393  11.135 -0.1995 -0.6439 -0.2979
12317TIP3    H258443   1.338   4.413  11.269  0.7275 -2.3698  0.4477
12318TIP3   OH258444   2.904   1.427  12.063 -0.2996 -0.3325 -0.0985
12318TIP3    H158445   2.986   1.469  12.037 -1.4165  2.2708  0.4526
12318TIP3    H258446   2.897   1.351  12.005  2.2536 -0.3149 -0.4729
12319TIP3   OH258447   3.381   5.710  15.525  0.6341  0.0885  0.1002
12319TIP3    H158448   3.287   5.730  15.524  0.8421  1.0686 -0.3742
12319TIP3    H258449   3.418   5.765  15.455  1.7679  0.7893  1.2302
12320TIP3   OH258450   0.175   2.301  15.753 -0.6993 -0.1097  0.0717
12320TIP3    H158451   0.225   2.350  15.688 -2.4541  0.6651 -0.7017
12320TIP3    H258452   0.123   2.367  15.799 -2.2320 -1.0828 -0.2216
12321TIP3   OH258453   1.334   1.574  12.550 -0.3103  0.5865  0.2965
12321TIP3    H158454   1.341   1.582  12.455 -0.6818 -1.7341  0.0506
12321TIP3    H258455   1.346   1.663  12.583  0.5474  1.2927 -1.8780
12322TIP3   OH258456   4.298   5.297   5.953  0.2409  0.8293  0.0326
12322TIP3    H158457   4.260   5.244   6.022  0.1628  1.2503  0.3156
12322TIP3    H258458   4.232   5.298   5.884  0.2184  0.6086  0.0498
12323TIP3   OH258459   3.678   2.368  16.807  0.1130  0.0002 -0.0396
12323TIP3    H158460   3.744   2.414  16.859 -0.3013  1.4540 -0.7713
12323TIP3    H258461   3.717   2.282  16.789  1.6754  0.7444 -0.2355
12324TIP3   OH258462   0.276   1.759  11.482 -0.4108  0.0159 -0.0179
12324TIP3    H158463   0.193   1.711  11.493 -0.1164 -0.1149  1.7695
12324TIP3    H258464   0.290   1.760  11.387 -2.3475 -0.1546 -0.3408
12325TIP3   OH258465   2.170   6.575  15.839 -0.2109  0.5690 -0.1284
12325TIP3    H158466   2.128   6.596  15.756 -1.4497 -0.6640  0.1517
12325TIP3    H258467   2.115   6.618  15.905  0.4409  1.0752  0.0882
12326TIP3   OH258468   4.975   1.278  13.355 -0.5283 -0.5198 -0.2025
12326TIP3    H158469   4.935   1.353  13.311  1.1081  0.0308 -0.7669
12326TIP3    H258470   4.988   1.213  13.286  2.2451  0.4296 -0.5964
12327TIP3   OH258471   6.119   2.149   3.090 -0.4902 -0.0360 -0.5547
12327TIP3    H158472   6.198   2.102   3.117  0.0519  0.7797 -0.7010
12327TIP3    H258473   6.148   2.205   3.018 -0.8348  1.5475  0.5217
12328TIP3   OH258474   3.477   4.877  16.770 -0.0133 -0.3894 -0.1941
12328TIP3    H158475   3.486   4.953  16.711 -0.5392 -0.3571 -0.2280
12328TIP3    H258476   3.438   4.809  16.716 -2.4496  0.2861  0.6587
12329TIP3   OH258477   4.978   1.739  16.327 -0.2599  0.1777  0.1081
12329TIP3    H158478   5.020   1.777  16.403 -0.5614  1.1119 -0.1917
12329TIP3    H258479   5.018   1.652  16.318  0.9099  0.6890  0.3769
12330TIP3   OH258480   5.840   4.965  11.571 -0.3044 -0.1784 -0.2235
12330TIP3    H158481   5.879   5.039  11.525 -1.9397 -0.8183 -2.7015
12330TIP3    H258482   5.878   4.887  11.530 -1.6999 -0.7629 -0.4323
12331TIP3   OH258483   2.864   1.224   5.627  0.4215  0.4823 -0.3388
12331TIP3    H158484   2.789   1.272   5.664 -1.3783 -1.7042 -1.0570
12331TIP3    H258485   2.918   1.203   5.703 -0.4767  0.7383  0.3852
12332TIP3   OH258486   0.243   6.787   4.904 -0.1913 -0.2735 -0.1291
12332TIP3    H158487   0.191   6.849   4.853  0.4064  0.9869  0.7798
12332TIP3    H258488   0.303   6.748   4.840  0.9551  1.7254 -0.3042
12333TIP3   OH258489   4.148   3.651  12.885  0.2563  0.5381  0.2387
12333TIP3    H158490   4.094   3.694  12.952 -0.3878 -1.0302  0.7344
12333TIP3    H258491   4.149   3.714  12.812 -0.0712  1.7146  1.2275
12334TIP3   OH258492   4.369   3.024   3.553 -0.1252 -0.5218 -0.0940
12334TIP3    H158493   4.324   3.007   3.471  0.4816  2.3002 -1.0567
12334TIP3    H258494   4.461   3.011   3.533 -0.0088 -0.2184  0.2395
12335TIP3   OH258495   5.346   3.353  16.759 -0.6022  0.1007 -1.0017
12335TIP3    H158496   5.260   3.394  16.765 -0.2087  1.1399 -2.1475
12335TIP3    H258497   5.357   3.333  16.666 -0.0965 -1.1041 -0.6897
12336TIP3   OH258498   5.760   1.656  15.412  0.1460  0.4755  0.0922
12336TIP3    H158499   5.743   1.620  15.499 -0.0249 -0.3017 -0.2586
12336TIP3    H258500   5.698   1.728  15.404 -1.3043 -0.7745 -0.1962
12337TIP3   OH258501   4.722   6.596   3.090  0.1077 -0.1300  0.1842
12337TIP3    H158502   4.646   6.569   3.039 -0.5908  2.7923 -0.4475
12337TIP3    H258503   4.707   6.689   3.108  2.4724 -0.0286  1.9553
12338TIP3   OH258504   6.809   5.703  13.360 -0.0487 -0.2687  0.2580
12338TIP3    H158505   6.730   5.653  13.379  0.1578 -1.0458 -0.8971
12338TIP3    H258506   6.778   5.783  13.319 -0.2503 -0.4387  0.0841
12339TIP3   OH258507   5.763   1.551   1.112 -0.0090  0.0703  0.6788
12339TIP3    H158508   5.791   1.598   1.190  0.4408  1.5035 -0.3325
12339TIP3    H258509   5.668   1.566   1.107  0.1455  0.9122  0.3216
12340TIP3   OH258510   5.202   0.290   4.980  0.0967 -0.1709 -0.1488
12340TIP3    H158511   5.248   0.207   4.991 -1.1359 -0.8014  0.4023
12340TIP3    H258512   5.210   0.311   4.887  2.0734  0.0975  0.0558
12341TIP3   OH258513   0.607   1.283   2.645  0.3474 -0.0176  0.2146
12341TIP3    H158514   0.566   1.302   2.729  0.8564  0.7691  0.2943
12341TIP3    H258515   0.610   1.187   2.640 -1.8051 -0.1014  0.0372
12342TIP3   OH258516   0.553   6.122  15.006 -0.2039 -0.3306 -0.0328
12342TIP3    H158517   0.636   6.124  14.959 -1.0427  1.5032 -1.4844
12342TIP3    H258518   0.556   6.199  15.062 -1.2599  0.1758 -0.6701
12343TIP3   OH258519   3.714   6.427  15.208  0.1239  0.6866  0.3908
12343TIP3    H158520   3.771   6.371  15.261  0.2862  0.4187 -0.0633
12343TIP3    H258521   3.748   6.418  15.119 -0.1995  1.0703  0.2297
12344TIP3   OH258522   6.414   2.655  14.668 -0.7338  0.2786  0.0868
12344TIP3    H158523   6.473   2.702  14.609  0.6252 -1.5311 -0.0496
12344TIP3    H258524   6.469   2.626  14.740 -1.5671 -0.9233  0.2675
12345TIP3   OH258525   3.978   1.200   5.021  0.4507  0.6025  0.1644
12345TIP3    H158526   3.960   1.178   5.112 -0.4528  0.4588 -0.0395
12345TIP3    H258527   3.915   1.148   4.971  1.8486 -0.3533 -0.6162
12346TIP3   OH258528   0.187   3.172   0.282  0.0476 -0.2787 -0.0523
12346TIP3    H158529   0.113   3.115   0.262  0.7172 -0.7572 -1.2235
12346TIP3    H258530   0.151   3.261   0.278 -0.9600 -0.5947  1.5982
12347TIP3   OH258531   4.789   5.666  14.543  0.4359 -0.5808  0.3264
12347TIP3    H158532   4.697   5.637  14.543  0.1392  0.1479 -2.5060
12347TIP3    H258533   4.840   5.585  14.540 -0.1839 -0.9629 -0.0492
12348TIP3   OH258534   3.451   0.398  14.354  0.7974  0.1236  0.8803
12348TIP3    H158535   3.434   0.448  14.434 -1.7332 -0.4507  0.7651
12348TIP3    H258536   3.366   0.397  14.309  2.0102 -0.1968 -1.4397
12349TIP3   OH258537   4.670   4.336   2.765  0.1585  0.5168  0.1215
12349TIP3    H158538   4.605   4.405   2.776 -1.4156 -1.1460  1.6540
12349TIP3    H258539   4.669   4.316   2.671 -0.3929  1.5950 -0.1044
12350TIP3   OH258540   5.056   2.104  11.471 -0.0718 -0.1927  0.0306
12350TIP3    H158541   5.066   2.192  11.434  0.5409  0.5104  1.8444
12350TIP3    H258542   5.039   2.049  11.395  1.6083  1.1510 -1.3766
12351TIP3   OH258543   2.344   2.743   3.915  0.6656 -0.8063 -0.7364
12351TIP3    H158544   2.306   2.830   3.897  0.2290 -1.2171 -1.8437
12351TIP3    H258545   2.317   2.690   3.840  1.2320 -1.8080 -0.2279
12352TIP3   OH258546   3.052   4.237   1.948 -0.1301 -0.1648  0.0956
12352TIP3    H158547   3.013   4.149   1.941 -1.4971  0.4401 -0.0934
12352TIP3    H258548   2.978   4.296   1.939  0.7208  1.0105  0.7562
12353TIP3   OH258549   5.201   3.221  11.751  0.2398 -0.2269 -0.0015
12353TIP3    H158550   5.130   3.180  11.800  0.4631  1.1852  1.5323
12353TIP3    H258551   5.279   3.207  11.804  0.5769  0.8615 -0.2030
12354TIP3   OH258552   4.728   3.202   4.732 -0.5382  0.5189 -0.0156
12354TIP3    H158553   4.817   3.171   4.722  0.1271  3.0889 -2.8503
12354TIP3    H258554   4.711   3.197   4.826  2.0090 -1.4244  0.3994
12355TIP3   OH258555   2.519   4.991   5.979  0.1859  0.2526 -0.2882
12355TIP3    H158556   2.496   4.919   5.920 -0.9642  0.8254 -0.5315
12355TIP3    H258557   2.588   4.954   6.035 -1.0006 -1.3183  0.1629
12356TIP3   OH258558   0.943   1.410   5.972  0.2151 -0.0637 -0.1252
12356TIP3    H158559   0.878   1.356   5.926  1.3705 -2.0460  0.4913
12356TIP3    H258560   0.927   1.393   6.065  0.6556  0.5885  0.0700
12357TIP3   OH258561   1.842   4.327  12.781 -0.2994  0.1480 -0.4534
12357TIP3    H158562   1.752   4.316  12.813 -0.4313  0.5261 -0.6956
12357TIP3    H258563   1.848   4.419  12.757 -0.2392 -0.1608 -1.6320
12358TIP3   OH258564   5.754   2.415   6.148  0.2946  0.0168 -0.4092
12358TIP3    H158565   5.843   2.384   6.166 -0.2328 -0.7792  0.8119
12358TIP3    H258566   5.710   2.415   6.233 -0.9756  0.1049 -1.0554
12359TIP3   OH258567   5.953   2.832  15.184 -0.2883  0.1510  0.9870
12359TIP3    H158568   5.956   2.800  15.094 -0.0381  3.1705 -0.1387
12359TIP3    H258569   6.002   2.767  15.235 -0.7519 -1.7784 -0.9761
12360TIP3   OH258570   0.208   3.809   4.971 -0.2316 -0.2164 -0.9097
12360TIP3    H158571   0.156   3.820   5.051 -0.0411 -0.4749 -0.7459
12360TIP3    H258572   0.277   3.875   4.978 -1.4439  1.1788 -1.8825
12361TIP3   OH258573   0.268   4.891  15.825 -0.5241  0.0683 -0.6752
12361TIP3    H158574   0.242   4.957  15.761 -0.4641 -0.3945 -1.1751
12361TIP3    H258575   0.312   4.823  15.774  2.3924  1.1790  0.2300
12362TIP3   OH258576   2.173   5.747  16.958 -0.2987 -0.7434  0.1075
12362TIP3    H158577   2.080   5.738  16.938 -0.4401  0.2135  0.3024
12362TIP3    H258578   2.177   5.816  17.023  0.3671 -2.2786  1.7463
12363TIP3   OH258579   4.135   0.368  15.540 -0.8281  0.3495 -0.1083
12363TIP3    H158580   4.056   0.315  15.553 -1.0826  0.8364  0.3457
12363TIP3    H258581   4.102   0.449  15.499 -0.6086  0.7084  0.4304
12364TIP3   OH258582   0.173   2.851   0.039  0.0755 -0.7021  0.3640
12364TIP3    H158583   0.104   2.865  -0.026  0.5195 -0.7691 -0.1243
12364TIP3    H258584   0.135   2.883   0.121 -0.8761 -1.5854  0.2839
12365TIP3   OH258585   4.361   6.782   3.204 -0.4791 -0.5847 -0.1373
12365TIP3    H158586   4.276   6.760   3.168 -0.6285 -0.3022  0.0412
12365TIP3    H258587   4.378   6.713   3.269 -1.4308  0.4045  1.1971
12366TIP3   OH258588   3.243   0.868   1.570 -0.4481  0.4608  0.5541
12366TIP3    H158589   3.241   0.872   1.474  3.6614  0.3455  0.3478
12366TIP3    H258590   3.201   0.785   1.592  0.3544 -0.4732 -1.3086
12367TIP3   OH258591   4.446   0.794  13.313  0.0906  1.1410 -0.0311
12367TIP3    H158592   4.367   0.828  13.271 -0.0377  0.2489 -0.5250
12367TIP3    H258593   4.501   0.765  13.240 -0.5683 -1.3900  0.4394
12368TIP3   OH258594   1.486   3.653  12.642 -0.3306 -0.0801 -0.0986
12368TIP3    H158595   1.493   3.745  12.616 -2.9263 -0.7094 -3.3446
12368TIP3    H258596   1.392   3.635  12.642  0.1369 -2.7654  0.5071
12369TIP3   OH258597   4.343   5.842   3.480  0.4153  0.3111 -0.1592
12369TIP3    H158598   4.408   5.906   3.510  1.0399  0.7824 -2.4113
12369TIP3    H258599   4.322   5.870   3.391  0.5746 -2.5570 -1.1271
12370TIP3   OH258600   2.104   3.015  11.505 -0.0683 -0.5319  0.3763
12370TIP3    H158601   2.099   2.983  11.595 -0.2488 -0.4082  0.4107
12370TIP3    H258602   2.022   2.986  11.465 -1.2121  1.7275  1.0101
12371TIP3   OH258603   3.623   1.805   4.753  0.5729 -0.2879 -0.1417
12371TIP3    H158604   3.684   1.815   4.826 -1.2056  1.0311  1.2055
12371TIP3    H258605   3.614   1.893   4.716 -0.7291 -0.3928 -0.1220
12372TIP3   OH258606   2.026   1.812  13.647  0.6501  0.6050 -0.1330
12372TIP3    H158607   1.946   1.855  13.616 -0.0176  0.5380  1.4396
12372TIP3    H258608   2.013   1.719  13.629  1.3446  0.8256 -1.9168
12373TIP3   OH258609   2.022   6.337  12.132 -0.6603 -0.1465  0.0407
12373TIP3    H158610   2.062   6.266  12.183 -2.2850 -1.1179  0.0166
12373TIP3    H258611   1.933   6.306  12.115 -1.0581  1.4617 -0.8756
12374TIP3   OH258612   0.217   0.417  14.909  0.3027 -0.0409 -0.1155
12374TIP3    H158613   0.309   0.390  14.905  0.7720  1.3449  0.9720
12374TIP3    H258614   0.185   0.382  14.992  0.1217  0.3131 -0.0365
12375TIP3   OH258615   2.055   2.709   4.050 -0.2930  0.4981 -0.1777
12375TIP3    H158616   2.098   2.787   4.085  0.2203  1.5092 -2.9434
12375TIP3    H258617   1.978   2.742   4.005  0.2084 -0.5356 -1.8095
12376TIP3   OH258618   3.229   6.144  16.128 -0.1862 -0.0423 -0.2669
12376TIP3    H158619   3.141   6.138  16.165 -0.7995 -1.1873 -1.8680
12376TIP3    H258620   3.278   6.197  16.192 -2.0847  0.8405  0.5002
12377TIP3   OH258621   5.183   5.502   2.273 -0.1019  0.4527 -0.1811
12377TIP3    H158622   5.135   5.574   2.314 -1.4789 -0.9585  0.7649
12377TIP3    H258623   5.202   5.442   2.345  0.2229 -0.5687 -1.1082
12378TIP3   OH258624   4.825   5.336  13.847  0.4691 -0.3545 -0.4600
12378TIP3    H158625   4.802   5.320  13.755  0.4435 -0.6474 -0.4024
12378TIP3    H258626   4.900   5.279  13.863  1.0636  0.4005 -0.5673
12379TIP3   OH258627   6.092   0.086  11.409 -0.8542  0.2655  0.5501
12379TIP3    H158628   6.115   0.156  11.470 -0.8172  1.5728 -0.9534
12379TIP3    H258629   6.149   0.099  11.334 -0.4041 -1.7731  0.5064
12380TIP3   OH258630   5.657   1.501  14.607 -0.4079 -0.0447 -0.1119
12380TIP3    H158631   5.598   1.572  14.585  1.0375  0.8502 -1.1938
12380TIP3    H258632   5.682   1.518  14.698  2.6322  2.8525 -1.4010
12381TIP3   OH258633   5.843   2.212   1.006 -0.0882  0.6007 -0.8112
12381TIP3    H158634   5.888   2.209   1.090  1.0230  0.7021 -1.4005
12381TIP3    H258635   5.774   2.277   1.018 -1.5328 -1.1621  0.8022
12382TIP3   OH258636   5.891   6.134  13.470  0.8242 -0.2280  0.4690
12382TIP3    H158637   5.877   6.228  13.459  0.6399 -0.3564 -0.4313
12382TIP3    H258638   5.833   6.110  13.542 -1.1473 -0.1186 -1.0104
12383TIP3   OH258639   0.419   5.934  14.870  0.0141  0.2614  0.3581
12383TIP3    H158640   0.439   5.987  14.793 -0.9027  0.1046  0.0074
12383TIP3    H258641   0.430   5.993  14.944  0.7000  0.4683  0.0901
12384TIP3   OH258642   3.676   5.234   5.147  0.2024  0.4899 -0.1488
12384TIP3    H158643   3.693   5.241   5.241 -1.2277 -0.4782  0.2028
12384TIP3    H258644   3.582   5.251   5.138  0.0954 -0.6128 -1.2542
12385TIP3   OH258645   1.238   4.935  11.557 -0.5329  0.0112  0.2891
12385TIP3    H158646   1.232   5.020  11.514  0.0575 -0.3261 -0.4684
12385TIP3    H258647   1.331   4.915  11.558 -0.8910 -2.3172 -2.9021
12386TIP3   OH258648   4.299   4.967   5.878  0.7287 -0.0793 -0.2082
12386TIP3    H158649   4.223   4.993   5.824  0.6963  1.4559  0.5532
12386TIP3    H258650   4.307   5.037   5.943  1.2774 -1.5057  1.2801
12387TIP3   OH258651   4.189   2.400  12.565  0.2067  0.9107 -0.6352
12387TIP3    H158652   4.099   2.398  12.534  0.0677 -2.2331 -0.1352
12387TIP3    H258653   4.192   2.335  12.635  3.1426  0.0911 -1.4439
12388TIP3   OH258654   5.133   1.930  11.931 -0.3550 -0.4542  0.2462
12388TIP3    H158655   5.214   1.953  11.886  0.8238 -1.6456  1.6990
12388TIP3    H258656   5.145   1.839  11.957 -1.4385 -0.1220  2.0098
12389TIP3   OH258657   6.233   2.997  16.553 -0.5395 -0.9725  0.3348
12389TIP3    H158658   6.143   2.967  16.542 -1.1365  1.0411 -0.4854
12389TIP3    H258659   6.228   3.062  16.623  0.0055  0.2432 -0.7408
12390TIP3   OH258660   3.906   5.250   2.288 -0.1008  0.3679  0.3332
12390TIP3    H158661   3.875   5.203   2.211  3.3839 -0.3793 -0.6734
12390TIP3    H258662   3.844   5.226   2.358 -2.0037 -0.6647 -1.6632
12391TIP3   OH258663   5.877   0.185   6.149  0.0791  0.0799  0.2231
12391TIP3    H158664   5.840   0.105   6.112  0.7723 -0.2142  0.1586
12391TIP3    H258665   5.801   0.240   6.169 -0.3009  0.1689 -1.4651
12392TIP3   OH258666   5.727   6.011   2.324 -0.0794 -0.2329 -0.0603
12392TIP3    H158667   5.641   6.051   2.334 -0.9067 -1.6458 -1.1461
12392TIP3    H258668   5.722   5.965   2.239  1.2724 -1.4540  0.4918
12393TIP3   OH258669   2.924   5.848   1.568 -0.1155 -0.2362 -0.0092
12393TIP3    H158670   2.998   5.789   1.550 -0.7457 -1.8280  2.2976
12393TIP3    H258671   2.852   5.812   1.516  0.1552 -0.0028 -0.5483
12394TIP3   OH258672   1.963   5.000   2.915 -0.0181  0.3919 -0.8457
12394TIP3    H158673   2.043   5.017   2.965 -0.4358 -0.1675  0.0253
12394TIP3    H258674   1.910   5.079   2.927 -0.4589 -0.0753  0.2614
12395TIP3   OH258675   0.293   2.292   5.556 -0.1147 -0.1090 -0.1553
12395TIP3    H158676   0.337   2.369   5.591 -2.0236  0.1069  1.8805
12395TIP3    H258677   0.208   2.324   5.526 -0.9344 -1.3735  0.7054
12396TIP3   OH258678   5.157   1.421  14.885 -0.3517  0.4584  0.0573
12396TIP3    H158679   5.109   1.456  14.959  0.2927  1.1578  0.1436
12396TIP3    H258680   5.211   1.351  14.922 -1.9186 -0.9363 -0.1752
12397TIP3   OH258681   5.623   3.557   0.206 -0.2166 -1.0789  0.0874
12397TIP3    H158682   5.652   3.503   0.280 -0.1173 -1.9856 -0.6044
12397TIP3    H258683   5.656   3.645   0.226 -1.0010 -1.0969  1.5895
12398TIP3   OH258684   0.003   4.531  15.180  0.2853  0.1413 -0.7994
12398TIP3    H158685  -0.029   4.613  15.219  0.4226 -0.7106  1.1794
12398TIP3    H258686   0.077   4.559  15.125 -0.6359  1.5195 -1.3724
12399TIP3   OH258687   1.028   4.363  11.489 -0.4615 -0.1405  0.0653
12399TIP3    H158688   1.094   4.407  11.542  1.3977 -0.4549 -1.9301
12399TIP3    H258689   0.975   4.433  11.453  0.7020  0.3228 -0.7793
12400TIP3   OH258690   6.131   2.746  11.895 -0.2706  0.0067  0.1925
12400TIP3    H158691   6.149   2.819  11.956  0.4097  0.3523 -0.4158
12400TIP3    H258692   6.121   2.670  11.952  1.9025  0.0272  0.6647
12401TIP3   OH258693   1.250   5.383   3.373  0.1818 -0.1416  0.0808
12401TIP3    H158694   1.244   5.456   3.434 -0.1832  0.6203 -0.8569
12401TIP3    H258695   1.173   5.329   3.393  1.1158 -0.9536  1.6127
12402TIP3   OH258696   3.249   5.205  15.401  0.4951 -0.0228  0.2922
12402TIP3    H158697   3.329   5.185  15.449  0.2949  1.6696  1.4037
12402TIP3    H258698   3.271   5.191  15.309  1.9693  0.1035  0.6181
12403TIP3   OH258699   3.237   4.360   0.867  0.2298 -0.0233  0.1885
12403TIP3    H158700   3.259   4.420   0.795  0.0757 -2.0035 -1.5558
12403TIP3    H258701   3.304   4.377   0.933  1.2550  0.8161 -1.0333
12404TIP3   OH258702   4.725   4.283  12.940 -0.1155  0.3717  0.5529
12404TIP3    H158703   4.808   4.239  12.920 -0.1955  0.6612 -0.4166
12404TIP3    H258704   4.658   4.218  12.920 -0.1473  0.3398  0.7662
12405TIP3   OH258705   2.689   6.293  11.340 -0.1769  0.6657 -0.5087
12405TIP3    H158706   2.741   6.212  11.342  0.5705  1.1286 -0.9752
12405TIP3    H258707   2.673   6.313  11.432  0.1069  0.2844 -0.3730
12406TIP3   OH258708   3.307   3.968   4.369  0.2761  0.2117  0.0857
12406TIP3    H158709   3.320   3.921   4.286  0.8378 -2.1877  1.4678
12406TIP3    H258710   3.376   4.034   4.370  1.8252 -1.3588 -0.2825
12407TIP3   OH258711   1.158   1.287  11.850  0.7688 -0.0780  0.6988
12407TIP3    H158712   1.166   1.219  11.782 -0.0605  1.2210 -0.7387
12407TIP3    H258713   1.086   1.257  11.906  2.0672 -1.6199  1.5722
12408TIP3   OH258714   3.167   1.252  15.247  0.0044 -0.3840  0.0793
12408TIP3    H158715   3.100   1.290  15.304  0.5017 -0.5306  0.7740
12408TIP3    H258716   3.162   1.158  15.262 -1.2315 -0.6227 -1.6542
12409TIP3   OH258717   5.078   5.539  16.015 -0.5311  0.1007  0.1699
12409TIP3    H158718   5.066   5.449  15.986 -0.4301  0.8244 -2.2789
12409TIP3    H258719   4.990   5.576  16.018 -0.3942  0.6314 -1.4191
12410TIP3   OH258720   1.467   2.512   1.056  0.5968  0.0885  0.4631
12410TIP3    H158721   1.394   2.470   1.103  1.2796 -0.0638  1.4141
12410TIP3    H258722   1.541   2.504   1.117  1.3151  0.5511 -0.3530
12411TIP3   OH258723   2.681   2.559   4.839  0.2390 -0.1832  0.0080
12411TIP3    H158724   2.629   2.503   4.896 -1.6499 -0.4523 -1.9568
12411TIP3    H258725   2.635   2.643   4.840  0.5682  0.0047 -0.6035
12412TIP3   OH258726   2.156   0.453   0.387 -0.4432  0.7200  0.0199
12412TIP3    H158727   2.083   0.395   0.410  0.4660 -1.0709 -1.4696
12412TIP3    H258728   2.131   0.491   0.303 -0.7652  2.0329  0.7071
12413TIP3   OH258729   4.115   6.126  13.213  0.1621  0.0379 -0.3967
12413TIP3    H158730   4.046   6.141  13.149 -0.9563  1.8189  1.1908
12413TIP3    H258731   4.160   6.210  13.221  1.3481 -0.6141 -0.0597
12414TIP3   OH258732   3.186   4.588   4.833 -0.4727  0.2116 -0.5517
12414TIP3    H158733   3.135   4.648   4.778 -1.1834 -0.3777 -0.5421
12414TIP3    H258734   3.246   4.545   4.772 -0.2736  0.5953 -0.6325
12415TIP3   OH258735   1.509   2.547  14.705 -0.2723  0.0133  0.1821
12415TIP3    H158736   1.476   2.503  14.783  0.0926 -1.0909 -0.2867
12415TIP3    H258737   1.523   2.638  14.733 -0.9270 -0.1863  1.1697
12416TIP3   OH258738   0.411   4.216   2.585 -0.5591 -0.2613 -0.2011
12416TIP3    H158739   0.393   4.255   2.670  0.3173  0.4969 -0.3469
12416TIP3    H258740   0.425   4.123   2.603 -0.0336 -0.0424  0.5331
12417TIP3   OH258741   5.742   5.921   0.158 -0.3662  0.3769 -0.0922
12417TIP3    H158742   5.702   5.983   0.218 -2.2619 -0.2344 -0.6841
12417TIP3    H258743   5.799   5.974   0.102 -1.8910  1.5810 -0.5376
12418TIP3   OH258744   6.452   1.488   4.217 -0.4981 -0.1520  0.2336
12418TIP3    H158745   6.484   1.431   4.286  0.2096  1.1220  0.9820
12418TIP3    H258746   6.467   1.439   4.136  1.9107 -0.2604  0.6922
12419TIP3   OH258747   4.007   1.487   5.459 -0.1730  0.4795 -0.1468
12419TIP3    H158748   3.984   1.560   5.402 -0.3824 -1.8376 -3.1310
12419TIP3    H258749   3.924   1.446   5.481  0.1369 -0.5101 -0.7849
12420TIP3   OH258750   6.473   3.474  13.511 -0.0160  0.2387  0.7764
12420TIP3    H158751   6.427   3.404  13.558  0.8737 -0.9920 -0.1554
12420TIP3    H258752   6.483   3.544  13.575  2.5857 -1.9959  2.9414
12421TIP3   OH258753   4.510   1.567  11.868  0.4402 -0.5385 -0.2463
12421TIP3    H158754   4.429   1.538  11.827  1.2495  0.1256 -2.3753
12421TIP3    H258755   4.545   1.633  11.808  2.2523 -0.4021  0.9265
12422TIP3   OH258756   2.924   2.980   2.966  0.7646  0.1698  0.7933
12422TIP3    H158757   3.008   3.006   2.926 -0.1450  0.2889 -1.1232
12422TIP3    H258758   2.859   3.035   2.922 -0.5575 -1.4147  0.7206
12423TIP3   OH258759   2.538   4.508  14.356 -0.0296 -0.0734 -0.8127
12423TIP3    H158760   2.580   4.429  14.390 -2.7308 -0.7625  1.0304
12423TIP3    H258761   2.488   4.543  14.429 -0.9809  1.8977 -2.3455
12424TIP3   OH258762   6.273   6.107   1.856  0.3906 -0.1404 -0.0513
12424TIP3    H158763   6.211   6.047   1.815  0.8228 -1.4146  1.1181
12424TIP3    H258764   6.237   6.194   1.841  0.9051 -0.4957 -3.7946
12425TIP3   OH258765   3.841   4.428  12.618  0.2202  0.6300  0.1528
12425TIP3    H158766   3.766   4.408  12.561  0.3146  0.5412  0.0608
12425TIP3    H258767   3.806   4.493  12.680 -0.3839 -0.5735  1.0973
12426TIP3   OH258768   1.611   1.849   3.664 -0.2356 -0.2445 -0.0051
12426TIP3    H158769   1.520   1.825   3.647  0.0167 -0.4121 -1.1998
12426TIP3    H258770   1.643   1.882   3.580  1.5534 -2.6538 -0.3310
12427TIP3   OH258771   4.576   0.334   1.126 -0.1687 -0.1655  0.7475
12427TIP3    H158772   4.563   0.288   1.208 -0.3734 -0.7806  0.3761
12427TIP3    H258773   4.636   0.406   1.147  0.6161 -0.9502  1.2129
12428TIP3   OH258774   1.527   3.081  12.917  0.4848  0.2181  0.2200
12428TIP3    H158775   1.472   3.155  12.891  0.3893 -0.3646 -1.2382
12428TIP3    H258776   1.580   3.061  12.840  2.0012  0.0774  1.2625
12429TIP3   OH258777   3.370   2.536   6.410  0.2248  0.5235 -0.2113
12429TIP3    H158778   3.356   2.550   6.504 -0.9506 -1.2105 -0.1136
12429TIP3    H258779   3.299   2.585   6.368 -0.4646 -0.3770 -0.1045
12430TIP3   OH258780   3.725   4.707  13.778  0.5075  0.0056  0.8936
12430TIP3    H158781   3.758   4.703  13.688 -0.7973  0.5314  0.3754
12430TIP3    H258782   3.645   4.758  13.772 -0.5153 -1.4067  2.0858
12431TIP3   OH258783   2.396   2.030  11.975 -0.3528  0.1532  0.4482
12431TIP3    H158784   2.304   2.008  11.983 -0.1446 -0.4333  1.2903
12431TIP3    H258785   2.442   1.964  12.027  0.4625  1.0503  0.8938
12432TIP3   OH258786   3.881   3.657   2.771  0.0682  0.0983  0.2781
12432TIP3    H158787   3.852   3.606   2.847  0.9810  0.9434  1.2149
12432TIP3    H258788   3.877   3.748   2.801  0.4948  0.4301 -0.6779
12433TIP3   OH258789   6.709   1.819  16.413  0.4549  0.1242 -0.0055
12433TIP3    H158790   6.732   1.773  16.332  0.7822 -0.2908  0.3153
12433TIP3    H258791   6.759   1.900  16.410  1.6147 -0.5630  0.4688
12434TIP3   OH258792   6.406   2.102   3.231 -0.3692  0.4559  0.8100
12434TIP3    H158793   6.478   2.118   3.292  0.0642 -0.3477  0.5269
12434TIP3    H258794   6.378   2.012   3.250 -0.6704  0.4335  0.2806
12435TIP3   OH258795   0.895   6.173   4.708  0.3537 -0.4888 -0.0638
12435TIP3    H158796   0.812   6.125   4.706  0.7930 -1.2059 -1.2012
12435TIP3    H258797   0.869   6.265   4.710 -0.4730 -0.6435 -2.4681
12436TIP3   OH258798   6.027   3.008   0.006 -0.1147  0.7626  0.6674
12436TIP3    H158799   5.974   2.961   0.070 -0.0472 -0.1852  0.0505
12436TIP3    H258800   6.101   3.042   0.056  0.5187 -0.9118  0.9085
12437TIP3   OH258801   4.537   2.140  15.612 -0.2376 -0.0208  0.1326
12437TIP3    H158802   4.505   2.222  15.575  2.7607  1.7955  1.3968
12437TIP3    H258803   4.575   2.165  15.697  0.7566 -2.7026  0.5358
12438TIP3   OH258804   5.379   5.987   3.858  0.3189 -0.1678  0.0230
12438TIP3    H158805   5.383   6.075   3.819 -0.5363  0.3610  1.0991
12438TIP3    H258806   5.315   5.940   3.805  2.1940 -0.7792 -1.7679
12439TIP3   OH258807   2.085   5.939   4.233  0.2100  0.4869 -0.2629
12439TIP3    H158808   2.089   6.034   4.245 -1.4031  0.6551 -0.9495
12439TIP3    H258809   2.153   5.919   4.168  2.3934  0.8021  1.8308
12440TIP3   OH258810   5.344   0.866   4.379  0.4273  0.7638  0.8479
12440TIP3    H158811   5.406   0.794   4.366 -0.1800  0.7963 -2.5325
12440TIP3    H258812   5.385   0.941   4.337 -1.1886  1.1712 -0.0317
12441TIP3   OH258813   1.706   2.286   2.206 -0.4370 -0.0353 -0.2410
12441TIP3    H158814   1.615   2.258   2.195 -1.2241  2.4656 -0.2347
12441TIP3    H258815   1.747   2.271   2.120 -0.9246 -0.7890 -0.3497
12442TIP3   OH258816   2.625   2.058   2.034  0.0094 -0.1519  0.2764
12442TIP3    H158817   2.575   1.996   1.982  0.2093 -0.1962  0.1334
12442TIP3    H258818   2.701   2.008   2.065  0.5382  0.1999 -0.4265
12443TIP3   OH258819   5.125   0.714   2.601  0.0432 -0.4365  0.6384
12443TIP3    H158820   5.130   0.624   2.635 -2.2421 -0.4504  1.0188
12443TIP3    H258821   5.042   0.748   2.635  0.6559  1.6703  0.1006
12444TIP3   OH258822   6.258   0.327  12.119  0.7619 -0.0098  0.4377
12444TIP3    H158823   6.323   0.349  12.052 -1.0470  0.0199 -1.3214
12444TIP3    H258824   6.233   0.237  12.101 -2.1524  1.0313 -1.0010
12445TIP3   OH258825   2.455   0.138   1.011 -0.1377 -0.4906 -0.4373
12445TIP3    H158826   2.532   0.186   1.042  1.3735 -1.9296 -1.7743
12445TIP3    H258827   2.478   0.046   1.026 -0.6171 -1.0615 -2.9182
12446TIP3   OH258828   0.227   6.724  14.976 -0.1283 -0.4072  0.6536
12446TIP3    H158829   0.146   6.731  14.927 -0.4424 -0.7897  1.1137
12446TIP3    H258830   0.245   6.630  14.978  0.9819 -0.2384 -0.5076
12447TIP3   OH258831   3.258   3.020  14.059  0.5706 -0.0159 -0.0636
12447TIP3    H158832   3.321   3.068  14.005  0.1934  0.9073  0.3025
12447TIP3    H258833   3.297   3.020  14.146 -0.0023  0.6952  0.1985
12448TIP3   OH258834   4.767   2.380   6.029 -0.4182 -0.4109  0.2427
12448TIP3    H158835   4.820   2.341   5.960 -3.0043  0.7345 -2.4598
12448TIP3    H258836   4.681   2.339   6.021 -0.9695  0.2556  2.3211
12449TIP3   OH258837   2.975   3.652  14.922 -0.0633  0.4844 -0.1884
12449TIP3    H158838   3.060   3.655  14.965 -0.4845  0.1823  0.6795
12449TIP3    H258839   2.944   3.562  14.935 -0.3486  0.4801 -0.8388
12450TIP3   OH258840   6.341   3.404   5.389 -0.0133 -0.1589 -0.0156
12450TIP3    H158841   6.275   3.366   5.446  1.1776 -1.5436  0.4716
12450TIP3    H258842   6.411   3.339   5.386  0.6182  0.5597 -1.8364
12451TIP3   OH258843   6.604   3.785  15.475  0.3135 -0.2027  0.2280
12451TIP3    H158844   6.673   3.826  15.422 -0.0913 -1.1551 -1.0649
12451TIP3    H258845   6.647   3.712  15.518  0.0554 -1.0028 -0.8451
12452TIP3   OH258846   5.222   0.031  15.983 -0.7312 -0.3169 -0.0555
12452TIP3    H158847   5.237  -0.060  16.006  1.2642  0.1370  0.5492
12452TIP3    H258848   5.136   0.052  16.021  0.5453 -0.8183  3.2546
12453TIP3   OH258849   6.222   3.806  17.174  0.0018  0.1961  0.4086
12453TIP3    H158850   6.311   3.772  17.177  0.1619  0.6190  0.4020
12453TIP3    H258851   6.167   3.727  17.167  0.3191 -0.1056  1.2629
12454TIP3   OH258852   2.893   1.491  11.462 -0.5826 -0.5741  0.3461
12454TIP3    H158853   2.966   1.441  11.426 -0.2142  1.0687 -1.2509
12454TIP3    H258854   2.915   1.501  11.555  0.4498 -1.4061  0.2004
12455TIP3   OH258855   5.379   5.078   0.816  0.2653  0.7342  0.1361
12455TIP3    H158856   5.439   5.119   0.753 -0.5384  0.1377 -1.0310
12455TIP3    H258857   5.393   4.984   0.806 -2.0562  0.5023 -1.3813
12456TIP3   OH258858   1.825   2.229   0.658 -0.3823  0.6117  0.0415
12456TIP3    H158859   1.857   2.305   0.707  1.1239 -0.6124  0.9770
12456TIP3    H258860   1.895   2.207   0.597 -0.3432 -0.6658  0.5159
12457TIP3   OH258861   4.398   5.040   3.634  0.3266  0.0844 -0.5700
12457TIP3    H158862   4.452   4.961   3.636 -0.1355 -0.2186  0.3802
12457TIP3    H258863   4.310   5.009   3.655  0.1759  0.8644 -0.0191
12458TIP3   OH258864   4.294   6.082  17.138  0.4847  0.5334 -0.2180
12458TIP3    H158865   4.213   6.130  17.153  0.3686 -0.2850  1.9596
12458TIP3    H258866   4.362   6.134  17.181  0.6383 -0.2971  0.5679
12459TIP3   OH258867   3.040   6.581  13.899 -0.1322  0.5288  0.3855
12459TIP3    H158868   3.009   6.491  13.901  1.7638 -0.1570 -0.0448
12459TIP3    H258869   3.036   6.607  13.807  0.2498  0.5543  0.3755
12460TIP3   OH258870   5.252   3.627   5.122 -0.3146  0.2903  0.2816
12460TIP3    H158871   5.287   3.711   5.150  1.4686 -0.2460 -0.2354
12460TIP3    H258872   5.165   3.647   5.088 -0.6297  1.6406  1.8016
12461TIP3   OH258873   6.306   2.183  14.950 -1.0469  0.1325 -0.0491
12461TIP3    H158874   6.238   2.223  14.896 -0.3826  2.4743  0.8053
12461TIP3    H258875   6.310   2.092  14.920 -1.1472  1.2069 -3.4626
12462TIP3   OH258876   2.216   1.793   0.081  0.2053 -0.0473  0.5653
12462TIP3    H158877   2.176   1.878   0.092 -2.6698 -1.1979 -0.5860
12462TIP3    H258878   2.206   1.750   0.166  0.7987  0.3883  0.8595
12463TIP3   OH258879   4.975   4.973  17.174  0.4074 -0.1748 -0.2978
12463TIP3    H158880   5.033   4.943  17.244  0.3764 -1.4336 -0.7995
12463TIP3    H258881   4.927   5.046  17.213  0.8529 -0.4446  0.7878
12464TIP3   OH258882   4.557   2.629   4.879 -0.0213 -0.1719  0.2471
12464TIP3    H158883   4.583   2.711   4.921 -0.2944  0.3969 -0.6586
12464TIP3    H258884   4.637   2.577   4.876  0.8905  1.2425 -1.7929
12465TIP3   OH258885   0.193   2.804   3.351  0.2220 -0.9438 -0.0737
12465TIP3    H158886   0.157   2.850   3.427  3.3131  1.1324  0.1769
12465TIP3    H258887   0.253   2.740   3.388  1.2282 -0.3863 -0.7264
12466TIP3   OH258888   6.722   2.876   1.300  0.2161  0.4969  0.3475
12466TIP3    H158889   6.785   2.947   1.292 -0.6464  1.4333  1.6332
12466TIP3    H258890   6.762   2.803   1.255  1.0010  1.8852 -1.2661
12467TIP3   OH258891   4.817   6.414   0.032 -0.2488 -0.7439 -0.1051
12467TIP3    H158892   4.795   6.359   0.107  1.2292 -0.3262  0.6461
12467TIP3    H258893   4.739   6.468   0.019 -0.7715 -1.2794  0.7034
12468TIP3   OH258894   2.270   5.974  13.261 -0.1580  0.0940  0.1670
12468TIP3    H158895   2.180   5.944  13.257 -0.3626  0.8589 -1.0279
12468TIP3    H258896   2.308   5.927  13.336 -1.0780 -1.4484 -0.3337
12469TIP3   OH258897   5.043   0.660  13.194 -0.5585 -0.5267 -0.0546
12469TIP3    H158898   5.022   0.632  13.105 -3.1620  1.6766 -0.1770
12469TIP3    H258899   4.958   0.663  13.239  0.1113  2.9786  1.1348
12470TIP3   OH258900   4.642   3.439   0.222 -0.2270 -0.3678 -0.2943
12470TIP3    H158901   4.620   3.468   0.310  0.6306 -0.0010 -0.1906
12470TIP3    H258902   4.705   3.504   0.191  1.1885 -1.7426 -0.3351
12471TIP3   OH258903   6.465   5.739  12.677  0.2780  0.1157  0.0289
12471TIP3    H158904   6.375   5.712  12.695  1.0614 -1.3447  1.9271
12471TIP3    H258905   6.458   5.794  12.599 -2.1652 -0.5028 -0.2417
12472TIP3   OH258906   5.861   2.542   4.299  0.0088 -0.1213  0.1590
12472TIP3    H158907   5.901   2.611   4.246  2.3352 -0.4864  1.3532
12472TIP3    H258908   5.877   2.569   4.389  0.3290 -1.8370  0.6454
12473TIP3   OH258909   4.768   2.509   4.987 -0.2467 -0.1044  0.2406
12473TIP3    H158910   4.743   2.440   5.048  0.0434  1.6761  2.4507
12473TIP3    H258911   4.858   2.488   4.962  0.1305 -0.0652  1.5580
12474TIP3   OH258912   2.422   2.554  14.564  0.1479  0.6451 -0.2479
12474TIP3    H158913   2.445   2.636  14.521 -1.4571  0.5950 -1.2459
12474TIP3    H258914   2.484   2.547  14.637  0.8149  2.3348 -0.6212
12475TIP3   OH258915   0.985   5.453   3.131  0.1011 -0.0492 -0.2303
12475TIP3    H158916   1.052   5.519   3.147  0.2697 -1.1678  4.2957
12475TIP3    H258917   0.911   5.502   3.096  1.0717  2.1721  0.7542
12476TIP3   OH258918   4.333   1.816   4.359 -0.7867  0.4108 -0.2763
12476TIP3    H158919   4.391   1.785   4.289 -0.3987  1.5246 -0.4481
12476TIP3    H258920   4.332   1.744   4.423  1.2919  0.6380  0.0405
12477TIP3   OH258921   0.883   4.973  12.752  0.1987 -0.1063 -0.0092
12477TIP3    H158922   0.836   4.914  12.693 -0.4252 -0.3704  0.7397
12477TIP3    H258923   0.975   4.955  12.735  0.0626  1.3246 -2.4066
12478TIP3   OH258924   0.521   0.207   5.471  0.1537  0.6960 -0.7754
12478TIP3    H158925   0.463   0.135   5.496  0.2808  0.4009 -1.3312
12478TIP3    H258926   0.518   0.267   5.546  2.2316 -1.2084  0.9267
12479TIP3   OH258927   5.889   5.762  12.236  0.0421 -0.5941 -0.1376
12479TIP3    H158928   5.900   5.703  12.161  0.2732 -0.5744 -0.1204
12479TIP3    H258929   5.926   5.714  12.310  0.4866 -0.3173 -0.1772
12480TIP3   OH258930   5.431   0.414   5.500  0.1195 -0.2774  0.2207
12480TIP3    H158931   5.487   0.400   5.424  0.7758 -1.9528  0.9708
12480TIP3    H258932   5.423   0.509   5.508  0.8965 -0.0712 -1.3020
12481TIP3   OH258933   5.309   5.086  11.692  0.0149 -0.7098  0.5092
12481TIP3    H158934   5.277   5.061  11.779  0.3742 -1.9712  0.2835
12481TIP3    H258935   5.299   5.008  11.639 -0.0939  0.0224 -0.5685
12482TIP3   OH258936   2.227   4.736   5.085 -0.3771  0.8491  0.3621
12482TIP3    H158937   2.178   4.761   5.006  2.9440  1.6627 -1.5274
12482TIP3    H258938   2.164   4.687   5.137 -3.2907  2.1260 -1.8104
12483TIP3   OH258939   0.844   1.470   3.169  0.1547 -0.2524 -0.1384
12483TIP3    H158940   0.752   1.462   3.146  0.3059 -1.2042 -0.4334
12483TIP3    H258941   0.891   1.453   3.088  0.5745  1.2531 -0.2318
12484TIP3   OH258942   3.702   1.454   4.299  0.2551 -0.7757  0.0980
12484TIP3    H158943   3.652   1.455   4.381  0.9909 -2.0771  0.5698
12484TIP3    H258944   3.758   1.532   4.304  0.2567 -0.8203  0.8124
12485TIP3   OH258945   5.636   5.527   1.198  0.6048 -0.0623  0.2217
12485TIP3    H158946   5.626   5.573   1.281  0.8962  0.1429  0.1432
12485TIP3    H258947   5.667   5.440   1.222  0.1441 -0.1905  0.3634
12486TIP3   OH258948   3.791   4.924  12.067  0.2849 -0.5389 -0.0129
12486TIP3    H158949   3.799   4.958  12.156  1.6068  0.3164 -0.4472
12486TIP3    H258950   3.879   4.894  12.045  0.3343  0.6854 -1.5917
12487TIP3   OH258951   4.658   4.740  11.504  0.3690  0.2512  0.4151
12487TIP3    H158952   4.745   4.772  11.478  0.8706 -0.9999  0.5244
12487TIP3    H258953   4.626   4.805  11.567  2.0226 -0.2485  1.8019
12488TIP3   OH258954   4.201   1.328  13.708  0.8111  1.0521  0.6638
12488TIP3    H158955   4.107   1.326  13.690  0.5051 -0.0115  2.2621
12488TIP3    H258956   4.233   1.402  13.657 -0.4491 -0.0997 -1.9179
12489TIP3   OH258957   4.342   5.822   1.813 -0.0016 -0.0795  0.0363
12489TIP3    H158958   4.410   5.764   1.846 -2.6900 -2.4510  1.6681
12489TIP3    H258959   4.282   5.764   1.765 -0.6935  1.9925 -1.7016
12490TIP3   OH258960   4.671   4.699   0.310  0.1610 -0.0779  0.3418
12490TIP3    H158961   4.713   4.616   0.289  1.5557  0.7580 -0.1858
12490TIP3    H258962   4.694   4.758   0.239  0.7649  1.3256  1.6575
12491TIP3   OH258963   2.874   5.069   5.949 -0.5489  0.6566  0.5039
12491TIP3    H158964   2.842   5.010   6.017 -0.6734 -1.3341 -1.2463
12491TIP3    H258965   2.885   5.014   5.872 -0.7120  2.9211 -1.1984
12492TIP3   OH258966   1.898   5.985   2.966  0.3287  0.1763  0.4832
12492TIP3    H158967   1.973   6.043   2.966  1.0025 -0.6195  3.3327
12492TIP3    H258968   1.862   5.991   3.055 -1.8393 -0.8858 -0.2687
12493TIP3   OH258969   2.391   1.537  12.201 -0.5326  0.5027  0.7640
12493TIP3    H158970   2.452   1.466  12.180 -0.9875  0.6838 -1.2058
12493TIP3    H258971   2.360   1.516  12.289  1.3113 -0.3329  1.2387
12494TIP3   OH258972   2.626   6.753   4.965  0.0221 -0.2982  0.1978
12494TIP3    H158973   2.552   6.741   5.024  0.0220 -2.7966 -0.2259
12494TIP3    H258974   2.698   6.705   5.006  0.8996  0.5858 -0.2827
12495TIP3   OH258975   3.747   5.870  13.707 -0.6271 -0.5818 -0.2794
12495TIP3    H158976   3.741   5.795  13.767  1.9616 -0.1006  0.6182
12495TIP3    H258977   3.742   5.947  13.764  0.0999 -0.0938 -0.8747
12496TIP3   OH258978   2.697   0.782  15.054  0.1795 -0.2412 -0.4714
12496TIP3    H158979   2.728   0.820  15.137  2.3175 -0.4490 -1.1724
12496TIP3    H258980   2.643   0.708  15.081  0.1267  0.2338  0.7690
12497TIP3   OH258981   1.623   1.541   5.443  0.8598 -0.1323  0.2224
12497TIP3    H158982   1.712   1.537   5.407 -0.1343 -0.8115 -2.3065
12497TIP3    H258983   1.594   1.450   5.443  0.2422  0.0693  1.2181
12498TIP3   OH258984   5.724   3.295  12.184  0.6862 -0.6495 -0.6373
12498TIP3    H158985   5.731   3.219  12.242  0.5328  0.2367  0.5607
12498TIP3    H258986   5.811   3.303  12.145  0.4237 -2.0390 -1.5608
12499TIP3   OH258987   3.494   3.303  12.060 -0.0398 -0.2885 -0.2213
12499TIP3    H158988   3.437   3.375  12.034  0.4011 -0.5104 -1.8784
12499TIP3    H258989   3.434   3.235  12.090 -0.5738  0.0486 -0.5068
12500TIP3   OH258990   3.627   3.364   5.817  0.1866 -0.4499 -0.2582
12500TIP3    H158991   3.605   3.448   5.858  0.3099 -0.2928 -0.5054
12500TIP3    H258992   3.643   3.304   5.890 -0.9573 -0.5438 -0.0689
12501TIP3   OH258993   0.823   5.439   1.780 -0.2304 -0.6298  0.9146
12501TIP3    H158994   0.860   5.380   1.846  0.2755  0.9039  2.0071
12501TIP3    H258995   0.747   5.478   1.823 -0.8554 -0.8338  0.0114
12502TIP3   OH258996   4.231   0.219  17.041  0.6890 -0.2181  0.5429
12502TIP3    H158997   4.293   0.200  16.971  0.8000  0.7379  0.3707
12502TIP3    H258998   4.168   0.147  17.038  1.3683 -0.8070  0.2399
12503TIP3   OH258999   5.657   3.980  12.304 -0.1942 -0.3507 -0.1686
12503TIP3    H159000   5.743   3.946  12.283  0.1165 -0.6737  1.5486
12503TIP3    H259001   5.596   3.929  12.250  0.4026 -2.4778  1.1270
12504TIP3   OH259002   5.327   4.431  16.547 -0.6379 -0.5224  0.5760
12504TIP3    H159003   5.273   4.505  16.519 -0.7629 -0.8724 -0.0998
12504TIP3    H259004   5.407   4.472  16.581 -0.9197 -0.0540  0.6888
12505TIP3   OH259005   1.739   0.470  17.173  0.4590  0.0394  0.2096
12505TIP3    H159006   1.676   0.524  17.126  0.3927 -0.9268 -0.8157
12505TIP3    H259007   1.802   0.442  17.106 -1.1352 -3.5831  0.1117
12506TIP3   OH259008   5.529   4.612  14.852  0.1575 -0.1910 -0.1328
12506TIP3    H159009   5.459   4.560  14.812  1.1062 -0.0927 -1.9790
12506TIP3    H259010   5.484   4.675  14.908 -1.2875  0.5283 -2.0820
12507TIP3   OH259011   3.219   4.979   0.327 -0.3704  0.1147  0.0085
12507TIP3    H159012   3.174   5.023   0.255  2.0318  2.4935 -0.1099
12507TIP3    H259013   3.312   4.997   0.312  0.2674 -0.2995  3.0691
12508TIP3   OH259014   6.800   3.587  15.192 -0.3888 -0.3538 -0.2501
12508TIP3    H159015   6.847   3.615  15.114  0.7142 -1.6644 -0.0762
12508TIP3    H259016   6.869   3.560  15.253 -1.2824 -0.3034  0.8117
12509TIP3   OH259017   5.665   2.324   1.870  0.5860  0.4276  0.1459
12509TIP3    H159018   5.667   2.265   1.795  0.9953  2.0452 -1.1629
12509TIP3    H259019   5.576   2.318   1.903  0.4492 -0.4305 -0.3787
12510TIP3   OH259020   1.304   3.523   0.735 -0.0841 -0.4481 -0.3404
12510TIP3    H159021   1.309   3.452   0.798  0.3361 -0.7788 -0.7408
12510TIP3    H259022   1.217   3.561   0.748  0.0838 -0.3821  0.5735
12511TIP3   OH259023   1.265   5.367   3.931  0.1444 -0.1591 -0.0777
12511TIP3    H159024   1.220   5.447   3.904  0.7442 -0.2707 -1.4368
12511TIP3    H259025   1.281   5.320   3.849  1.6922 -0.6797  0.5192
12512TIP3   OH259026   2.897   3.193   0.083 -0.3269 -0.6333 -0.0116
12512TIP3    H159027   2.928   3.281   0.103 -0.3757 -0.4228 -0.8222
12512TIP3    H259028   2.976   3.143   0.064 -0.1951 -1.1133  1.7219
12513TIP3   OH259029   5.809   3.163   4.397 -0.2670  0.0365 -0.2521
12513TIP3    H159030   5.752   3.095   4.362 -1.3122  1.3358 -1.1078
12513TIP3    H259031   5.806   3.233   4.332 -0.1047  1.3687  1.1441
12514TIP3   OH259032   6.418   3.366  12.135  0.2855  0.6314 -0.2160
12514TIP3    H159033   6.442   3.332  12.221 -0.2942  1.4052  0.2631
12514TIP3    H259034   6.484   3.331  12.076  1.4347  1.1312  0.7450
12515TIP3   OH259035   5.539   1.887   1.630  0.2843  0.0471  0.4776
12515TIP3    H159036   5.557   1.981   1.636 -1.3444  0.3878  0.2328
12515TIP3    H259037   5.448   1.882   1.604  0.2547 -1.6210  0.8671
12516TIP3   OH259038   6.063   1.046   2.658 -0.2993 -0.3866 -0.2522
12516TIP3    H159039   6.041   1.029   2.567 -0.3326 -2.5253  0.1235
12516TIP3    H259040   6.129   0.980   2.679  0.3303  0.6255  1.0372
12517TIP3   OH259041   4.365   1.037   4.342 -0.5650  0.2439 -0.5667
12517TIP3    H159042   4.283   1.007   4.304 -1.2107  0.4700  0.6330
12517TIP3    H259043   4.348   1.127   4.370 -0.1927 -0.0309  0.5483
12518TIP3   OH259044   1.540   5.878  12.018 -0.0691 -0.4451  0.0341
12518TIP3    H159045   1.560   5.856  11.927 -1.6305  2.7242 -1.1640
12518TIP3    H259046   1.619   5.921  12.050  0.2171 -0.8994 -0.0566
12519TIP3   OH259047   5.604   3.991   0.478  0.2744  0.0012  0.1490
12519TIP3    H159048   5.632   4.024   0.392  0.6285 -0.4750  0.0770
12519TIP3    H259049   5.544   3.920   0.457  1.7873 -1.3392  0.2716
12520TIP3   OH259050   1.569   4.539  13.353  0.4254 -0.3152  0.3529
12520TIP3    H159051   1.531   4.453  13.335  0.2441 -0.1599 -0.0106
12520TIP3    H259052   1.510   4.579  13.416 -0.6236  0.3665 -1.0407
12521TIP3   OH259053   3.734   5.515   4.249 -0.1988  0.0009 -0.1241
12521TIP3    H159054   3.700   5.497   4.336 -3.9777  2.0645 -1.0753
12521TIP3    H259055   3.775   5.601   4.256  1.3085 -0.7200  0.0660
12522TIP3   OH259056   0.812   6.185  13.472 -0.1036 -0.2093  0.1692
12522TIP3    H159057   0.902   6.153  13.476  0.5902  1.8094  1.1617
12522TIP3    H259058   0.758   6.106  13.482  1.5401 -1.3834 -0.0531
12523TIP3   OH259059   0.335   5.143   4.790  0.0728  0.2247  0.1766
12523TIP3    H159060   0.302   5.067   4.838  0.2807  1.6822  2.6631
12523TIP3    H259061   0.385   5.105   4.717  1.0744 -2.0247  1.9789
12524TIP3   OH259062   2.224   5.549  15.512  0.3545 -0.3297 -0.3163
12524TIP3    H159063   2.148   5.607  15.518 -0.2373 -1.1910  0.8812
12524TIP3    H259064   2.192   5.473  15.464  0.6003 -0.4639 -0.2665
12525TIP3   OH259065   1.317   5.527   4.171 -0.7190  0.7077  0.0856
12525TIP3    H159066   1.261   5.536   4.095  1.1294 -0.1886 -1.4277
12525TIP3    H259067   1.406   5.545   4.139  0.4932 -2.7041  1.3030
12526TIP3   OH259068   3.486   0.646   2.758 -0.0153  0.4612 -0.0796
12526TIP3    H159069   3.487   0.696   2.677 -1.6281 -0.2931 -0.5908
12526TIP3    H259070   3.440   0.701   2.821  0.5845  0.7371  0.1217
12527TIP3   OH259071   0.375   4.249   4.132  0.6253  0.4941 -0.1644
12527TIP3    H159072   0.334   4.330   4.102  1.3507  0.4546 -1.3234
12527TIP3    H259073   0.315   4.180   4.104  0.8551  0.5232 -0.7461
12528TIP3   OH259074   0.834   4.583  11.432 -0.2726  0.3152  0.0251
12528TIP3    H159075   0.762   4.617  11.485 -0.8608 -0.1120 -0.4889
12528TIP3    H259076   0.806   4.597  11.342  1.3025  2.2269 -0.1770
12529TIP3   OH259077   4.845   4.546  14.268 -0.0764 -0.0321  0.4608
12529TIP3    H159078   4.780   4.590  14.323  0.0416  0.8255 -0.0691
12529TIP3    H259079   4.856   4.606  14.193  1.3133 -0.1907  0.5448
12530TIP3   OH259080   4.783   4.829  15.725  0.0740 -0.2494 -0.0333
12530TIP3    H159081   4.760   4.784  15.644  0.2254 -0.6141  0.1259
12530TIP3    H259082   4.763   4.921  15.708  2.4639  0.0455 -1.3288
12531TIP3   OH259083   0.803   3.282  14.649  0.0021 -0.3999  0.1971
12531TIP3    H159084   0.835   3.363  14.688  1.6080 -0.4092 -1.0132
12531TIP3    H259085   0.842   3.282  14.561 -1.0048 -1.8724 -0.2616
12532TIP3   OH259086   6.531   4.834   2.823  0.5378  0.0327 -0.7116
12532TIP3    H159087   6.544   4.870   2.735 -0.4540 -0.4444 -1.0519
12532TIP3    H259088   6.600   4.769   2.832  1.8032  1.3805 -0.4254
12533TIP3   OH259089   2.741   6.679   0.335 -0.8939  0.3785 -0.1895
12533TIP3    H159090   2.652   6.712   0.323  0.3489  2.7427 -3.8010
12533TIP3    H259091   2.761   6.634   0.253  1.9075  1.6857 -0.3037
12534TIP3   OH259092   3.046   4.372  16.419  0.7333  0.0712  0.1632
12534TIP3    H159093   2.984   4.300  16.428 -0.7077  1.4161  1.1946
12534TIP3    H259094   3.041   4.420  16.501  0.4339  2.3253 -1.1090
12535TIP3   OH259095   3.317   5.538  15.210 -0.3245 -0.4547 -0.1905
12535TIP3    H159096   3.260   5.611  15.186  0.8991  1.2362  1.8673
12535TIP3    H259097   3.370   5.571  15.282  1.8346 -2.6550 -0.6760
12536TIP3   OH259098   4.930   2.518  13.953  0.0049 -0.3633 -0.0687
12536TIP3    H159099   4.857   2.504  13.893  0.9435 -0.1208 -1.2854
12536TIP3    H259100   4.995   2.565  13.901  1.4690 -1.5399  0.6571
12537TIP3   OH259101   0.409   6.193   3.022  0.3984  0.2288  0.1839
12537TIP3    H159102   0.324   6.155   3.044  0.5357 -1.0121 -1.3273
12537TIP3    H259103   0.468   6.119   3.018  1.6698  1.1384  1.6513
12538TIP3   OH259104   1.346   4.983   3.808  0.1081 -1.3562  0.3238
12538TIP3    H159105   1.434   4.988   3.845 -0.4216 -1.3288  1.6124
12538TIP3    H259106   1.288   5.001   3.882 -0.9979 -2.0009 -0.3729
12539TIP3   OH259107   1.354   1.197   0.775  0.0552  0.4284  0.2429
12539TIP3    H159108   1.445   1.197   0.805  0.1845 -3.0659 -0.0210
12539TIP3    H259109   1.354   1.141   0.697 -2.2138  0.9247 -0.1454
12540TIP3   OH259110   2.544   0.698  12.011 -0.2640 -0.0579  0.0429
12540TIP3    H159111   2.637   0.676  11.999  0.0712  0.5573  1.3027
12540TIP3    H259112   2.518   0.741  11.930  0.3274 -1.0101 -0.6492
12541TIP3   OH259113   4.870   0.817   3.208  0.1542  0.2900 -0.7411
12541TIP3    H159114   4.937   0.842   3.271  0.7959 -0.0630 -1.2758
12541TIP3    H259115   4.787   0.832   3.254  0.6045  0.2803  0.0890
12542TIP3   OH259116   5.074   2.749   0.081 -0.3121 -0.3509  0.2543
12542TIP3    H159117   5.143   2.737   0.016 -0.0856  0.6619  0.2997
12542TIP3    H259118   5.097   2.831   0.126 -0.2735 -1.1956  1.8284
12543TIP3   OH259119   5.052   2.415   2.403 -0.2984  0.4174  0.1277
12543TIP3    H159120   4.987   2.485   2.396 -1.7053 -0.7881  1.0755
12543TIP3    H259121   5.074   2.395   2.312 -0.2843  1.6967 -0.1694
12544TIP3   OH259122   2.824   5.021   4.955 -0.3637 -0.6751  0.4613
12544TIP3    H159123   2.776   5.101   4.978  0.1795 -0.7254  1.8347
12544TIP3    H259124   2.808   5.009   4.861  0.3488  1.5916  0.0182
12545TIP3   OH259125   3.018   4.046   3.445  0.1524 -0.1188  0.6755
12545TIP3    H159126   3.014   4.141   3.435  1.0196 -0.2867 -1.6150
12545TIP3    H259127   3.099   4.030   3.493  0.2616  0.2818  0.6288
12546TIP3   OH259128   3.740   5.895  14.991 -0.0785 -0.1184 -0.1806
12546TIP3    H159129   3.822   5.932  14.958  0.3326 -0.7075  0.1675
12546TIP3    H259130   3.750   5.801  14.981 -0.0867 -0.2877  1.2883
12547TIP3   OH259131   5.549   4.971  16.516  0.1624 -0.1620  0.2085
12547TIP3    H159132   5.538   5.028  16.440 -0.8238 -0.5145  0.0785
12547TIP3    H259133   5.533   5.028  16.591  1.4129  0.2525  0.1817
12548TIP3   OH259134   2.850   2.390   4.640 -0.4678 -0.1226 -0.0791
12548TIP3    H159135   2.780   2.401   4.705  0.2428  1.9363  0.3885
12548TIP3    H259136   2.816   2.430   4.560 -0.6521 -1.0617 -0.4758
12549TIP3   OH259137   5.794   3.753   5.731  0.1663  0.6279  0.2292
12549TIP3    H159138   5.861   3.684   5.726 -0.8441 -0.4070  0.6878
12549TIP3    H259139   5.755   3.742   5.818 -3.0428 -1.1365 -1.3243
12550TIP3   OH259140   5.348   3.091  16.912 -0.0569 -0.1177  0.2608
12550TIP3    H159141   5.253   3.082  16.912 -0.0719  0.0336  0.1873
12550TIP3    H259142   5.364   3.184  16.894  0.0834  0.0931  1.4192
12551TIP3   OH259143   1.501   5.678  16.766  0.0971  0.0011  0.0028
12551TIP3    H159144   1.551   5.724  16.834  0.6353  0.8714 -0.9569
12551TIP3    H259145   1.442   5.620  16.814  1.7812 -0.7760  1.1556
12552TIP3   OH259146   1.676   0.722  11.222  0.0383  0.2903  0.3024
12552TIP3    H159147   1.735   0.670  11.167 -0.4266 -2.4065  2.2323
12552TIP3    H259148   1.731   0.753  11.294 -0.4712 -0.6361  1.1000
12553TIP3   OH259149   4.061   1.791  14.196  0.4464 -0.1791 -0.0726
12553TIP3    H159150   4.000   1.756  14.261 -0.5421  0.7506 -0.4744
12553TIP3    H259151   4.061   1.726  14.125 -0.1590 -0.1395 -0.1124
12554TIP3   OH259152   0.625   0.646  17.043  0.0081 -0.3475 -1.1936
12554TIP3    H159153   0.659   0.561  17.014 -0.5261 -0.4809 -1.4275
12554TIP3    H259154   0.701   0.704  17.040  0.5762 -1.0293 -0.1919
12555TIP3   OH259155   1.310   4.799  16.877 -0.0815  0.5933 -0.5495
12555TIP3    H159156   1.327   4.751  16.958 -1.4804 -0.0383 -0.6120
12555TIP3    H259157   1.352   4.748  16.809  1.0224  1.0779 -0.2474
12556TIP3   OH259158   5.444   2.294   5.953 -0.0517  0.4678  0.7319
12556TIP3    H159159   5.491   2.377   5.958 -0.4506  0.6411  1.9305
12556TIP3    H259160   5.425   2.282   5.860 -0.9270  2.2416  0.6630
12557TIP3   OH259161   4.475   6.070   3.293  0.3338 -0.0063  0.1485
12557TIP3    H159162   4.413   6.006   3.257  0.0400 -0.7909  2.0363
12557TIP3    H259163   4.541   6.018   3.337  2.2170  0.8473 -1.5700
12558TIP3   OH259164   4.364   2.592   3.094 -0.8413  0.7619  0.1027
12558TIP3    H159165   4.385   2.499   3.086 -0.1744  0.9594 -0.4899
12558TIP3    H259166   4.449   2.636   3.100 -1.1542  1.3228  0.5137
12559TIP3   OH259167   1.846   1.924   0.980  0.3248  0.3340 -0.1371
12559TIP3    H159168   1.851   1.925   0.884  1.1537 -0.4827 -0.1066
12559TIP3    H259169   1.883   2.009   1.006  0.2604  0.4872 -0.5326
12560TIP3   OH259170   5.332   1.829  16.038  0.9157  0.3387 -0.3218
12560TIP3    H159171   5.399   1.810  16.104 -0.8482  0.1282  1.4855
12560TIP3    H259172   5.320   1.746  15.992 -0.8734 -0.7695  2.0123
12561TIP3   OH259173   3.964   2.734  11.455  0.2907 -0.2303  0.3953
12561TIP3    H159174   3.977   2.705  11.365 -1.8681 -0.0507 -0.0144
12561TIP3    H259175   3.949   2.828  11.448 -0.2500 -0.2743  0.9023
12562TIP3   OH259176   3.905   2.681   1.243  0.1635 -0.3431  0.4577
12562TIP3    H159177   3.999   2.670   1.257  0.1206  0.3792  1.3081
12562TIP3    H259178   3.884   2.765   1.283 -0.8323 -0.4525  0.1791
12563TIP3   OH259179   4.718   4.717  14.090  0.1533 -0.2249 -0.3854
12563TIP3    H159180   4.729   4.640  14.034 -0.4003 -0.2282 -0.5016
12563TIP3    H259181   4.635   4.755  14.060 -2.1603 -2.3413  2.9077
12564TIP3   OH259182   2.548   3.318   5.477 -0.4066  0.0085 -0.1345
12564TIP3    H159183   2.609   3.318   5.550 -0.4430  2.8786 -0.0484
12564TIP3    H259184   2.476   3.375   5.505 -0.3793  1.2261 -2.4053
12565TIP3   OH259185   1.627   6.237  15.057  0.4670 -0.0075 -0.2757
12565TIP3    H159186   1.644   6.250  15.151 -0.6583  0.4567 -0.1251
12565TIP3    H259187   1.667   6.314  15.015 -0.8018  0.8346  0.0280
12566TIP3   OH259188   2.421   0.444   0.214  0.0951  0.3117 -0.4578
12566TIP3    H159189   2.377   0.409   0.292 -1.3510  0.8527 -1.0098
12566TIP3    H259190   2.513   0.453   0.241  0.3130 -2.8059  0.0485
12567TIP3   OH259191   4.365   1.637  15.666  0.5476 -0.2789  0.0395
12567TIP3    H159192   4.299   1.680  15.721  2.7059  2.0623  0.8881
12567TIP3    H259193   4.409   1.576  15.726  0.0706 -0.8585 -0.1927
12568TIP3   OH259194   1.153   5.701  15.843 -0.2599 -0.0179  1.0215
12568TIP3    H159195   1.120   5.789  15.863 -1.1042 -0.0288 -0.2584
12568TIP3    H259196   1.081   5.643  15.869 -1.4631 -0.0271 -2.0580
12569TIP3   OH259197   6.021   5.985   4.251 -0.0948  0.5546  0.1153
12569TIP3    H159198   5.937   6.001   4.207 -0.9015 -3.1406  0.1623
12569TIP3    H259199   6.087   5.999   4.183 -1.0605 -0.8623 -1.1296
12570TIP3   OH259200   6.291   3.913  12.102  0.0436 -0.2070  0.0614
12570TIP3    H159201   6.269   3.839  12.158  2.6680  0.3140  1.8536
12570TIP3    H259202   6.251   3.989  12.145  0.6900 -0.0345  0.3648
12571TIP3   OH259203   5.316   0.566  11.836  0.4388 -0.5791  0.0097
12571TIP3    H159204   5.389   0.610  11.879 -0.4283  0.1158  0.7662
12571TIP3    H259205   5.308   0.482  11.882 -0.2503  0.0077  0.9642
12572TIP3   OH259206   3.444   0.272   1.584  0.7372 -0.2671  0.7213
12572TIP3    H159207   3.492   0.341   1.629  0.8547 -1.0587  1.8221
12572TIP3    H259208   3.364   0.261   1.636  0.7266 -0.9702  0.5610
12573TIP3   OH259209   5.760   3.075   2.828  0.2263  0.0023 -0.0801
12573TIP3    H159210   5.740   3.137   2.898 -2.3702 -1.2892  0.3988
12573TIP3    H259211   5.756   3.127   2.748  2.6797  1.3745  0.6577
12574TIP3   OH259212   2.519   5.342   2.903 -0.3788  0.2881  0.1918
12574TIP3    H159213   2.432   5.372   2.929  0.4533  1.7861  1.3259
12574TIP3    H259214   2.575   5.365   2.977  1.0251 -0.4549 -0.6264
12575TIP3   OH259215   3.173   4.760   5.549  0.8517  0.1852 -0.9006
12575TIP3    H159216   3.137   4.711   5.475  0.6096 -1.6008  0.3647
12575TIP3    H259217   3.168   4.699   5.623 -1.2781  2.7624  1.1811
12576TIP3   OH259218   1.014   4.816  15.173  0.3525 -0.1818 -0.1532
12576TIP3    H159219   0.931   4.770  15.163  0.4524  0.0109 -2.0304
12576TIP3    H259220   1.068   4.784  15.101  2.4923 -1.5029  1.9669
12577TIP3   OH259221   6.457   2.597   0.482  0.2038  0.0044 -0.0936
12577TIP3    H159222   6.387   2.599   0.417  1.4178  1.0512 -1.4216
12577TIP3    H259223   6.442   2.675   0.536  0.3998  0.2884 -0.4468
12578TIP3   OH259224   4.570   0.638   0.058  0.0272  0.3670  0.1031
12578TIP3    H159225   4.616   0.696   0.118 -0.0970  0.4404  0.1279
12578TIP3    H259226   4.508   0.591   0.113  0.5126 -0.1934  0.1730
12579TIP3   OH259227   3.606   1.741  15.828 -0.5781 -0.0947  0.8302
12579TIP3    H159228   3.579   1.667  15.774 -1.5894  0.3441  0.7184
12579TIP3    H259229   3.642   1.805  15.766 -0.3213 -0.2218  0.8505
12580TIP3   OH259230   1.757   1.440  15.236  0.3985 -0.0634  0.0518
12580TIP3    H159231   1.768   1.347  15.254  2.1832 -0.1704 -1.4667
12580TIP3    H259232   1.668   1.447  15.201  0.3295 -1.2147 -0.0149
12581TIP3   OH259233   4.581   2.110  15.095  0.4508 -0.2508  0.2535
12581TIP3    H159234   4.553   2.021  15.117 -0.3793 -0.0642 -0.0181
12581TIP3    H259235   4.503   2.164  15.112  0.1797  0.0780 -1.8563
12582TIP3   OH259236   2.851   1.978  11.615  0.0948 -0.0729 -0.2579
12582TIP3    H159237   2.854   1.929  11.533  2.3038  0.6104 -0.6254
12582TIP3    H259238   2.870   1.914  11.683  1.6542 -0.0043 -0.6154
12583TIP3   OH259239   5.265   6.436  15.253 -0.4055 -0.7152 -0.3620
12583TIP3    H159240   5.209   6.495  15.303  1.0072 -0.4416  0.9313
12583TIP3    H259241   5.238   6.348  15.279 -0.5718 -0.5878 -0.1121
12584TIP3   OH259242   3.579   3.497  17.249  0.3122 -0.4615 -0.2739
12584TIP3    H159243   3.490   3.479  17.281 -0.0471 -0.8229 -1.4636
12584TIP3    H259244   3.602   3.421  17.196  0.7670  0.2860 -1.1612
12585TIP3   OH259245   2.716   4.597  12.110 -0.5775 -0.4128  0.2309
12585TIP3    H159246   2.781   4.595  12.180  0.7115  0.7711 -0.8915
12585TIP3    H259247   2.638   4.636  12.151 -0.5591 -1.7209  1.5534
12586TIP3   OH259248   0.587   2.591  12.532 -0.0711  0.6107 -0.2189
12586TIP3    H159249   0.646   2.549  12.469  1.8187  1.7285  0.7748
12586TIP3    H259250   0.538   2.518  12.571 -0.1148 -0.2289 -1.8108
12587TIP3   OH259251   4.360   1.797  16.077 -0.0650  0.2319 -0.1060
12587TIP3    H159252   4.360   1.844  16.161 -1.0704  1.8838 -0.9991
12587TIP3    H259253   4.416   1.850  16.020 -1.0887  0.2868 -1.0867
12588TIP3   OH259254   3.837   2.411  12.035 -0.3316 -0.0986 -0.4928
12588TIP3    H159255   3.791   2.404  11.951 -1.7858 -0.4135  0.2988
12588TIP3    H259256   3.821   2.327  12.078  1.3751 -0.3685 -0.3667
12589TIP3   OH259257   6.488   3.263   2.104  0.0475 -0.9230 -0.1782
12589TIP3    H159258   6.556   3.225   2.161  0.8082  0.8703  0.1386
12589TIP3    H259259   6.536   3.315   2.040 -1.0550  1.5361  0.9165
12590TIP3   OH259260   1.244   2.157  11.741 -0.3460  0.0691  0.7807
12590TIP3    H159261   1.267   2.064  11.741 -1.1972 -0.1454  0.8159
12590TIP3    H259262   1.328   2.202  11.741  0.0836 -0.6842 -1.7677
12591TIP3   OH259263   5.394   6.115  15.676  0.1140  0.5430  0.4363
12591TIP3    H159264   5.438   6.151  15.599 -0.1813 -1.2242 -0.5888
12591TIP3    H259265   5.465   6.088  15.734  0.3811 -0.3223 -0.2785
12592TIP3   OH259266   1.635   4.042  11.564 -0.0265 -0.0030 -0.3529
12592TIP3    H159267   1.589   4.117  11.528  0.7671 -0.1205 -1.6379
12592TIP3    H259268   1.712   4.031  11.508  0.4062 -1.1476  0.4309
12593TIP3   OH259269   6.797   0.221   4.792  0.2906  0.2952 -0.0268
12593TIP3    H159270   6.863   0.228   4.861  0.4303  0.1292 -0.1409
12593TIP3    H259271   6.840   0.170   4.723  0.3424  0.9367 -0.4719
12594TIP3   OH259272   0.593   5.512  12.813  0.1060  0.7861 -0.6851
12594TIP3    H159273   0.584   5.584  12.875 -0.7431 -0.7518  1.0212
12594TIP3    H259274   0.633   5.552  12.735 -1.6495  3.3787 -0.3206
12595TIP3   OH259275   3.839   0.622  11.161 -0.4747  1.1080 -0.0407
12595TIP3    H159276   3.879   0.702  11.127 -0.1584  0.9979  0.0638
12595TIP3    H259277   3.833   0.564  11.086  0.1343  0.9002  0.0634
12596TIP3   OH259278   3.129   0.976  14.184  0.2859  0.5817  0.2274
12596TIP3    H159279   3.035   0.971  14.200  0.0420 -0.1423 -1.3670
12596TIP3    H259280   3.164   0.893  14.218  0.7183  1.8779  3.0738
12597TIP3   OH259281   6.356   6.625   4.204  0.3222  0.2479 -0.0572
12597TIP3    H159282   6.375   6.543   4.250 -1.1812 -0.6391 -0.9743
12597TIP3    H259283   6.414   6.624   4.128 -0.3388 -0.3965 -0.5541
12598TIP3   OH259284   0.950   3.733  16.196  0.2769 -0.4734  0.1437
12598TIP3    H159285   1.004   3.681  16.137 -0.2490  0.0136 -0.7760
12598TIP3    H259286   0.905   3.669  16.251  0.7734 -0.9244  0.0214
12599TIP3   OH259287   3.275   6.101  16.575  0.5101 -0.0317 -0.5806
12599TIP3    H159288   3.288   6.080  16.482 -0.7475 -1.8665 -0.3692
12599TIP3    H259289   3.188   6.139  16.580  0.5739  0.0611 -0.1613
12600TIP3   OH259290   4.023   2.293  11.317  0.3453  0.0544 -0.9694
12600TIP3    H159291   3.958   2.304  11.386 -1.4319 -0.9007 -2.4255
12600TIP3    H259292   4.026   2.379  11.273  0.4470  0.2428 -0.5985
12601TIP3   OH259293   2.757   6.005  14.123  0.4597  0.0842  0.0777
12601TIP3    H159294   2.669   5.975  14.147 -0.1807  0.5667 -1.5923
12601TIP3    H259295   2.775   6.076  14.184 -0.9997  1.0681 -0.5974
12602TIP3   OH259296   1.595   0.311  13.770 -0.1769 -0.4628 -0.1139
12602TIP3    H159297   1.638   0.232  13.804 -1.4300 -2.5927 -3.2104
12602TIP3    H259298   1.664   0.359  13.725  0.2021 -0.7526  0.1523
12603TIP3   OH259299   0.784   2.779   2.215  0.4175  0.1815  0.2394
12603TIP3    H159300   0.714   2.843   2.225  1.7052  2.0122 -1.8627
12603TIP3    H259301   0.828   2.778   2.300 -0.9362  0.4959  0.9542
12604TIP3   OH259302   6.718   4.647  11.492 -0.1161 -0.4220  0.3025
12604TIP3    H159303   6.775   4.587  11.539  0.3240  1.1277  1.7977
12604TIP3    H259304   6.754   4.734  11.511  0.6195  0.2422 -3.5743
12605TIP3   OH259305   0.891   4.803   0.971  0.8051  0.1219  0.0483
12605TIP3    H159306   0.946   4.771   0.899  1.3950  0.9209  0.1334
12605TIP3    H259307   0.870   4.724   1.022  1.4750 -0.2607 -0.2603
12606TIP3   OH259308   0.864   2.513  10.703 -0.4450 -0.2788  0.5327
12606TIP3    H159309   0.896   2.433  10.662 -2.3076 -1.1199  0.6435
12606TIP3    H259310   0.770   2.496  10.717 -0.7396  1.7098  1.0553
12607TIP3   OH259311   4.381   0.019  13.206  0.1960  0.4393  0.1876
12607TIP3    H159312   4.317   0.077  13.246 -1.2736 -1.8725  1.2996
12607TIP3    H259313   4.454   0.016  13.268 -0.6956 -0.6212  1.2084
12608TIP3   OH259314   5.390   3.562   5.485 -0.0123 -0.4684 -0.1401
12608TIP3    H159315   5.387   3.652   5.451 -0.5935 -0.7778 -0.9147
12608TIP3    H259316   5.471   3.559   5.536  0.8039  0.0581 -1.3732
12609TIP3   OH259317   1.404   0.081  12.899  0.5681 -0.7347 -0.1126
12609TIP3    H159318   1.315   0.091  12.865  0.5525 -0.3662  0.0267
12609TIP3    H259319   1.438   0.170  12.902  1.2483 -0.9692 -0.9744
12610TIP3   OH259320   4.299   0.593   5.485  0.3638 -0.6329  0.5072
12610TIP3    H159321   4.323   0.679   5.450 -0.4820 -0.2792  0.7650
12610TIP3    H259322   4.257   0.548   5.413  0.9970 -0.9165  0.3111
12611TIP3   OH259323   3.146   0.645  15.263 -0.2930  0.0260  0.1999
12611TIP3    H159324   3.129   0.672  15.173 -0.5221 -0.8800 -0.0326
12611TIP3    H259325   3.208   0.710  15.297 -1.4732  1.3283 -0.0749
12612TIP3   OH259326   0.771   2.781   5.840 -0.0275  0.0424  0.0402
12612TIP3    H159327   0.774   2.877   5.833 -1.2431 -0.0533 -2.2273
12612TIP3    H259328   0.854   2.752   5.804 -0.1611  0.1894 -0.3841
12613TIP3   OH259329   6.791   1.382  11.706  0.0632 -0.3029  0.3331
12613TIP3    H159330   6.741   1.398  11.626 -2.6451 -0.1644  2.0063
12613TIP3    H259331   6.780   1.289  11.724 -0.7703  0.0065  1.4686
12614TIP3   OH259332   5.397   6.133  11.062 -0.2612 -0.0889 -0.5655
12614TIP3    H159333   5.391   6.207  11.001 -1.6374  0.0362 -0.2866
12614TIP3    H259334   5.391   6.055  11.007  0.2752  0.0146 -0.7698
12615TIP3   OH259335   6.695   0.158  14.053 -0.3424  0.0369  0.0568
12615TIP3    H159336   6.742   0.155  14.136  0.8363 -0.6965 -0.6233
12615TIP3    H259337   6.704   0.070  14.017 -2.0861 -0.0645 -0.1735
12616TIP3   OH259338   5.514   0.696  10.409  0.3361 -0.6607  0.9118
12616TIP3    H159339   5.588   0.641  10.436  0.1855 -0.9252  0.7744
12616TIP3    H259340   5.542   0.785  10.431 -0.0870 -0.9396  2.6547
12617TIP3   OH259341   3.550   2.017   2.317  0.2128 -0.6555 -0.0570
12617TIP3    H159342   3.579   2.107   2.328  0.2167 -0.6071 -0.4711
12617TIP3    H259343   3.611   1.966   2.371 -0.2432 -0.3411  0.7742
12618TIP3   OH259344   1.911   2.734  11.123 -0.2531  0.1498 -0.2153
12618TIP3    H159345   1.910   2.735  11.028  1.0383  0.5939 -0.2363
12618TIP3    H259346   1.925   2.825  11.149 -1.8810  0.2313  0.4350
12619TIP3   OH259347   0.204   4.572  13.044 -0.3938  0.2686 -0.1819
12619TIP3    H159348   0.161   4.641  13.093  0.6331  0.4603  0.4735
12619TIP3    H259349   0.145   4.497  13.051 -0.9353  0.7228  0.1196
12620TIP3   OH259350   2.508   2.439   2.742 -0.1952 -0.2903 -0.8009
12620TIP3    H159351   2.489   2.417   2.650  2.7888 -3.3815 -0.7711
12620TIP3    H259352   2.443   2.391   2.792 -0.7453 -0.0012 -1.2346
12621TIP3   OH259353   2.675   6.124   5.320  0.1203 -0.4402  0.5611
12621TIP3    H159354   2.682   6.121   5.415 -0.8137 -0.9419  0.6195
12621TIP3    H259355   2.582   6.143   5.303  0.4649  0.5944 -0.2346
12622TIP3   OH259356   0.399   1.426  16.694 -0.2503 -0.4178 -0.4274
12622TIP3    H159357   0.328   1.408  16.631 -2.4469 -1.5799  2.2990
12622TIP3    H259358   0.367   1.499  16.747  1.8949  1.0355 -1.0334
12623TIP3   OH259359   1.343   5.906  16.772  0.3501  0.0162  0.0534
12623TIP3    H159360   1.414   5.843  16.776 -0.0133 -0.3299  1.1713
12623TIP3    H259361   1.333   5.925  16.679  2.2564  0.4872 -0.0657
12624TIP3   OH259362   3.632   5.036   2.825  0.6090 -0.4039  0.4249
12624TIP3    H159363   3.688   4.961   2.809  0.4170 -0.4685  0.0364
12624TIP3    H259364   3.692   5.109   2.837  0.7557  0.1100 -2.9699
12625TIP3   OH259365   5.038   4.619  12.592  0.3224  0.2452 -0.3279
12625TIP3    H159366   5.117   4.666  12.620  0.8054 -1.5418  1.4537
12625TIP3    H259367   5.055   4.596  12.501  1.1607  1.3052 -0.4554
12626TIP3   OH259368   3.089   1.238  14.750  0.0290 -0.5779  0.0846
12626TIP3    H159369   3.114   1.235  14.843  1.0006  1.9239 -0.0559
12626TIP3    H259370   3.167   1.210  14.703 -0.8684 -3.1072  0.0365
12627TIP3   OH259371   1.363   3.152   6.206 -0.3522 -0.4799 -0.2033
12627TIP3    H159372   1.444   3.201   6.215  0.1693 -1.5864  1.1640
12627TIP3    H259373   1.305   3.189   6.272 -0.6373 -0.3789 -0.5063
12628TIP3   OH259374   1.347   6.184  11.197 -0.2190  0.6957 -0.4755
12628TIP3    H159375   1.275   6.236  11.232 -0.1362  1.0614 -0.8387
12628TIP3    H259376   1.363   6.221  11.110  0.3502  0.5673 -0.4287
12629TIP3   OH259377   2.502   2.268  12.786  0.8157 -0.3177 -0.1079
12629TIP3    H159378   2.559   2.328  12.737  1.4060 -0.2797  0.6109
12629TIP3    H259379   2.418   2.314  12.790  0.7558 -0.3223 -1.0800
12630TIP3   OH259380   0.504   5.304  17.175  0.1382  0.3947  0.1491
12630TIP3    H159381   0.475   5.217  17.203  0.8960  0.1749  0.2522
12630TIP3    H259382   0.509   5.299  17.080  3.8897 -0.8680  0.3460
12631TIP3   OH259383   3.709   4.357   4.143  0.2480 -0.1214 -0.0015
12631TIP3    H159384   3.803   4.366   4.127  0.3395 -2.7543 -1.2263
12631TIP3    H259385   3.699   4.370   4.237  1.9532 -0.5991  0.2614
12632TIP3   OH259386   4.289   4.207   5.082  0.6547 -0.7133 -0.4554
12632TIP3    H159387   4.274   4.236   4.992 -0.5211  0.1706  0.0075
12632TIP3    H259388   4.226   4.256   5.134  1.2263 -1.3163  0.8445
12633TIP3   OH259389   2.800   4.406  12.955  0.0609  0.3924  0.3049
12633TIP3    H159390   2.883   4.454  12.961 -0.2945  1.1609 -0.7115
12633TIP3    H259391   2.821   4.317  12.984  1.8726 -0.1345 -2.4245
12634TIP3   OH259392   3.781   2.620  14.657  0.2681 -0.1771  0.2112
12634TIP3    H159393   3.747   2.667  14.581  1.3905  0.2802 -0.0317
12634TIP3    H259394   3.833   2.686  14.704  1.3894 -1.0133  0.1708
12635TIP3   OH259395   5.352   3.346   4.393  0.4779  0.3204  0.5833
12635TIP3    H159396   5.344   3.441   4.402  1.1713  0.4847 -0.4394
12635TIP3    H259397   5.420   3.333   4.326  1.1118 -0.9102  1.4306
12636TIP3   OH259398   3.590   4.051   4.209  0.3575 -0.5331 -0.2906
12636TIP3    H159399   3.630   4.128   4.250 -0.8083 -0.7481  1.3084
12636TIP3    H259400   3.657   4.018   4.150  1.9605  0.0259  1.1644
12637TIP3   OH259401   6.509   2.323   3.707  0.5488  0.1291 -0.7163
12637TIP3    H159402   6.485   2.242   3.751 -0.9117  1.6491  1.4037
12637TIP3    H259403   6.507   2.389   3.776 -0.3988  2.3336 -2.7884
12638TIP3   OH259404   3.194   5.388  10.609 -0.5663 -0.0079 -0.0738
12638TIP3    H159405   3.288   5.392  10.592 -0.5894  1.0491  0.0014
12638TIP3    H259406   3.178   5.296  10.631  0.0349 -0.7216 -2.3895
12639TIP3   OH259407   5.071   0.947  13.956  0.3029  0.0008 -0.1243
12639TIP3    H159408   5.126   0.885  13.908  0.1793  1.2481 -1.9505
12639TIP3    H259409   4.986   0.942  13.913  0.0730  0.8493  0.2152
12640TIP3   OH259410   0.897   5.263  13.552  0.2550 -0.1301  0.2301
12640TIP3    H159411   0.838   5.280  13.626 -0.1333 -1.8072  0.3299
12640TIP3    H259412   0.842   5.218  13.488  1.1895 -0.9175 -0.0418
12641TIP3   OH259413   1.830   5.572   2.607 -0.0884  0.1466 -0.1746
12641TIP3    H159414   1.766   5.607   2.545 -1.8127  0.4224  1.6883
12641TIP3    H259415   1.827   5.477   2.594  1.1114  0.3348 -1.9484
12642TIP3   OH259416   1.170   1.311  13.401  0.1503 -0.1035  0.2241
12642TIP3    H159417   1.234   1.285  13.468  1.5185 -1.6990 -1.6519
12642TIP3    H259418   1.193   1.259  13.325 -1.6657  1.3732 -1.3741
12643TIP3   OH259419   1.268   6.003   1.012 -0.8300  0.6096  0.5768
12643TIP3    H159420   1.302   5.965   0.931 -0.4686  2.2729 -0.0678
12643TIP3    H259421   1.333   5.980   1.078 -1.7709 -1.8834  0.6883
12644TIP3   OH259422   6.196   0.517  15.988 -0.1734  0.8506  0.1168
12644TIP3    H159423   6.248   0.451  16.032  0.6544 -0.1820 -2.3660
12644TIP3    H259424   6.107   0.482  15.989  0.0534  0.2628 -0.1082
12645TIP3   OH259425   2.136   3.414   5.354 -0.4160  0.0637 -0.0478
12645TIP3    H159426   2.192   3.358   5.409 -0.4008 -0.3653 -0.4960
12645TIP3    H259427   2.196   3.475   5.312 -0.1184 -1.1989 -1.4969
12646TIP3   OH259428   4.959   6.716   4.311 -0.2375  0.2716 -0.3730
12646TIP3    H159429   4.977   6.808   4.291  0.2300  0.2712  0.0119
12646TIP3    H259430   4.941   6.716   4.405  4.4276 -0.6345  0.6811
12647TIP3   OH259431   6.763   4.441  14.803 -0.2893  0.0712 -0.0158
12647TIP3    H159432   6.743   4.395  14.722 -1.3583 -2.6707  1.7370
12647TIP3    H259433   6.854   4.420  14.820 -0.6907 -1.2382  0.6246
12648TIP3   OH259434   6.429   5.489  12.146 -0.2047 -0.1535  0.1160
12648TIP3    H159435   6.380   5.408  12.155  1.4919 -1.1372  0.5536
12648TIP3    H259436   6.368   5.557  12.177 -0.9885 -1.4451  1.4754
12649TIP3   OH259437   0.264   5.508  14.264 -0.2952  0.2635  0.2258
12649TIP3    H159438   0.317   5.583  14.289 -0.2824 -0.3859  2.2636
12649TIP3    H259439   0.196   5.504  14.330 -1.7699 -0.0570 -1.2878
12650TIP3   OH259440   0.843   4.899   3.546 -0.2422 -0.2356  0.8334
12650TIP3    H159441   0.763   4.846   3.545 -1.2372  1.2297 -0.7678
12650TIP3    H259442   0.814   4.986   3.518  1.6801  0.6843  1.6178
12651TIP3   OH259443   0.324   2.287  11.594 -0.4952  0.1447  0.3038
12651TIP3    H159444   0.397   2.295  11.533 -0.9658  0.6192 -0.2030
12651TIP3    H259445   0.249   2.264  11.539 -1.3658  2.5460  0.4073
12652TIP3   OH259446   0.676   5.608   1.966 -0.9710  0.1629 -0.0867
12652TIP3    H159447   0.707   5.698   1.973  0.4974 -0.1262 -2.3942
12652TIP3    H259448   0.581   5.615   1.959 -1.0450  1.3868  1.9169
12653TIP3   OH259449   5.112   0.657  14.881  0.2850  0.0831 -0.3197
12653TIP3    H159450   5.177   0.679  14.947 -0.6610  1.5131  0.1498
12653TIP3    H259451   5.162   0.615  14.811  1.3743 -0.9025  1.0354
12654TIP3   OH259452   2.200   6.011  17.106 -0.0824  0.4000  0.5506
12654TIP3    H159453   2.195   5.946  17.177  0.3725  0.8843  1.0305
12654TIP3    H259454   2.286   6.050  17.116 -0.1315  0.6729 -0.1001
12655TIP3   OH259455   6.376   0.774  16.772 -0.0969 -0.0793 -0.1842
12655TIP3    H159456   6.368   0.721  16.692 -0.1121  0.2276 -0.3882
12655TIP3    H259457   6.431   0.721  16.830 -1.1424 -0.8829  0.0934
12656TIP3   OH259458   2.391   4.333  15.686  0.3986 -0.1012 -0.2961
12656TIP3    H159459   2.333   4.294  15.620  0.5089  0.0307 -0.4723
12656TIP3    H259460   2.369   4.288  15.767 -0.9599  0.9488 -0.0719
12657TIP3   OH259461   6.455   1.945  11.913 -0.0301 -0.2151  0.1555
12657TIP3    H159462   6.536   1.898  11.893  1.3901  1.5255  1.5905
12657TIP3    H259463   6.399   1.880  11.954 -0.2530 -2.0142 -2.8196
12658TIP3   OH259464   2.072   0.800  11.397 -0.2641  0.1614 -0.2087
12658TIP3    H159465   2.090   0.707  11.385 -0.8286 -0.0777  0.7485
12658TIP3    H259466   1.978   0.805  11.413 -0.1047  0.7947  0.5989
12659TIP3   OH259467   2.848   2.716   0.847 -0.5126  0.1148 -0.2352
12659TIP3    H159468   2.929   2.735   0.800 -0.3040 -0.2458 -0.0237
12659TIP3    H259469   2.841   2.785   0.913 -0.2790  0.0397 -0.1313
12660TIP3   OH259470   1.831   0.597  14.911  0.1608  0.0259 -0.0650
12660TIP3    H159471   1.905   0.624  14.966  1.5523 -0.5194 -1.6263
12660TIP3    H259472   1.778   0.542  14.968  0.6864  0.8187  1.2289
12661TIP3   OH259473   0.714   0.617  14.093 -0.1953  0.0837  0.4888
12661TIP3    H159474   0.740   0.565  14.016 -0.6003  0.1179  0.3280
12661TIP3    H259475   0.624   0.589  14.111 -1.2610  2.3709 -0.9909
12662TIP3   OH259476   0.939   1.891  11.272 -0.1490  0.0015 -0.4129
12662TIP3    H159477   0.885   1.919  11.346  0.8853  1.2603 -0.1174
12662TIP3    H259478   0.882   1.904  11.196 -1.6502 -2.4282  0.2212
12663TIP3   OH259479   4.542   2.416   0.381 -0.0075  0.1403  0.0274
12663TIP3    H159480   4.474   2.348   0.378 -0.5052  0.6953 -1.5054
12663TIP3    H259481   4.497   2.497   0.356  0.7207  0.9423  1.2466
12664TIP3   OH259482   2.665   1.586   1.291 -0.8772 -0.0361 -0.1676
12664TIP3    H159483   2.708   1.502   1.303 -0.5085  0.0920 -0.5951
12664TIP3    H259484   2.637   1.586   1.200 -1.0607  0.2231 -0.1121
12665TIP3   OH259485   1.616   3.737   1.498 -0.3379 -0.3098 -0.3950
12665TIP3    H159486   1.712   3.737   1.495 -0.3286  0.6419 -0.3478
12665TIP3    H259487   1.592   3.646   1.482  0.5367 -0.3121 -1.9025
12666TIP3   OH259488   1.469   0.880   1.061  0.6474 -0.1215 -0.1072
12666TIP3    H159489   1.399   0.936   1.027 -1.5140 -2.3237  0.5088
12666TIP3    H259490   1.523   0.859   0.985  1.3234  2.4852 -0.4024
12667TIP3   OH259491   2.397   2.939   0.754 -0.0059  0.1279 -0.3088
12667TIP3    H159492   2.390   2.880   0.829  0.3684  2.0957  1.3433
12667TIP3    H259493   2.347   2.897   0.685 -2.8948 -0.3537  1.9849
12668TIP3   OH259494   3.235   5.133  14.937  0.3274  0.6582 -0.1916
12668TIP3    H159495   3.244   5.205  14.999 -1.5795 -0.3228  1.2754
12668TIP3    H259496   3.189   5.170  14.862  1.4001  1.5089 -0.4414
12669TIP3   OH259497   0.045   2.810  11.272 -0.0003  0.3265  0.0776
12669TIP3    H159498   0.117   2.806  11.209 -0.2060 -0.7876 -0.0899
12669TIP3    H259499   0.073   2.756  11.345  0.1451  1.4443  0.8667
12670TIP3   OH259500   6.498   5.806   1.592 -0.6067 -0.2836  0.5354
12670TIP3    H159501   6.571   5.848   1.638 -1.4522 -0.7445  2.3416
12670TIP3    H259502   6.500   5.844   1.504  1.4095  0.1850  0.7613
12671TIP3   OH259503   0.228   3.827  13.358 -0.3165 -0.4076 -0.0002
12671TIP3    H159504   0.167   3.869  13.417 -1.9513  0.2462 -2.0814
12671TIP3    H259505   0.307   3.881  13.361  0.0613 -1.0488  2.4209
12672TIP3   OH259506   6.548   0.354  14.177 -0.0042 -0.2251 -0.2375
12672TIP3    H159507   6.596   0.292  14.123  0.2390 -1.8278  1.7301
12672TIP3    H259508   6.615   0.402  14.226 -0.2279  0.9694 -1.0784
12673TIP3   OH259509   6.265   4.365   1.632  0.3250  0.7786 -0.0153
12673TIP3    H159510   6.303   4.433   1.689  0.1372  0.8152  0.0660
12673TIP3    H259511   6.180   4.400   1.606  0.4121  0.7622 -0.3244
12674TIP3   OH259512   2.293   5.976   0.891 -0.2328  0.3214 -0.7184
12674TIP3    H159513   2.365   6.015   0.940 -0.4441  1.4183 -1.2606
12674TIP3    H259514   2.331   5.949   0.808 -0.9056  3.1023 -1.9969
12675TIP3   OH259515   1.604   6.024  16.136  0.7115  0.2352  0.1066
12675TIP3    H159516   1.555   5.944  16.154  0.3805  0.6157  0.9555
12675TIP3    H259517   1.688   5.994  16.102 -0.6179 -0.3961 -2.7445
12676TIP3   OH259518   1.449   4.354   3.606 -0.4878  0.0914 -0.2489
12676TIP3    H159519   1.494   4.361   3.691 -0.3938 -0.2419 -0.2701
12676TIP3    H259520   1.360   4.327   3.629 -0.5318  0.2399 -0.2419
12677TIP3   OH259521   0.232   4.381  14.852 -0.1419 -0.1973 -0.1087
12677TIP3    H159522   0.277   4.414  14.774 -1.6740 -0.2946 -1.0452
12677TIP3    H259523   0.220   4.459  14.907  1.8659 -0.3046  0.5185
12678TIP3   OH259524   6.266   1.045   0.466  0.3621  0.2477  0.0147
12678TIP3    H159525   6.202   0.976   0.452  1.0726 -0.0256 -2.0020
12678TIP3    H259526   6.223   1.107   0.525 -2.4403  0.9767 -2.7141
12679TIP3   OH259527   1.406   2.208   4.032  0.5124 -0.1133  0.0258
12679TIP3    H159528   1.499   2.232   4.037  0.0497  1.4605  1.4289
12679TIP3    H259529   1.376   2.208   4.122 -1.1943  0.8143 -0.5179
12680TIP3   OH259530   1.243   2.017  13.136  0.1694 -0.5194  0.1981
12680TIP3    H159531   1.181   2.068  13.189  0.1646 -0.2372 -0.0745
12680TIP3    H259532   1.323   2.069  13.137  0.3247 -0.7593  0.3390
12681TIP3   OH259533   0.372   5.744  13.224 -0.0515 -0.3480 -0.0645
12681TIP3    H159534   0.289   5.767  13.182 -0.1959 -0.9835 -0.1325
12681TIP3    H259535   0.388   5.653  13.198  0.7022 -0.2073 -0.1102
12682TIP3   OH259536   2.290   0.884  14.656  0.1949 -0.4045 -0.3087
12682TIP3    H159537   2.268   0.903  14.565 -0.5697  0.2279  0.0081
12682TIP3    H259538   2.208   0.898  14.704  0.8174  0.1587  0.6050
12683TIP3   OH259539   3.191   4.153  13.142  0.1555  0.8722  0.4147
12683TIP3    H159540   3.183   4.107  13.225  0.3602 -0.2260 -0.1590
12683TIP3    H259541   3.177   4.245  13.164 -1.8164  0.3805  1.3379
12684TIP3   OH259542   4.585   5.101  13.617 -0.4918 -0.1438 -0.0100
12684TIP3    H159543   4.661   5.157  13.605  1.0620 -2.2857 -0.5004
12684TIP3    H259544   4.566   5.106  13.710 -1.9334  3.0863 -0.3997
12685TIP3   OH259545   3.615   0.957  11.101  0.1942  0.1630 -0.5447
12685TIP3    H159546   3.532   0.995  11.132 -0.0936  1.7258 -3.0947
12685TIP3    H259547   3.681   0.989  11.163 -0.9149 -0.0729  0.7865
12686TIP3   OH259548   2.824   0.319  16.910  0.5253 -0.2373 -0.0081
12686TIP3    H159549   2.877   0.270  16.973  2.0961 -0.5862 -1.5222
12686TIP3    H259550   2.889   0.359  16.851 -0.8946 -0.4613 -1.7687
12687TIP3   OH259551   1.029   6.518  13.628  0.3736 -0.1395 -0.4326
12687TIP3    H159552   1.028   6.445  13.691 -0.7411 -0.4859 -0.8269
12687TIP3    H259553   0.977   6.485  13.554 -1.1332  1.4770 -0.1251
12688TIP3   OH259554   5.142   2.184   5.720 -0.5245 -0.5081  0.5707
12688TIP3    H159555   5.104   2.162   5.635 -2.8229 -0.7862  1.6311
12688TIP3    H259556   5.162   2.277   5.714  0.5215 -0.8050 -0.7036
12689TIP3   OH259557   1.458   0.757  13.204  0.4618 -1.0028 -0.2648
12689TIP3    H159558   1.468   0.669  13.239 -0.1826 -1.0258 -0.1204
12689TIP3    H259559   1.410   0.805  13.272 -0.0643 -0.8185 -0.7497
12690TIP3   OH259560   4.966   2.189  12.650  0.0688 -0.0041 -0.1296
12690TIP3    H159561   4.968   2.213  12.557 -0.8226 -0.3142 -0.2311
12690TIP3    H259562   4.892   2.238  12.686 -0.6814 -1.2392  0.0329
12691TIP3   OH259563   0.955   4.455   2.981  0.0525  0.5131  0.0603
12691TIP3    H159564   1.035   4.423   2.938 -1.4735  0.2333 -2.6815
12691TIP3    H259565   0.934   4.387   3.045 -0.6165 -1.8564 -2.5387
12692TIP3   OH259566   4.923   0.239  15.925 -0.1170 -0.0342  0.1023
12692TIP3    H159567   4.991   0.207  15.985  1.0953  0.6982 -0.8735
12692TIP3    H259568   4.888   0.317  15.968 -0.4773 -0.5110  0.6897
12693TIP3   OH259569   5.137   4.477   3.937  0.1249 -0.2645  0.3615
12693TIP3    H159570   5.131   4.397   3.990  0.9864 -0.4069  0.2616
12693TIP3    H259571   5.215   4.522   3.971 -1.6953  1.7301  2.0269
12694TIP3   OH259572   2.955   2.771   5.527 -0.2572 -0.2994  0.3317
12694TIP3    H159573   2.920   2.830   5.594  0.8304 -0.7473  1.3108
12694TIP3    H259574   2.878   2.731   5.487 -0.9490  0.6934  0.6517
12695TIP3   OH259575   6.330   4.108   4.145  0.2241 -0.2057 -0.3174
12695TIP3    H159576   6.270   4.139   4.213  1.9043  0.6381  0.8357
12695TIP3    H259577   6.415   4.144   4.171  1.0393 -0.5367 -2.4489
12696TIP3   OH259578   5.664   0.000  14.696 -0.2767 -0.3764  0.3544
12696TIP3    H159579   5.725  -0.054  14.646 -0.4647  0.3561 -0.6814
12696TIP3    H259580   5.592   0.019  14.635 -1.3592 -0.9074  1.4319
12697TIP3   OH259581   1.514   5.864   5.772 -0.2287 -0.0547  0.2750
12697TIP3    H159582   1.562   5.934   5.816  1.3216 -1.3350  0.6754
12697TIP3    H259583   1.499   5.799   5.841 -0.9468 -0.4878 -0.2828
12698TIP3   OH259584   4.245   5.599   3.365  0.2436 -0.1790 -0.0090
12698TIP3    H159585   4.287   5.543   3.300  0.9623 -0.9824  1.1315
12698TIP3    H259586   4.317   5.644   3.408 -0.2985  1.2804 -0.5753
12699TIP3   OH259587   5.836   6.091   4.039  0.3556  0.6496 -0.1582
12699TIP3    H159588   5.782   6.141   4.101 -0.0890 -0.2904  0.2144
12699TIP3    H259589   5.782   6.083   3.961  0.2406  0.3212 -0.0425
12700TIP3   OH259590   0.213   4.198  15.620 -0.6858  0.3326  0.1614
12700TIP3    H159591   0.257   4.283  15.618 -0.4238  0.1965  0.1170
12700TIP3    H259592   0.218   4.171  15.712  2.4084 -1.2838 -0.4269
12701TIP3   OH259593   1.006   4.011   1.542 -0.3346  0.1950  0.4088
12701TIP3    H159594   0.932   4.057   1.583 -2.0789 -1.1414 -1.1333
12701TIP3    H259595   0.975   3.992   1.453  1.0903 -2.2037  0.3941
12702TIP3   OH259596   0.498   2.063   5.231  0.9026 -0.0048  0.5617
12702TIP3    H159597   0.562   2.127   5.201  0.4071 -0.8717 -2.5319
12702TIP3    H259598   0.413   2.102   5.209  0.4550  0.0053  2.2815
12703TIP3   OH259599   1.990   6.330   0.580 -0.2435  0.2706  0.3362
12703TIP3    H159600   1.968   6.243   0.614 -1.0821 -0.1660 -1.2895
12703TIP3    H259601   1.987   6.320   0.485 -2.2346  2.5179  0.1194
12704TIP3   OH259602   2.164   3.914   2.842 -0.1932 -0.0823 -0.0811
12704TIP3    H159603   2.136   4.002   2.815  0.9373  0.1631 -0.5028
12704TIP3    H259604   2.256   3.925   2.867  0.0058 -1.1868 -0.3044
12705TIP3   OH259605   1.154   2.667   5.170  0.9964  0.6416 -0.7540
12705TIP3    H159606   1.194   2.581   5.167  0.3866  0.2512  1.7030
12705TIP3    H259607   1.062   2.651   5.186  1.0713  1.7742  0.9549
12706TIP3   OH259608   6.610   1.873  14.395 -0.5281  0.1328  0.0988
12706TIP3    H159609   6.582   1.782  14.383 -1.5645  0.3945  0.5242
12706TIP3    H259610   6.699   1.875  14.361 -1.0688 -0.6745 -1.4044
12707TIP3   OH259611   0.144   4.996   0.170 -0.3590 -0.1891  0.2598
12707TIP3    H159612   0.122   4.906   0.146  0.2120 -0.5681  1.1499
12707TIP3    H259613   0.198   4.988   0.249  2.4367  0.7661 -1.4759
12708TIP3   OH259614   0.894   1.418   0.569  0.0198  0.3111  0.0725
12708TIP3    H159615   0.864   1.486   0.630  2.4843  2.8564 -1.4431
12708TIP3    H259616   0.965   1.373   0.616 -0.1115  0.2667  0.2273
12709TIP3   OH259617   2.699   6.086   2.200 -0.2980 -0.0534  0.2789
12709TIP3    H159618   2.695   6.169   2.248  0.8791 -0.2790  0.7937
12709TIP3    H259619   2.609   6.070   2.171 -0.7600  0.7854  1.2329
12710TIP3   OH259620   0.996   2.667  15.629  0.2773  0.0661 -0.3316
12710TIP3    H159621   0.913   2.625  15.650  0.5809 -0.8695 -0.9460
12710TIP3    H259622   0.980   2.760  15.641 -0.5627 -0.1895  0.5364
12711TIP3   OH259623   3.170   5.388  13.378  0.2002  0.0007  0.1214
12711TIP3    H159624   3.095   5.446  13.380  2.0204  2.3795  2.0740
12711TIP3    H259625   3.148   5.318  13.439 -0.8862  0.0580 -0.1949
12712TIP3   OH259626   6.444   4.961   4.601  0.5386 -0.2615  0.1145
12712TIP3    H159627   6.460   5.055   4.609  2.1654 -0.5476  0.4154
12712TIP3    H259628   6.425   4.933   4.690 -0.0853 -0.2114  0.0039
12713TIP3   OH259629   5.275   2.712  16.775  0.5207 -0.1144 -0.0737
12713TIP3    H159630   5.351   2.764  16.802 -1.2395  1.4759  2.0386
12713TIP3    H259631   5.220   2.709  16.853 -2.3248  0.1389 -2.0155
12714TIP3   OH259632   3.545   5.761  15.737  0.4677 -0.5281 -0.7730
12714TIP3    H159633   3.507   5.754  15.825  1.0488  1.7991 -0.2997
12714TIP3    H259634   3.475   5.733  15.678 -0.7314  0.1515  0.2975
12715TIP3   OH259635   6.108   1.930   3.429  0.2756 -0.6497 -0.2745
12715TIP3    H159636   6.106   1.965   3.518 -0.7868 -1.3557 -0.0126
12715TIP3    H259637   6.186   1.970   3.390  0.0748  0.6126  0.5736
12716TIP3   OH259638   3.744   2.788   0.186  0.5188  0.2250 -0.1918
12716TIP3    H159639   3.783   2.785   0.099 -0.9850 -2.2806 -0.8626
12716TIP3    H259640   3.714   2.698   0.201  1.3621  0.4682  3.2042
12717TIP3   OH259641   4.304   6.638   5.071  0.4217  0.5548 -0.0096
12717TIP3    H159642   4.215   6.633   5.035  0.3581 -1.6310  0.4451
12717TIP3    H259643   4.292   6.673   5.159 -0.1428 -1.1701  0.6062
12718TIP3   OH259644   1.561   6.456   6.067  0.0697  0.0476  0.0128
12718TIP3    H159645   1.471   6.427   6.050 -0.2340  0.3764  1.0084
12718TIP3    H259646   1.615   6.406   6.006 -0.6556 -1.1452  0.3326
12719TIP3   OH259647   6.784   3.144  12.026  0.1003 -0.4768  0.3940
12719TIP3    H159648   6.756   3.120  12.115  0.3075 -3.2498 -0.2313
12719TIP3    H259649   6.703   3.156  11.977 -0.0542 -2.3758  0.1336
12720TIP3   OH259650   4.099   2.885  14.506  0.0516 -0.0398 -0.3249
12720TIP3    H159651   4.135   2.949  14.444  0.9918 -1.3687 -1.1566
12720TIP3    H259652   4.173   2.862  14.562 -0.1828 -0.7201 -0.2947
12721TIP3   OH259653   4.939   1.337  15.102  0.5465  0.4623 -0.1064
12721TIP3    H159654   4.978   1.398  15.165 -0.6183  0.1432  0.9659
12721TIP3    H259655   4.871   1.292  15.152  0.3807 -0.6476 -1.2950
12722TIP3   OH259656   0.382   5.679  16.755  0.0454 -0.0397  0.4930
12722TIP3    H159657   0.475   5.696  16.770  0.2108  1.0872 -1.6136
12722TIP3    H259658   0.381   5.615  16.683 -0.8088  0.0028  0.4673
12723TIP3   OH259659   6.006   4.073   0.749  0.0018  0.2753 -0.2325
12723TIP3    H159660   6.024   4.000   0.689  1.0675  0.8855 -0.6665
12723TIP3    H259661   5.916   4.059   0.777  0.3450 -1.5009  0.0773
12724TIP3   OH259662   0.519   5.539   4.662  0.0685  0.4631  0.1491
12724TIP3    H159663   0.580   5.474   4.626 -0.8145 -0.8582  0.9953
12724TIP3    H259664   0.439   5.527   4.612 -0.6320 -0.2518  1.4207
12725TIP3   OH259665   1.891   5.257   4.244 -0.4037 -0.3649  0.5364
12725TIP3    H159666   1.821   5.197   4.268 -0.7586 -0.0929  0.1998
12725TIP3    H259667   1.863   5.293   4.160  0.1929 -0.3351  0.3470
12726TIP3   OH259668   3.282   1.277  15.652  0.5937 -0.1360  0.1238
12726TIP3    H159669   3.249   1.191  15.627  1.9777 -1.2098  1.8420
12726TIP3    H259670   3.262   1.284  15.746 -0.7849  2.0325 -0.2789
12727TIP3   OH259671   5.562   3.441  15.998 -0.0299 -0.8422 -0.1949
12727TIP3    H159672   5.485   3.491  15.971 -0.5532 -0.8977  1.1718
12727TIP3    H259673   5.624   3.451  15.926 -1.1350 -0.4043 -1.0913
12728TIP3   OH259674   5.521   3.219  15.085  0.2153 -0.0326  0.3728
12728TIP3    H159675   5.536   3.313  15.093  0.6093  0.0084 -0.7530
12728TIP3    H259676   5.608   3.180  15.095  0.4326 -0.1041 -1.5757
12729TIP3   OH259677   1.398   3.125  17.124  0.7922 -0.1662 -0.4343
12729TIP3    H159678   1.401   3.030  17.121 -2.0663 -0.3122  0.0248
12729TIP3    H259679   1.489   3.152  17.129  1.6040 -2.9065  0.1850
12730TIP3   OH259680   0.394   2.058  13.123 -0.2963  0.3999 -0.0822
12730TIP3    H159681   0.400   2.105  13.207  0.6048  1.7563 -0.8816
12730TIP3    H259682   0.474   2.006  13.120 -1.0655 -0.8558  0.5829
12731TIP3   OH259683   4.505   4.937  14.206 -0.2236  0.5265  0.1905
12731TIP3    H159684   4.498   4.868  14.271  1.1503  0.4654  0.3015
12731TIP3    H259685   4.479   4.896  14.123  0.3517 -0.0690  0.2973
12732TIP3   OH259686   4.218   4.279   1.892 -0.2871 -0.1575  0.4162
12732TIP3    H159687   4.212   4.197   1.942 -1.2393  0.4541  1.3146
12732TIP3    H259688   4.128   4.299   1.868  0.2162 -0.8222 -2.2120
12733TIP3   OH259689   4.338   0.692  15.390  0.2755 -0.4227  0.3600
12733TIP3    H159690   4.303   0.667  15.304  1.4924  1.5954 -0.7572
12733TIP3    H259691   4.261   0.700  15.446 -0.7064  0.1599 -1.0435
12734TIP3   OH259692   6.270   0.188  11.817 -0.0165  0.5803  0.2213
12734TIP3    H159693   6.185   0.145  11.809  0.5792 -0.4374 -0.8381
12734TIP3    H259694   6.255   0.277  11.786 -0.6915  0.3994  0.0200
12735TIP3   OH259695   6.019   2.004   1.509 -0.1582 -0.0827 -0.2479
12735TIP3    H159696   6.109   1.974   1.509 -0.4728 -1.0478  0.9801
12735TIP3    H259697   6.015   2.070   1.579 -0.3628  0.1054 -0.4332
12736TIP3   OH259698   3.351   3.418   5.802  0.5821 -0.5401  0.7081
12736TIP3    H159699   3.397   3.486   5.850 -0.3054  0.2859  0.4015
12736TIP3    H259700   3.294   3.465   5.742  0.2214 -1.5543  0.2356
12737TIP3   OH259701   6.523   0.198  15.951 -0.7880 -0.0151  0.0644
12737TIP3    H159702   6.548   0.281  15.992 -0.4298  0.0073 -0.1953
12737TIP3    H259703   6.428   0.196  15.954 -0.7266 -1.0005  2.8951
12738TIP3   OH259704   1.918   6.376  15.321 -0.7436 -0.1163 -0.4589
12738TIP3    H159705   1.883   6.464  15.321 -0.8934 -0.1793 -0.1523
12738TIP3    H259706   1.844   6.319  15.342 -0.0815 -0.1078  2.0354
12739TIP3   OH259707   6.365   2.637   1.599 -0.3525  0.0469 -0.6974
12739TIP3    H159708   6.437   2.696   1.576  0.0288  0.7224  1.9806
12739TIP3    H259709   6.406   2.551   1.606  0.1461  0.3694  0.4650
12740TIP3   OH259710   5.655   4.046  11.392  0.1464 -0.5374  0.2839
12740TIP3    H159711   5.651   4.120  11.331 -0.4228 -0.8099 -0.0126
12740TIP3    H259712   5.741   4.054  11.435  0.4542 -0.2182 -0.3896
12741TIP3   OH259713   2.567   2.450   1.022  0.4066  0.0303  0.0136
12741TIP3    H159714   2.551   2.436   1.115  0.5616 -1.0890 -0.1195
12741TIP3    H259715   2.602   2.367   0.991  1.0206  0.6167 -0.9021
12742TIP3   OH259716   2.847   4.182  16.444 -0.1995 -0.1718  0.2877
12742TIP3    H159717   2.854   4.101  16.393  1.6350  0.1169  0.0317
12742TIP3    H259718   2.786   4.161  16.515  0.5143 -1.8873  0.4187
12743TIP3   OH259719   0.622   0.548   4.068  0.5578 -0.0199 -0.2305
12743TIP3    H159720   0.709   0.582   4.089  0.2813 -0.9231  2.6154
12743TIP3    H259721   0.587   0.519   4.152 -1.4019 -2.2465 -1.7553
12744TIP3   OH259722   2.596   5.165   4.823  0.3723 -0.0183  0.1139
12744TIP3    H159723   2.529   5.112   4.867 -0.8870  0.5318 -1.1120
12744TIP3    H259724   2.549   5.244   4.795  1.5844  0.4607 -0.5920
12745TIP3   OH259725   0.068   4.346  16.082  0.3300  0.0307  0.3135
12745TIP3    H159726   0.106   4.272  16.035  0.0626  2.0774 -3.3347
12745TIP3    H259727   0.143   4.402  16.103  0.2918 -0.2216  1.1463
12746TIP3   OH259728   5.927   1.740   1.463 -0.4326  0.0093 -0.5766
12746TIP3    H159729   5.937   1.829   1.498 -2.1682 -0.0412  0.0925
12746TIP3    H259730   5.949   1.683   1.536 -3.1252 -0.0908  0.2269
12747TIP3   OH259731   6.280   6.283  11.308 -0.0701  0.4044  0.3639
12747TIP3    H159732   6.265   6.361  11.254  0.4324  0.3910  0.1981
12747TIP3    H259733   6.251   6.308  11.396 -1.1717  0.3261  0.0245
12748TIP3   OH259734   3.125   1.805  14.495 -0.7427  0.0150  0.1115
12748TIP3    H159735   3.071   1.883  14.511 -2.4518 -1.1782  0.2934
12748TIP3    H259736   3.062   1.738  14.467  0.6400 -1.4639  0.4903
12749TIP3   OH259737   1.722   1.143  16.581  0.3790 -0.6663 -0.0879
12749TIP3    H159738   1.678   1.228  16.573  2.2596  0.4849  1.3673
12749TIP3    H259739   1.670   1.084  16.527 -2.3573  0.8770  0.7384
12750TIP3   OH259740   6.326   2.880   4.400  0.1277 -0.3413  0.0007
12750TIP3    H159741   6.337   2.973   4.382 -1.0350 -0.3086 -0.5840
12750TIP3    H259742   6.234   2.863   4.381  0.2776 -1.5564  0.3473
12751TIP3   OH259743   1.096   4.623  15.698  0.0873 -0.9011 -0.4327
12751TIP3    H159744   1.022   4.602  15.641 -0.1555  0.0209 -0.4711
12751TIP3    H259745   1.060   4.619  15.787  0.0329 -0.6459 -0.4409
12752TIP3   OH259746   1.407   4.283  14.600 -0.7152  0.6895 -0.2607
12752TIP3    H159747   1.475   4.349  14.613 -0.8904  0.7907  0.1493
12752TIP3    H259748   1.331   4.318  14.647 -0.7860  0.1554  0.0165
12753TIP3   OH259749   1.728   5.502   1.854  0.5223  0.5592  0.1440
12753TIP3    H159750   1.754   5.463   1.771 -0.2883  0.9129 -0.2718
12753TIP3    H259751   1.697   5.590   1.831 -0.9209  0.1950  0.6519
12754TIP3   OH259752   1.947   6.660  11.151  0.0760  0.4099  0.3439
12754TIP3    H159753   1.979   6.657  11.061  2.4792 -2.7759  1.2020
12754TIP3    H259754   1.862   6.616  11.148 -1.5076  3.3845 -0.8772
12755TIP3   OH259755   3.211   4.192  14.333 -0.1949 -0.1712 -0.0683
12755TIP3    H159756   3.252   4.170  14.417  0.4664  0.6544 -0.1703
12755TIP3    H259757   3.262   4.145  14.268  0.5881  0.8504 -0.1948
12756TIP3   OH259758   4.716   5.866  13.844  0.3237  0.4088 -0.3829
12756TIP3    H159759   4.631   5.853  13.801  0.9999 -0.0602 -1.6118
12756TIP3    H259760   4.714   5.810  13.921 -0.3172  0.0650 -0.6522
12757TIP3   OH259761   3.601   0.752   1.117 -0.1212  0.3067  0.3271
12757TIP3    H159762   3.604   0.746   1.021 -1.7882  0.0632  0.2644
12757TIP3    H259763   3.659   0.824   1.139  1.5766 -0.6790 -0.7428
12758TIP3   OH259764   4.191   4.486  13.959 -0.2111  0.0844 -0.4330
12758TIP3    H159765   4.137   4.562  13.936 -0.3965 -0.3550 -1.4703
12758TIP3    H259766   4.281   4.517  13.953 -0.3402  1.0559  2.1125
12759TIP3   OH259767   5.506   5.359  16.244 -0.4120  0.2533 -0.3757
12759TIP3    H159768   5.524   5.285  16.301 -2.4101 -1.1422 -1.5109
12759TIP3    H259769   5.465   5.424  16.300 -0.5985 -0.3347  0.1690
12760TIP3   OH259770   3.941   1.015   3.263  0.2604  0.2491 -0.0068
12760TIP3    H159771   4.014   0.953   3.260  0.9587  0.9947  1.0512
12760TIP3    H259772   3.889   0.995   3.186  0.3728 -1.7767  0.4260
12761TIP3   OH259773   6.226   1.797  12.030  0.5764  0.3447 -0.2079
12761TIP3    H159774   6.235   1.703  12.013 -0.7661  0.0279  0.6847
12761TIP3    H259775   6.209   1.802  12.124 -1.1533  1.3336 -0.5465
12762TIP3   OH259776   5.982   4.275  12.548  0.1706  0.7728  0.0737
12762TIP3    H159777   5.940   4.192  12.574 -0.1404  0.7131 -0.6146
12762TIP3    H259778   5.943   4.340  12.607  0.9785  0.3154  1.1322
12763TIP3   OH259779   3.938   1.199   5.293 -0.7188 -0.2816  0.4737
12763TIP3    H159780   3.889   1.133   5.343  0.1941 -1.9282 -0.7490
12763TIP3    H259781   3.969   1.261   5.359 -0.8049 -1.5954  1.7875
12764TIP3   OH259782   4.949   6.164  15.574  0.0949  0.4110 -0.3982
12764TIP3    H159783   4.911   6.190  15.490 -0.1739 -2.9663 -1.3665
12764TIP3    H259784   4.874   6.159  15.633  0.1217  1.5607 -0.2538
12765TIP3   OH259785   2.823   6.103   1.196 -0.3038 -0.3318  0.7053
12765TIP3    H159786   2.792   6.150   1.119 -0.8901 -1.5538  0.1730
12765TIP3    H259787   2.872   6.029   1.161  0.6688 -0.0872  1.5289
12766TIP3   OH259788   2.530   0.557   1.727  0.2180 -0.1040  0.1486
12766TIP3    H159789   2.540   0.639   1.776  0.1901 -0.6493  1.0667
12766TIP3    H259790   2.577   0.492   1.779  3.6471  0.0595 -2.5382
12767TIP3   OH259791   3.953   3.932  13.324 -0.3809 -0.4456 -0.5945
12767TIP3    H159792   3.937   3.967  13.411 -0.9757 -1.1320 -0.4205
12767TIP3    H259793   4.027   3.872  13.335  0.1491  0.1759 -0.7449
12768TIP3   OH259794   1.758   2.090  17.021  0.6642  0.1598 -1.2597
12768TIP3    H159795   1.697   2.015  17.022 -0.3553  0.9955  0.3457
12768TIP3    H259796   1.739   2.134  16.938 -2.0962  1.3149 -0.0896
12769TIP3   OH259797   5.119   6.357   2.706 -0.0278  0.1339 -0.0062
12769TIP3    H159798   5.200   6.326   2.666 -0.9760 -0.0313 -1.8759
12769TIP3    H259799   5.052   6.295   2.676 -0.8275  0.1851  1.6261
12770TIP3   OH259800   5.025   6.460   0.751  0.1160 -0.0104 -0.3778
12770TIP3    H159801   5.005   6.472   0.844 -0.3231 -1.6468 -0.2423
12770TIP3    H259802   5.059   6.544   0.723  0.8428  0.3172  1.4172
12771TIP3   OH259803   2.829   0.953  16.302 -0.0462 -0.2625 -0.0626
12771TIP3    H159804   2.869   0.886  16.246  1.2469  0.2168  0.2898
12771TIP3    H259805   2.899   1.016  16.319 -1.1091  0.9072  0.0556
12772TIP3   OH259806   0.613   2.169  16.876 -0.0322  0.4777 -0.2314
12772TIP3    H159807   0.637   2.261  16.872 -0.3670  0.6130  0.9340
12772TIP3    H259808   0.697   2.122  16.865  0.2263  0.9141 -0.1070
12773TIP3   OH259809   5.601   2.326   1.076 -0.0848  0.0920  0.2733
12773TIP3    H159810   5.535   2.270   1.033  0.0096  0.3491 -0.2112
12773TIP3    H259811   5.567   2.340   1.164  0.3326 -1.5003  0.7188
12774TIP3   OH259812   2.570   4.229   0.181  0.0385 -0.2934  0.3476
12774TIP3    H159813   2.591   4.208   0.272 -0.7226  1.5889  0.9759
12774TIP3    H259814   2.652   4.265   0.145  1.0063 -3.1313 -0.3995
12775TIP3   OH259815   0.292   3.900  15.561  0.1407 -0.0140 -0.2253
12775TIP3    H159816   0.352   3.900  15.636  0.6391 -1.1780 -0.6080
12775TIP3    H259817   0.262   3.991  15.554  0.2212  0.1514  1.2754
12776TIP3   OH259818   6.472   2.854   0.595  0.4916 -0.0986 -0.4120
12776TIP3    H159819   6.563   2.871   0.570  0.7437  2.0296  1.8296
12776TIP3    H259820   6.433   2.941   0.605 -0.7519 -0.9297  2.2661
12777TIP3   OH259821   1.023   0.120  15.074  0.1233  0.1136 -0.5874
12777TIP3    H159822   0.989   0.135  15.162  1.6391  2.1605 -0.3190
12777TIP3    H259823   0.948   0.084  15.026 -1.4006  1.1617  0.9113
12778TIP3   OH259824   1.735   1.465   3.387 -0.6848  0.2368 -0.2352
12778TIP3    H159825   1.693   1.550   3.402  1.2813  1.9115 -3.4606
12778TIP3    H259826   1.708   1.440   3.299 -2.1180 -3.0911  1.0815
12779TIP3   OH259827   5.325   0.208  15.778 -0.3518 -0.1489 -0.1354
12779TIP3    H159828   5.300   0.156  15.854 -0.2310  0.0433  0.0361
12779TIP3    H259829   5.355   0.144  15.714 -1.9643 -0.4447 -0.6215
12780TIP3   OH259830   5.185   4.336  16.766  0.4115 -0.3206  0.1578
12780TIP3    H159831   5.228   4.380  16.692  0.0064 -0.6781 -0.2918
12780TIP3    H259832   5.094   4.326  16.738  0.2621 -0.4762  0.6986
12781TIP3   OH259833   6.320   0.495   5.224 -0.2683  0.3101  0.0452
12781TIP3    H159834   6.302   0.555   5.151 -1.6649 -1.4384 -1.0644
12781TIP3    H259835   6.246   0.506   5.284 -1.4548 -1.5543 -1.0190
12782TIP3   OH259836   4.431   2.515  14.601 -0.2486 -0.8390 -0.7370
12782TIP3    H159837   4.435   2.610  14.590  2.4888 -0.9864 -1.5515
12782TIP3    H259838   4.382   2.484  14.525  0.2187 -0.1814 -1.3129
12783TIP3   OH259839   5.186   5.570  15.272  0.2885  0.2525 -0.2476
12783TIP3    H159840   5.139   5.583  15.355  0.5905 -0.2888  0.0063
12783TIP3    H259841   5.278   5.571  15.296  0.4167  1.2007 -0.7330
12784TIP3   OH259842   1.119   0.713   1.537 -0.0194  0.0648  0.0937
12784TIP3    H159843   1.028   0.722   1.567 -0.1804  0.6445 -0.5339
12784TIP3    H259844   1.164   0.790   1.573  0.2141 -0.2099  0.3841
12785TIP3   OH259845   3.919   6.266  14.366  0.0163  0.2360  0.2156
12785TIP3    H159846   3.894   6.276  14.274 -1.1993  0.5507  0.5708
12785TIP3    H259847   4.012   6.243  14.363 -0.2129 -0.5970 -1.1285
12786TIP3   OH259848   3.484   4.516   5.340  0.5173 -0.3299  0.3237
12786TIP3    H159849   3.392   4.524   5.318  0.7313 -0.5689 -0.6576
12786TIP3    H259850   3.530   4.566   5.273  1.0487  0.5471  1.3306
12787TIP3   OH259851   5.023   0.448   5.105  0.1982  0.5388  0.2715
12787TIP3    H159852   5.048   0.452   5.197 -0.9636  1.3939  0.5602
12787TIP3    H259853   5.072   0.374   5.069  0.9034  0.4129  1.4962
12788TIP3   OH259854   5.310   2.314   1.545  0.3021  0.2360 -0.1764
12788TIP3    H159855   5.294   2.348   1.457  0.1531  1.1855  0.2113
12788TIP3    H259856   5.259   2.233   1.549 -0.4375  0.6699 -0.6544
12789TIP3   OH259857   0.163   3.982  13.836  0.2151 -0.0229  0.2863
12789TIP3    H159858   0.217   3.911  13.870  0.7198  0.2175 -0.0166
12789TIP3    H259859   0.078   3.969  13.877  0.3688 -0.6810  0.3917
12790TIP3   OH259860   6.508   3.506   4.708  0.2857  0.3479  0.4381
12790TIP3    H159861   6.505   3.600   4.692  1.8870  0.3395 -0.0156
12790TIP3    H259862   6.458   3.493   4.789 -0.1555  1.5441  0.3628
12791TIP3   OH259863   3.523   4.673  11.689 -0.0419 -0.1682  0.4220
12791TIP3    H159864   3.551   4.711  11.772 -1.8241  0.6564  0.6700
12791TIP3    H259865   3.428   4.680  11.690 -0.0897 -0.0005 -1.7636
12792TIP3   OH259866   4.263   4.031   4.045 -0.1275 -0.0569  0.3726
12792TIP3    H159867   4.296   3.943   4.066 -2.3970 -0.6942  1.3915
12792TIP3    H259868   4.211   4.020   3.966  1.3942  0.8034 -0.7756
12793TIP3   OH259869   4.766   4.805  11.976 -0.5738 -0.7022 -0.3197
12793TIP3    H159870   4.768   4.868  12.048  1.1126 -0.7874 -0.2927
12793TIP3    H259871   4.819   4.732  12.006 -0.0477 -0.8432 -1.5578
12794TIP3   OH259872   4.697   4.343   6.462  0.1153  0.3387 -0.2410
12794TIP3    H159873   4.712   4.312   6.551  0.1030 -0.7321 -0.6106
12794TIP3    H259874   4.781   4.329   6.417  0.4219  1.7785 -0.1377
12795TIP3   OH259875   3.997   3.539  15.677  0.1860 -0.1150  0.7695
12795TIP3    H159876   4.089   3.564  15.668  0.1502  0.7264  2.4863
12795TIP3    H259877   3.999   3.450  15.711  0.3980  0.5357  2.5049
12796TIP3   OH259878   5.911   2.254  12.232 -0.7531 -0.5502 -0.2836
12796TIP3    H159879   5.898   2.281  12.323 -2.4253  0.6908 -0.8607
12796TIP3    H259880   5.952   2.168  12.238 -0.5104 -0.3232  1.6366
12797TIP3   OH259881   4.897   1.792  12.145 -0.0794 -0.4702 -0.3034
12797TIP3    H159882   4.964   1.831  12.200 -0.9862  0.7873 -0.0574
12797TIP3    H259883   4.838   1.865  12.123 -0.6669 -1.2866 -1.5378
12798TIP3   OH259884   4.636   5.354  13.076 -0.1120  0.4287  0.1030
12798TIP3    H159885   4.570   5.359  13.007 -0.5897  0.7808  0.5752
12798TIP3    H259886   4.664   5.263  13.077 -0.3332  0.3564 -0.3406
12799TIP3   OH259887   4.588   3.698  17.263  0.2724  1.2489 -0.0037
12799TIP3    H159888   4.505   3.671  17.302  1.3534 -2.4657 -0.0250
12799TIP3    H259889   4.652   3.690  17.333  1.0865  1.1008 -0.7466
12800TIP3   OH259890   1.338   3.536  17.269 -0.8459 -0.4407  0.4337
12800TIP3    H159891   1.396   3.603  17.304  0.6955 -2.1592  1.2280
12800TIP3    H259892   1.353   3.538  17.174 -1.2222  0.6893  0.3880
12801TIP3   OH259893   6.244   1.846   2.980  0.0828  0.2620 -0.4097
12801TIP3    H159894   6.229   1.751   2.972 -0.4504  0.3416 -0.3417
12801TIP3    H259895   6.164   1.880   3.019 -0.1101  0.8833 -1.3452
12802TIP3   OH259896   1.117   0.863  12.004 -0.2182 -0.0867 -0.2512
12802TIP3    H159897   1.065   0.794  12.044 -1.3177  1.0580  0.3172
12802TIP3    H259898   1.154   0.911  12.078 -0.5326  0.7436 -0.6278
12803TIP3   OH259899   1.417   3.372  10.339 -0.0494  0.4100  0.4555
12803TIP3    H159900   1.479   3.426  10.388  1.2748  0.0487 -0.7838
12803TIP3    H259901   1.389   3.427  10.266  0.0490  0.0108  0.1156
12804TIP3   OH259902   0.290   2.680   2.031  0.1942 -0.0554 -0.0736
12804TIP3    H159903   0.320   2.750   2.088  1.2584 -1.1960  0.8056
12804TIP3    H259904   0.229   2.629   2.084  1.3177 -1.2189  0.1511
12805TIP3   OH259905   3.556   1.133  14.784  0.2428  0.3009  0.4053
12805TIP3    H159906   3.518   1.139  14.872  1.7635  0.4668  1.0615
12805TIP3    H259907   3.522   1.210  14.738  1.1063  1.3810  1.5222
12806TIP3   OH259908   1.207   1.867  16.489  0.2401 -0.0799  0.7510
12806TIP3    H159909   1.155   1.808  16.434  0.3665  1.3211 -0.9078
12806TIP3    H259910   1.226   1.815  16.567 -3.5904 -0.6628  1.4130
12807TIP3   OH259911   2.349   6.418  13.091  0.1169 -0.3287  0.2155
12807TIP3    H159912   2.301   6.348  13.135  0.8151 -1.3193 -0.5864
12807TIP3    H259913   2.281   6.472  13.050 -0.5138  0.3892  2.1550
12808TIP3   OH259914   3.635   3.810   3.864 -0.2314  0.5036  0.2708
12808TIP3    H159915   3.705   3.764   3.910 -1.0695  0.5238  1.5991
12808TIP3    H259916   3.660   3.902   3.867 -0.2477  0.4949  0.6057
12809TIP3   OH259917   3.488   3.265   3.758  0.1413  0.0274  0.6763
12809TIP3    H159918   3.500   3.243   3.665 -0.7665 -0.1688  0.5952
12809TIP3    H259919   3.397   3.295   3.763  0.6423  1.4764  1.2380
12810TIP3   OH259920   4.030   2.264  14.823  0.4744 -0.1532  0.4123
12810TIP3    H159921   4.091   2.198  14.790  0.7304  0.3444 -0.1263
12810TIP3    H259922   4.044   2.266  14.918  1.3745  0.0334  0.2745
12811TIP3   OH259923   5.807   1.433  16.060 -0.2472  0.3616  0.5574
12811TIP3    H159924   5.895   1.470  16.049  0.2745 -1.0696 -0.1842
12811TIP3    H259925   5.813   1.382  16.141  0.0993 -1.0891 -0.3581
12812TIP3   OH259926   2.824   4.545  12.627 -0.1709 -0.4012 -0.5564
12812TIP3    H159927   2.780   4.488  12.564 -1.7626  1.5525 -1.3020
12812TIP3    H259928   2.776   4.532  12.709  0.3230 -1.1216 -0.3834
12813TIP3   OH259929   4.263   0.392  17.271 -0.0954  0.0819 -0.2556
12813TIP3    H159930   4.251   0.335  17.195  0.2193 -1.0901  0.5716
12813TIP3    H259931   4.174   0.422  17.292 -0.2070  0.2657 -0.9596
12814TIP3   OH259932   3.152   1.657   3.936 -0.7680 -0.2624 -0.2901
12814TIP3    H159933   3.225   1.628   3.991  0.5470  0.5719 -1.5755
12814TIP3    H259934   3.186   1.654   3.847 -2.0643  0.9133 -0.8423
12815TIP3   OH259935   1.377   3.267   4.385 -0.3939 -0.4324 -0.6113
12815TIP3    H159936   1.456   3.317   4.366  1.2828 -2.3993  0.9574
12815TIP3    H259937   1.356   3.287   4.476 -1.9972  0.4337 -1.1540
12816TIP3   OH259938   1.249   1.036  12.521 -0.5002  0.2295  0.3983
12816TIP3    H159939   1.310   1.102  12.488  1.4406 -1.4614  0.4798
12816TIP3    H259940   1.245   1.052  12.615  0.3851 -0.0792  0.4971
12817TIP3   OH259941   2.943   6.639   1.204  0.1708 -0.1885 -0.9995
12817TIP3    H159942   2.866   6.630   1.260  0.8306  4.0852  0.8132
12817TIP3    H259943   3.015   6.658   1.265  1.7407  0.4028 -2.9733
12818TIP3   OH259944   1.965   4.751   4.625 -0.1486 -0.1088  0.5173
12818TIP3    H159945   1.953   4.659   4.603  0.0139 -0.3432  1.3861
12818TIP3    H259946   1.877   4.787   4.629 -0.2571 -0.4220  0.9820
12819TIP3   OH259947   1.444   0.922  12.911 -0.0097  0.1851 -0.3935
12819TIP3    H159948   1.402   0.851  12.960 -1.8423  2.0598  0.8788
12819TIP3    H259949   1.526   0.938  12.957 -0.1919 -0.2316  0.0803
12820TIP3   OH259950   5.540   1.001  12.739 -0.0577  0.0620 -0.2622
12820TIP3    H159951   5.504   0.918  12.709 -2.4388  0.6362  0.8713
12820TIP3    H259952   5.494   1.019  12.821  0.2352  2.6146 -0.6128
12821TIP3   OH259953   1.101   6.490  11.827 -0.2219  0.1329 -0.0253
12821TIP3    H159954   1.040   6.416  11.838  1.2541 -0.9600  1.0717
12821TIP3    H259955   1.053   6.566  11.859 -1.9063 -0.2668 -1.5122
12822TIP3   OH259956   2.910   0.352   0.920 -0.0762 -0.2255  0.5473
12822TIP3    H159957   2.860   0.295   0.979 -2.0264  0.1064 -0.7380
12822TIP3    H259958   2.899   0.440   0.956 -0.0864 -0.2053  0.4953
12823TIP3   OH259959   3.985   2.615   0.619  0.1962 -0.4297  0.0187
12823TIP3    H159960   3.901   2.592   0.580  0.4274 -2.0287  0.4113
12823TIP3    H259961   3.972   2.703   0.654 -0.7612  0.0411 -1.4785
12824TIP3   OH259962   1.308   5.148  11.174 -0.4450 -0.6357 -0.3469
12824TIP3    H159963   1.285   5.172  11.263  1.7247  0.2369  0.0167
12824TIP3    H259964   1.225   5.123  11.133 -1.5773 -0.2207  1.6482
12825TIP3   OH259965   1.542   3.166   5.443 -0.1534  0.1000 -0.2592
12825TIP3    H159966   1.497   3.250   5.449 -0.3149 -0.0538  0.7437
12825TIP3    H259967   1.560   3.155   5.350  0.3887  1.5188 -0.3285
12826TIP3   OH259968   3.958   5.341  12.788 -0.4852  0.2816 -0.6433
12826TIP3    H159969   3.916   5.369  12.869  0.9591  0.2247  0.1355
12826TIP3    H259970   3.906   5.267  12.758 -2.3813  1.7165 -0.9857
12827TIP3   OH259971   6.581   2.620   1.120  0.0345 -0.2172 -1.0921
12827TIP3    H159972   6.544   2.708   1.117 -0.8641 -0.5540 -0.3575
12827TIP3    H259973   6.654   2.622   1.058  2.2056  2.0168  1.4456
12828TIP3   OH259974   5.725   1.495  15.156  0.2784  0.0824 -0.1374
12828TIP3    H159975   5.764   1.551  15.224 -0.1374  0.9718 -0.6309
12828TIP3    H259976   5.633   1.488  15.180  0.1712  0.2381 -0.4989
12829TIP3   OH259977   5.231   5.253   4.541 -0.3590 -0.3128 -0.1651
12829TIP3    H159978   5.271   5.321   4.486 -2.4048 -0.2563 -1.6299
12829TIP3    H259979   5.140   5.282   4.553 -0.7714 -1.8972  0.6714
12830TIP3   OH259980   4.466   4.382   4.679 -0.0509  0.2638 -0.0777
12830TIP3    H159981   4.483   4.395   4.585  1.8815 -0.5367  0.1395
12830TIP3    H259982   4.535   4.432   4.722 -1.1701  0.9556  0.9459
12831TIP3   OH259983   3.681   4.715  16.408 -0.3212 -0.4632  0.3611
12831TIP3    H159984   3.593   4.744  16.432 -0.2221 -0.7295  1.0680
12831TIP3    H259985   3.672   4.684  16.318 -0.9787 -0.5880  0.4657
12832TIP3   OH259986   0.628   1.961  13.591  0.1660 -0.3428  0.0097
12832TIP3    H159987   0.544   2.005  13.607  0.5184  0.4295 -0.2671
12832TIP3    H259988   0.604   1.869  13.579 -0.4017 -0.5249  2.2704
12833TIP3   OH259989   4.859   2.854   1.424 -0.6786  0.1282  0.2417
12833TIP3    H159990   4.834   2.923   1.362 -1.1017 -0.2576 -0.0263
12833TIP3    H259991   4.797   2.863   1.497 -1.6322 -0.8228 -0.4185
12834TIP3   OH259992   3.514   0.033  12.535  0.4088  0.4564 -0.6007
12834TIP3    H159993   3.451   0.101  12.557  0.0694  0.3242 -1.1606
12834TIP3    H259994   3.577   0.076  12.477 -0.7544 -0.1158 -2.3475
12835TIP3   OH259995   4.137   2.797   2.842  0.3270 -0.1980  0.0340
12835TIP3    H159996   4.082   2.848   2.901 -0.8120  1.0034 -1.9943
12835TIP3    H259997   4.076   2.741   2.794  1.0939 -0.3451 -0.7900
12836TIP3   OH259998   6.530   1.327   4.400 -0.2989  0.6443  0.4671
12836TIP3    H159999   6.609   1.277   4.423 -0.0149  0.5372 -0.7409
12836TIP3    H260000   6.495   1.356   4.485  0.9153  0.5189  1.0213
12837TIP3   OH260001   2.286   5.164   0.740 -0.0143 -0.0970  0.1540
12837TIP3    H160002   2.276   5.253   0.776  2.2840 -0.2580  1.2938
12837TIP3    H260003   2.326   5.114   0.812 -1.3839 -2.0975 -0.4369
12838TIP3   OH260004   0.702   0.553   2.509 -0.0456 -0.1405  0.1760
12838TIP3    H160005   0.757   0.624   2.541 -0.5435  0.3744 -0.0938
12838TIP3    H260006   0.688   0.496   2.585  2.2346 -1.1800 -0.1548
12839TIP3   OH260007   5.618   5.218   2.236 -0.0890  0.2069 -0.0816
12839TIP3    H160008   5.688   5.163   2.272  1.4320  2.8875  1.2256
12839TIP3    H260009   5.565   5.242   2.312  0.7772  2.6078 -0.2016
12840TIP3   OH260010   0.141   0.266   1.781 -0.0746  0.0479  0.1438
12840TIP3    H160011   0.185   0.294   1.701  0.8301  0.9043  0.9278
12840TIP3    H260012   0.088   0.341   1.807 -1.5191 -0.7369 -0.4209
12841TIP3   OH260013   1.054   1.896   3.116  0.1735  1.2349  0.2877
12841TIP3    H160014   0.981   1.855   3.162  2.0640 -1.0763  1.3231
12841TIP3    H260015   1.049   1.862   3.027  1.5391 -1.0948  1.0567
12842TIP3   OH260016   0.434   3.967   5.373  0.0736  0.0998 -0.0413
12842TIP3    H160017   0.495   3.980   5.445  1.8226 -0.6247 -1.3355
12842TIP3    H260018   0.364   3.914   5.410 -0.2200  1.6445  1.6967
12843TIP3   OH260019   4.023   1.092  11.983  0.0648  0.7179  0.6183
12843TIP3    H160020   3.948   1.151  11.983  0.6983  1.5360  0.8972
12843TIP3    H260021   4.071   1.114  12.063  1.2993  1.1317 -0.2153
12844TIP3   OH260022   4.549   4.041   6.755  0.1177 -0.6110  0.0483
12844TIP3    H160023   4.528   4.009   6.843 -1.8187  1.1611  0.2748
12844TIP3    H260024   4.534   3.965   6.699 -0.4922 -1.2318  1.0285
12845TIP3   OH260025   4.543   0.623   4.022  0.6449  0.4749  0.4699
12845TIP3    H160026   4.455   0.660   4.032  1.0641  1.9019 -0.8294
12845TIP3    H260027   4.596   0.668   4.088  0.6023  0.3248  0.6056
12846TIP3   OH260028   3.039   0.828  11.287 -0.3230  0.0263 -0.6394
12846TIP3    H160029   3.055   0.734  11.286 -3.3877 -0.5515  1.2190
12846TIP3    H260030   2.975   0.842  11.217  0.5588  0.8628 -1.3071
12847TIP3   OH260031   0.790   5.402   2.153 -0.1988  0.0269 -0.4948
12847TIP3    H160032   0.733   5.437   2.085 -0.6782  0.8685  0.3417
12847TIP3    H260033   0.732   5.379   2.225  0.2799 -1.1162 -0.4570
12848TIP3   OH260034   3.867   1.071   0.112  0.1974 -0.3910 -0.2057
12848TIP3    H160035   3.859   1.071   0.017 -0.5397 -0.2173 -0.1455
12848TIP3    H260036   3.833   1.156   0.139  1.4943  0.0353  0.1276
12849TIP3   OH260037   5.518   2.402  11.062  0.2868 -0.1322  0.3993
12849TIP3    H160038   5.582   2.343  11.023  1.3315  0.9456  0.4695
12849TIP3    H260039   5.563   2.486  11.069 -0.6785  0.2960  1.7201
12850TIP3   OH260040   0.756   4.303  11.381  0.0579  0.1308 -0.4635
12850TIP3    H160041   0.847   4.289  11.406 -0.0830  2.5374  1.5879
12850TIP3    H260042   0.705   4.247  11.439  0.1224  0.5163 -0.0294
12851TIP3   OH260043   1.888   1.086   2.243 -0.8613 -0.0869 -0.2745
12851TIP3    H160044   1.923   1.167   2.206  2.0017 -1.2184 -0.1506
12851TIP3    H260045   1.842   1.044   2.170  0.1580  0.2496 -1.1199
12852TIP3   OH260046   1.124   6.078   5.319 -0.0346  0.1367  0.6680
12852TIP3    H160047   1.170   5.995   5.334  0.9780  0.7767  1.1513
12852TIP3    H260048   1.164   6.139   5.381 -1.3708  0.7743  0.9191
12853TIP3   OH260049   2.424   5.894   2.403  0.1757  0.2544  0.0155
12853TIP3    H160050   2.370   5.963   2.365 -0.0762  0.6866  1.1526
12853TIP3    H260051   2.363   5.824   2.424  0.3746 -0.1572 -0.7615
12854TIP3   OH260052   2.310   1.605  11.206  0.1068 -0.1052  0.2542
12854TIP3    H160053   2.221   1.620  11.173  0.6315  0.1667 -1.0764
12854TIP3    H260054   2.302   1.531  11.266 -0.7146 -1.2319 -1.2240
12855TIP3   OH260055   2.279   5.597  14.698  0.3808  0.1814 -0.0728
12855TIP3    H160056   2.204   5.588  14.639  0.0173 -1.6216  0.6294
12855TIP3    H260057   2.348   5.546  14.657  0.5209 -0.0235  0.4172
12856TIP3   OH260058   3.344   2.339   3.731  0.0173 -0.9088 -0.1936
12856TIP3    H160059   3.275   2.375   3.787 -0.6916 -2.8341  0.2235
12856TIP3    H260060   3.406   2.300   3.793  0.9857 -0.0852 -0.6191
12857TIP3   OH260061   6.286   0.161  12.834  0.0104  0.0349 -0.1225
12857TIP3    H160062   6.264   0.237  12.888 -0.3260  0.4986 -0.9144
12857TIP3    H260063   6.249   0.087  12.881 -1.3906  0.5814 -0.3630
12858TIP3   OH260064   0.376   5.353  16.899  0.3841 -0.0082 -0.0774
12858TIP3    H160065   0.434   5.429  16.895  0.9718 -0.4521 -0.0724
12858TIP3    H260066   0.301   5.383  16.950  1.0056  0.3134  0.6613
12859TIP3   OH260067   4.534   1.847  10.810 -0.5599 -0.3685 -0.3999
12859TIP3    H160068   4.470   1.867  10.742  0.7346  1.0336 -1.2612
12859TIP3    H260069   4.571   1.933  10.832  2.0505 -1.2986 -1.0001
12860TIP3   OH260070   4.133   2.719  15.648 -0.0316 -0.1881 -0.2505
12860TIP3    H160071   4.085   2.646  15.609 -1.2508  0.6342 -0.3155
12860TIP3    H260072   4.083   2.742  15.727  0.7626  0.0881  0.1881
12861TIP3   OH260073   0.373   1.515  12.274 -0.1414  0.0663 -0.0913
12861TIP3    H160074   0.407   1.536  12.187 -0.1173  0.4495  0.0126
12861TIP3    H260075   0.412   1.430  12.295 -0.3670 -0.1580 -0.5735
12862TIP3   OH260076   4.417   5.432   6.211 -0.8834 -0.1277 -0.0300
12862TIP3    H160077   4.351   5.406   6.145 -1.1732  0.2380  0.1147
12862TIP3    H260078   4.368   5.437   6.293 -0.5878 -0.2608  0.1550
12863TIP3   OH260079   2.500   5.271  17.018  0.0590 -0.1932  0.4072
12863TIP3    H160080   2.491   5.265  16.923 -2.7616 -1.5155  0.6907
12863TIP3    H260081   2.512   5.364  17.036 -1.8342  0.3817 -1.1110
12864TIP3   OH260082   5.584   5.728   0.034  0.7887 -0.0848 -0.1078
12864TIP3    H160083   5.492   5.751   0.047  0.7320 -0.5507  0.3794
12864TIP3    H260084   5.633   5.797   0.078  0.6869  0.4846 -0.8841
12865TIP3   OH260085   6.335   1.979   5.820 -0.1837 -0.0467  0.0085
12865TIP3    H160086   6.365   1.925   5.746 -2.3226 -0.8416 -0.3035
12865TIP3    H260087   6.413   1.987   5.876  0.9011 -1.1993 -1.2793
12866TIP3   OH260088   3.758   2.533   5.932 -0.7171 -0.6723  0.0645
12866TIP3    H160089   3.749   2.625   5.955  0.1484  0.1995 -2.9579
12866TIP3    H260090   3.852   2.520   5.917 -0.9538 -1.8074 -0.5201
12867TIP3   OH260091   6.153   2.004   5.079  0.0024  0.3162 -0.2012
12867TIP3    H160092   6.097   1.927   5.068  0.1943  0.2298 -0.5615
12867TIP3    H260093   6.241   1.969   5.091 -0.0851  0.4322  0.8710
12868TIP3   OH260094   5.032   3.135  17.156  0.3169 -0.9279 -0.3679
12868TIP3    H160095   5.069   3.081  17.225 -0.5929 -1.0262  0.0460
12868TIP3    H260096   5.107   3.183  17.120  1.0603 -2.1208 -0.4410
12869TIP3   OH260097   3.533   2.420  11.961  0.2588  0.4351 -0.4626
12869TIP3    H160098   3.442   2.407  11.988 -0.1402  0.1943 -1.8584
12869TIP3    H260099   3.579   2.442  12.042 -0.8963 -0.1794  0.3891
12870TIP3   OH260100   4.019   2.220   6.099  0.2805 -0.1204  0.0087
12870TIP3    H160101   4.106   2.234   6.061  0.4761 -0.4525  0.3230
12870TIP3    H260102   4.037   2.190   6.189 -0.1591 -0.0509  0.1206
12871TIP3   OH260103   6.296   4.702   5.807  0.2456  0.1539 -0.2302
12871TIP3    H160104   6.336   4.625   5.847 -2.8425 -2.6517 -2.1806
12871TIP3    H260105   6.308   4.689   5.713 -2.6829  0.5899 -0.7311
12872TIP3   OH260106   5.599   4.395  15.648  0.6778 -0.1969 -0.8496
12872TIP3    H160107   5.605   4.486  15.618  1.5907  0.3627  0.9638
12872TIP3    H260108   5.646   4.394  15.732 -2.5574 -1.5249  1.0211
12873TIP3   OH260109   0.836   5.184  15.532 -0.0200  0.4082  0.4433
12873TIP3    H160110   0.846   5.165  15.625  0.0860  1.9558  0.7612
12873TIP3    H260111   0.751   5.228  15.525  0.0032  0.3647 -0.1873
12874TIP3   OH260112   0.350   1.252   5.419  0.3180 -0.2536  0.2689
12874TIP3    H160113   0.359   1.347   5.423  1.1658 -0.3369  0.4289
12874TIP3    H260114   0.256   1.237   5.417  0.1894  0.6411 -1.0628
12875TIP3   OH260115   1.254   6.817   1.622 -0.1689 -0.4228 -0.8631
12875TIP3    H160116   1.302   6.894   1.591 -0.4724  0.2048  0.2102
12875TIP3    H260117   1.171   6.819   1.574 -0.4776  0.3286 -0.3000
12876TIP3   OH260118   3.288   2.675   5.228  0.0154 -0.0249 -0.6092
12876TIP3    H160119   3.237   2.742   5.274 -0.1178 -0.8715  0.5005
12876TIP3    H260120   3.227   2.637   5.166 -0.1675  0.2676 -0.6101
12877TIP3   OH260121   2.860   5.560  12.152 -0.2527 -0.0414  0.7618
12877TIP3    H160122   2.919   5.510  12.095 -0.7372  0.7849 -0.4984
12877TIP3    H260123   2.786   5.501  12.167 -0.9738  0.3842 -0.9854
12878TIP3   OH260124   2.398   3.797  14.108 -0.1998  0.2083 -0.0022
12878TIP3    H160125   2.382   3.840  14.192  0.4008  1.8549 -0.7273
12878TIP3    H260126   2.323   3.821  14.054  0.0765  0.2339 -0.3729
12879TIP3   OH260127   3.868   4.557   5.267 -0.2587  0.2779  0.2732
12879TIP3    H160128   3.816   4.500   5.210 -0.2029  0.4317  0.0656
12879TIP3    H260129   3.934   4.594   5.209  0.0419  0.1349  0.5228
12880TIP3   OH260130   6.518   1.461   5.955  0.1272 -0.0795  0.4632
12880TIP3    H160131   6.501   1.548   5.993  0.2311 -0.0053  0.3357
12880TIP3    H260132   6.469   1.401   6.012  0.1792  0.0458  0.6422
12881TIP3   OH260133   4.875   6.558   5.009 -0.3461 -0.5534 -0.6514
12881TIP3    H160134   4.908   6.647   4.993 -1.3675  0.3825  2.1191
12881TIP3    H260135   4.788   6.557   4.969 -0.0326 -0.5414 -1.3322
12882TIP3   OH260136   1.656   1.420   3.088  0.4242 -0.7737  0.3817
12882TIP3    H160137   1.696   1.392   3.006  1.8443  0.0308  0.7888
12882TIP3    H260138   1.595   1.490   3.062 -0.4595 -1.7356 -0.1878
12883TIP3   OH260139   5.710   2.616   5.009  0.3019  0.0215 -0.0747
12883TIP3    H160140   5.800   2.601   5.039  0.0254  0.1943  0.8802
12883TIP3    H260141   5.662   2.538   5.036  0.8874 -1.6666 -3.7348
12884TIP3   OH260142   3.420   4.708   1.782  0.0622 -0.4568 -0.0473
12884TIP3    H160143   3.451   4.708   1.873 -2.4396  0.5329  0.8311
12884TIP3    H260144   3.417   4.615   1.758  3.1515 -0.6222 -0.0036
12885TIP3   OH260145   6.537   1.020   4.739  0.1021 -0.0019 -0.1363
12885TIP3    H160146   6.514   0.927   4.738  0.3980 -0.0755 -0.0778
12885TIP3    H260147   6.463   1.062   4.784 -0.3197 -0.1257 -0.7137
12886TIP3   OH260148   3.154   2.656  15.069  0.1275 -0.1673 -0.0978
12886TIP3    H160149   3.118   2.677  14.983 -0.8672 -1.4251  0.0075
12886TIP3    H260150   3.088   2.689  15.131 -0.5420 -1.8532  0.1098
12887TIP3   OH260151   3.916   1.689  16.240 -0.1364 -0.4959  0.3829
12887TIP3    H160152   3.873   1.604  16.231  0.3253 -0.6651 -0.3081
12887TIP3    H260153   3.914   1.726  16.151 -0.2762  0.1813  0.6674
12888TIP3   OH260154   2.468   0.802  15.846  0.0692 -0.6727 -0.4859
12888TIP3    H160155   2.540   0.856  15.876  0.3109 -0.5116 -1.3512
12888TIP3    H260156   2.441   0.753  15.923  0.9877 -0.6039 -0.1188
12889TIP3   OH260157   6.525   4.373  15.915  0.4130 -0.0156  0.2754
12889TIP3    H160158   6.479   4.408  15.839 -0.4947 -0.2763  0.6964
12889TIP3    H260159   6.456   4.348  15.976  1.0936 -1.0079  0.6653
12890TIP3   OH260160   1.129   3.899   0.592 -0.4216  0.0591 -0.4415
12890TIP3    H160161   1.164   3.903   0.681  1.4522 -0.3806 -1.1410
12890TIP3    H260162   1.206   3.905   0.536 -1.1654 -3.4944 -1.9960
12891TIP3   OH260163   5.650   3.761  13.414 -0.3211  0.2963  0.0091
12891TIP3    H160164   5.584   3.826  13.438 -0.7680  0.1595 -0.8355
12891TIP3    H260165   5.641   3.752  13.319  1.0488  0.4210 -0.1398
12892TIP3   OH260166   0.005   3.899   3.975 -0.2948  0.2763  0.0477
12892TIP3    H160167   0.035   3.808   3.973  0.0284  0.3566  1.1889
12892TIP3    H260168   0.004   3.926   3.883  0.9757 -0.4303 -0.1761
12893TIP3   OH260169   3.015   1.098   5.835 -1.1209  0.2403 -0.5202
12893TIP3    H160170   3.033   1.151   5.912  0.5331  0.7613 -1.2414
12893TIP3    H260171   3.101   1.079   5.798 -1.7395 -2.3562 -0.6751
12894TIP3   OH260172   4.904   0.856  12.212  0.1538 -0.0807 -0.0574
12894TIP3    H160173   4.988   0.859  12.166 -0.2949  2.7084 -0.7577
12894TIP3    H260174   4.926   0.875  12.304  0.0947  2.8775 -0.6002
12895TIP3   OH260175   0.586   4.502   2.373 -0.2355 -0.2097 -0.0780
12895TIP3    H160176   0.509   4.547   2.338  0.3921  0.7042 -0.2751
12895TIP3    H260177   0.628   4.565   2.430  1.4585 -0.0101 -1.4824
12896TIP3   OH260178   1.536   3.906   5.070  0.1375  0.5698 -0.3732
12896TIP3    H160179   1.566   3.819   5.045 -0.8825 -0.0476  0.5277
12896TIP3    H260180   1.602   3.965   5.033  0.9191 -0.5851 -0.8602
12897TIP3   OH260181   4.681   5.051   4.595 -0.3350 -0.0498 -0.3184
12897TIP3    H160182   4.754   5.110   4.610  0.8468 -0.9941 -2.2054
12897TIP3    H260183   4.706   4.971   4.641 -1.6991  0.6972  1.7983
12898TIP3   OH260184   5.651   1.871  12.526  0.4917 -0.1336  0.3394
12898TIP3    H160185   5.626   1.937  12.462  1.0120  0.2056  0.4763
12898TIP3    H260186   5.741   1.894  12.550 -0.2526  0.7531  2.4268
12899TIP3   OH260187   3.564   4.542   5.791  0.5119  0.3226  0.1913
12899TIP3    H160188   3.547   4.635   5.776 -1.8465 -0.0681  0.2285
12899TIP3    H260189   3.593   4.510   5.706  0.9530  0.9937  0.0773
12900TIP3   OH260190   1.780   2.983   4.267 -0.0495 -0.0028  0.2435
12900TIP3    H160191   1.859   2.961   4.316  0.3268 -0.3863 -0.5301
12900TIP3    H260192   1.806   3.053   4.208 -0.2875 -0.1069  0.0088
12901TIP3   OH260193   2.563   2.319   0.039  0.6202 -0.1912  0.2799
12901TIP3    H160194   2.589   2.376  -0.033  1.7805 -1.5672 -0.4205
12901TIP3    H260195   2.642   2.313   0.094  0.5475 -1.1642  0.2936
12902TIP3   OH260196   2.076   5.903  11.071 -0.0090  0.3646 -0.0708
12902TIP3    H160197   2.124   5.888  11.152 -0.3546 -1.3317 -0.1730
12902TIP3    H260198   2.143   5.905  11.003  0.1890  0.8504  0.1376
12903TIP3   OH260199   2.917   1.927  16.850 -0.2890 -0.0525  0.7791
12903TIP3    H160200   2.989   1.954  16.793 -0.7585 -1.4658 -0.4941
12903TIP3    H260201   2.957   1.919  16.937  0.9693 -0.3533  0.1789
12904TIP3   OH260202   2.041   5.686   4.332 -0.1404 -0.2366  0.5137
12904TIP3    H160203   2.101   5.661   4.403  0.3823 -1.9840 -0.5121
12904TIP3    H260204   2.069   5.774   4.307  0.3761 -0.0373  1.7268
12905TIP3   OH260205   6.669   6.460   5.488 -0.2617  0.0535 -0.3249
12905TIP3    H160206   6.620   6.434   5.566  1.2956  1.2340  1.0805
12905TIP3    H260207   6.753   6.415   5.497 -0.5682 -0.9425 -2.0774
12906TIP3   OH260208   4.090   0.439  13.455 -0.0505  0.1905 -0.0542
12906TIP3    H160209   4.136   0.435  13.539  0.0299 -0.5446 -0.1323
12906TIP3    H260210   4.014   0.495  13.472  0.2959  0.5496  0.3467
12907TIP3   OH260211   0.481   4.356  15.854 -0.3373 -0.4820 -0.5475
12907TIP3    H160212   0.415   4.425  15.863 -1.3281 -1.4984  0.1084
12907TIP3    H260213   0.431   4.276  15.839  0.6855 -1.4388  0.9539
12908TIP3   OH260214   2.355   3.349  15.009  0.2118  0.4288  0.1343
12908TIP3    H160215   2.404   3.378  15.086  1.7243  0.7822 -0.9448
12908TIP3    H260216   2.297   3.280  15.042  1.7936 -0.3382  1.3468
12909TIP3   OH260217   2.460   2.785  16.369  0.0016 -0.4771  0.2039
12909TIP3    H160218   2.501   2.711  16.324  1.3096 -1.4023  2.8009
12909TIP3    H260219   2.415   2.745  16.444 -1.5969  1.0741  0.1009
12910TIP3   OH260220   2.405   1.526  14.679 -0.4048  0.3105 -0.3469
12910TIP3    H160221   2.323   1.568  14.705  0.2676  0.8908  0.9021
12910TIP3    H260222   2.387   1.487  14.594 -1.6970  1.2457 -0.5036
12911TIP3   OH260223   1.776   0.666  12.024  0.3819  0.2654  0.1896
12911TIP3    H160224   1.815   0.742  11.982 -0.6563 -0.4682 -2.2250
12911TIP3    H260225   1.824   0.591  11.988  0.1619 -0.3334  1.1184
12912TIP3   OH260226   4.567   1.336   2.228 -0.1254  0.0323 -0.3965
12912TIP3    H160227   4.630   1.380   2.170 -0.2957  0.9854  0.1334
12912TIP3    H260228   4.605   1.345   2.315 -0.4434 -0.3876 -0.2169
12913TIP3   OH260229   3.507   0.482  11.718  0.0482 -0.5882  0.3680
12913TIP3    H160230   3.508   0.516  11.808  1.0727 -0.3327  0.2640
12913TIP3    H260231   3.510   0.387  11.729  0.0560 -0.5621  0.6009
12914TIP3   OH260232   4.215   0.157   5.187  0.4205 -0.0392 -0.3694
12914TIP3    H160233   4.267   0.099   5.243  0.0523 -2.2438 -2.2270
12914TIP3    H260234   4.128   0.156   5.227  0.3050 -1.1402 -0.6191
12915TIP3   OH260235   0.959   1.694  13.589 -0.0302 -0.0309  0.4394
12915TIP3    H160236   0.997   1.661  13.671 -0.4840  0.1261  0.7153
12915TIP3    H260237   0.865   1.700  13.607 -0.1125  0.1441 -0.0448
12916TIP3   OH260238   1.185   4.574  13.122  0.2761  0.4388 -0.4270
12916TIP3    H160239   1.142   4.597  13.204 -1.0316  1.3648 -1.3403
12916TIP3    H260240   1.197   4.479  13.127 -0.3881  0.3947  0.5520
12917TIP3   OH260241   5.427   3.877   3.151  0.1744 -0.1274 -0.9290
12917TIP3    H160242   5.445   3.811   3.218 -0.4904  1.6913  1.1175
12917TIP3    H260243   5.351   3.844   3.103  0.0387 -0.9809 -0.1252
12918TIP3   OH260244   2.506   2.893   3.131 -0.1426 -0.1502 -0.4762
12918TIP3    H160245   2.516   2.967   3.071  0.0719 -0.9189 -1.3969
12918TIP3    H260246   2.495   2.817   3.074  1.7264 -1.1379  0.4295
12919TIP3   OH260247   1.809   1.283   2.443 -0.6351 -0.4016 -0.2570
12919TIP3    H160248   1.793   1.326   2.360 -0.0743 -0.3995 -0.3633
12919TIP3    H260249   1.819   1.191   2.421 -1.8999 -0.6129 -0.0228
12920TIP3   OH260250   0.745   2.536   3.915 -0.5966 -0.2986  0.2623
12920TIP3    H160251   0.736   2.567   4.006  1.0648 -1.8244  0.9762
12920TIP3    H260252   0.822   2.581   3.882  0.0573 -1.3377  0.3315
12921TIP3   OH260253   5.239   3.132   5.297 -0.3256  0.3378  0.0381
12921TIP3    H160254   5.305   3.067   5.320  0.7670  1.1572 -0.7222
12921TIP3    H260255   5.164   3.081   5.267  0.9329 -0.5679 -1.6287
12922TIP3   OH260256   6.500   1.761  14.891  0.1789  0.4181 -0.3884
12922TIP3    H160257   6.450   1.831  14.850 -0.7199 -1.3852 -2.4188
12922TIP3    H260258   6.439   1.721  14.953  0.7927  1.5838  1.0141
12923TIP3   OH260259   2.698   5.934   5.930 -0.0665  0.2084  0.0757
12923TIP3    H160260   2.717   6.021   5.894  0.0424  0.2148  0.1491
12923TIP3    H260261   2.616   5.946   5.979  0.0193  0.3005  0.1971
12924TIP3   OH260262   5.378   1.645   2.253  0.4924 -0.1597 -0.0613
12924TIP3    H160263   5.384   1.556   2.219  0.0091  0.8138 -2.7780
12924TIP3    H260264   5.413   1.700   2.183  1.7933  1.7317  1.9896
12925TIP3   OH260265   3.944   3.586  17.114  0.4101  0.1480  0.2797
12925TIP3    H160266   3.955   3.561  17.023  0.2258 -1.0331  0.5722
12925TIP3    H260267   3.860   3.633  17.116  2.0541  3.2391 -0.7512
12926TIP3   OH260268   6.757   3.847  16.841 -0.1223 -0.4523 -0.0902
12926TIP3    H160269   6.840   3.894  16.849 -0.9612  1.1169 -0.4376
12926TIP3    H260270   6.729   3.863  16.751 -1.1143 -0.4372  0.2196
12927TIP3   OH260271   6.237   0.008  14.482 -0.3709 -0.3089 -0.8315
12927TIP3    H160272   6.317   0.048  14.450  0.6318 -2.5189 -1.2011
12927TIP3    H260273   6.191   0.078  14.528  3.4233  0.1295  2.4964
12928TIP3   OH260274   0.422   6.774   0.836  0.2265 -0.0533  0.2049
12928TIP3    H160275   0.364   6.798   0.764  0.1870 -0.5589  0.0698
12928TIP3    H260276   0.364   6.735   0.901  0.4556 -0.8310 -0.0543
12929TIP3   OH260277   3.562   1.561   1.863  0.1116  0.4862 -0.3953
12929TIP3    H160278   3.495   1.508   1.819 -0.3643 -0.5186  1.5020
12929TIP3    H260279   3.601   1.502   1.927  2.4471  1.2290 -1.0712
12930TIP3   OH260280   6.771   4.242  13.928  0.2860  0.0215  0.1471
12930TIP3    H160281   6.678   4.266  13.936  0.0062 -0.9667 -0.1094
12930TIP3    H260282   6.796   4.275  13.841  1.0045  2.9736  1.3840
12931TIP3   OH260283   2.204   1.366  15.943 -0.0494 -0.2599 -0.2444
12931TIP3    H160284   2.152   1.384  16.021 -0.5531  0.9453 -0.8453
12931TIP3    H260285   2.175   1.431  15.879  1.6506 -0.0500 -0.8418
12932TIP3   OH260286   1.321   5.677  12.106 -0.3634 -0.0843 -0.4708
12932TIP3    H160287   1.360   5.725  12.179  0.1267 -0.7712 -0.2784
12932TIP3    H260288   1.387   5.611  12.083 -0.1928  0.6131 -2.0258
12933TIP3   OH260289   2.081   5.536   5.337  0.9701  0.0008 -0.9941
12933TIP3    H160290   2.089   5.451   5.380  3.9107 -0.5938 -2.5393
12933TIP3    H260291   2.037   5.516   5.254  1.8110 -0.0497 -1.4299
12934TIP3   OH260292   4.134   2.178   0.816  0.5212  0.4964  0.0980
12934TIP3    H160293   4.128   2.105   0.878  2.0606 -0.0731 -0.4138
12934TIP3    H260294   4.053   2.227   0.830 -0.4105 -1.1375  0.6677
12935TIP3   OH260295   0.677   5.793  13.330  0.0383  0.3174 -0.5830
12935TIP3    H160296   0.583   5.807  13.318 -0.0199  0.1536 -0.3150
12935TIP3    H260297   0.692   5.702  13.304  0.0740  0.2532 -0.3329
12936TIP3   OH260298   4.939   5.978  13.970 -0.5025  0.6251 -0.5423
12936TIP3    H160299   4.887   5.919  13.916 -0.3944  0.4938 -0.5037
12936TIP3    H260300   4.880   6.003  14.041  0.1120 -1.0964  0.6086
12937TIP3   OH260301   6.104   1.781  15.101  0.1347  0.2912  0.2526
12937TIP3    H160302   6.015   1.749  15.118 -0.2156  0.8673 -0.4993
12937TIP3    H260303   6.120   1.761  15.009  1.1654 -0.7139  0.6336
12938TIP3   OH260304   6.250   3.264   2.891 -0.1448 -0.2552  0.1556
12938TIP3    H160305   6.179   3.231   2.946 -1.2425  0.9029 -0.5392
12938TIP3    H260306   6.268   3.193   2.830 -0.9025 -0.4558  0.1602
12939TIP3   OH260307   4.278   5.721  15.402 -0.1197  0.5212 -0.0410
12939TIP3    H160308   4.218   5.774  15.349 -0.5352  0.6084  0.5057
12939TIP3    H260309   4.364   5.762  15.390 -0.3870  1.1442  0.1423
12940TIP3   OH260310   4.925   0.140  16.488  0.4067  0.6008  0.4767
12940TIP3    H160311   4.847   0.164  16.437  1.8207  2.2621 -0.9753
12940TIP3    H260312   4.998   0.179  16.439  2.1110 -0.5780  2.0349
12941TIP3   OH260313   4.587   3.897   5.328 -0.3727  0.7095 -0.2162
12941TIP3    H160314   4.616   3.964   5.389 -0.1095  0.5911 -0.2127
12941TIP3    H260315   4.509   3.935   5.286  1.9480  2.6078 -3.0072
12942TIP3   OH260316   2.791   0.891  11.729  0.7639  0.2044  0.1656
12942TIP3    H160317   2.879   0.900  11.763  0.3629 -0.7582  1.4870
12942TIP3    H260318   2.755   0.814  11.774 -1.7786  2.2948  1.8423
12943TIP3   OH260319   1.255   0.983   6.254 -0.5185 -0.0885  0.3685
12943TIP3    H160320   1.287   0.955   6.340  1.5729 -1.4886 -0.8067
12943TIP3    H260321   1.273   1.077   6.251  1.8826 -0.5176  0.4746
12944TIP3   OH260322   5.317   3.021  15.436 -0.3297  0.9046  0.2576
12944TIP3    H160323   5.295   3.014  15.343  0.0305 -0.8901  0.2971
12944TIP3    H260324   5.241   2.986  15.482  0.2932 -0.0574  0.5705
12945TIP3   OH260325   4.076   5.603  15.555 -0.2091 -0.0757 -0.1159
12945TIP3    H160326   4.130   5.615  15.477 -0.0006  1.0777  0.1945
12945TIP3    H260327   4.034   5.688  15.568 -0.4450 -0.3360  0.8701
12946TIP3   OH260328   5.581   0.194   5.642 -0.7021 -0.2917 -0.6234
12946TIP3    H160329   5.590   0.236   5.728  0.8159 -0.4356 -0.6988
12946TIP3    H260330   5.531   0.256   5.590  1.4408  1.4243 -0.7149
12947TIP3   OH260331   1.251   4.226   5.151  0.6183  0.9017  0.5536
12947TIP3    H160332   1.200   4.245   5.229  1.1818  0.4428  1.0426
12947TIP3    H260333   1.194   4.249   5.078  0.2086  1.6483  1.1025
12948TIP3   OH260334   5.027   1.526   4.943 -0.1365 -0.2878 -0.5053
12948TIP3    H160335   4.986   1.474   4.874  0.7737 -1.5381 -0.1259
12948TIP3    H260336   5.112   1.551   4.908  0.3511 -0.9708  0.1707
12949TIP3   OH260337   5.777   1.124  12.749  0.2409  0.0363 -0.1027
12949TIP3    H160338   5.714   1.051  12.751 -0.0468  0.3084  1.1035
12949TIP3    H260339   5.732   1.192  12.699  0.5995 -0.6766 -1.4280
12950TIP3   OH260340   2.260   4.847   4.241  0.1750 -0.5875  0.4151
12950TIP3    H160341   2.326   4.912   4.268  0.9516 -1.6258  1.0696
12950TIP3    H260342   2.311   4.768   4.222 -0.6403 -0.6880 -1.4772
12951TIP3   OH260343   3.263   2.886   0.132  0.0037 -0.3374  0.6237
12951TIP3    H160344   3.298   2.805   0.096  1.0441 -0.2081  1.2952
12951TIP3    H260345   3.257   2.945   0.057 -0.6558 -0.9972  0.1523
12952TIP3   OH260346   2.228   5.047   3.014 -0.1708 -0.3095  0.6118
12952TIP3    H160347   2.270   5.102   2.947 -0.5311 -0.1533  0.5126
12952TIP3    H260348   2.264   5.080   3.096  0.2040 -0.4404  0.5025
12953TIP3   OH260349   1.050   6.242   3.941 -0.3374  0.2807 -0.0379
12953TIP3    H160350   1.132   6.245   3.988 -0.9026 -1.4050  1.1087
12953TIP3    H260351   1.061   6.304   3.869  1.2733  1.3583  1.1172
12954TIP3   OH260352   0.997   1.159   3.135 -0.5514  0.0413  0.1854
12954TIP3    H160353   1.028   1.194   3.219 -0.2227  3.1676 -1.1526
12954TIP3    H260354   1.019   1.227   3.072 -0.5392 -2.3835 -2.5125
12955TIP3   OH260355   3.752   3.200  16.777  0.1267  0.1834 -0.4470
12955TIP3    H160356   3.675   3.253  16.753  0.2194  1.3985  1.8229
12955TIP3    H260357   3.805   3.198  16.698 -1.3415  0.9107 -1.4823
12956TIP3   OH260358   2.779   5.094  11.072 -0.0204  0.3083 -0.2870
12956TIP3    H160359   2.841   5.100  10.999 -1.7059  1.7284 -1.6499
12956TIP3    H260360   2.810   5.157  11.136  1.0700 -0.4268 -0.0882
12957TIP3   OH260361   5.840   3.546   2.221  0.1429  0.0018 -0.3550
12957TIP3    H160362   5.752   3.563   2.254 -0.5119 -1.2558 -1.4195
12957TIP3    H260363   5.894   3.538   2.300 -0.6608  0.9135  0.2957
12958TIP3   OH260364   0.460   4.777   2.897  0.1044 -0.1192  0.5608
12958TIP3    H160365   0.422   4.693   2.925 -1.1785  0.3977  0.4415
12958TIP3    H260366   0.390   4.841   2.914 -0.1022  0.4694 -2.2697
12959TIP3   OH260367   6.799   4.104  13.224  0.3220 -0.0883  0.1573
12959TIP3    H160368   6.764   4.017  13.247  0.9698 -0.7895 -1.4537
12959TIP3    H260369   6.721   4.160  13.221 -0.2171 -0.8069  0.3484
12960TIP3   OH260370   5.380   1.119  17.051  0.2128 -0.1102  0.0779
12960TIP3    H160371   5.435   1.061  16.998  0.5344 -0.1114  0.4055
12960TIP3    H260372   5.308   1.063  17.082 -0.9420  0.3087 -1.7852
12961TIP3   OH260373   5.143   1.106   3.175  0.1167 -0.6586 -0.2629
12961TIP3    H160374   5.187   1.139   3.097  0.7126 -2.3452 -0.6789
12961TIP3    H260375   5.186   1.151   3.247 -0.8320  1.3534 -0.9205
12962TIP3   OH260376   6.163   0.802  14.659  0.2949 -0.5415 -0.3431
12962TIP3    H160377   6.079   0.781  14.702  0.6122 -0.2971  0.4141
12962TIP3    H260378   6.194   0.880  14.705  2.0709 -1.9884  1.0052
12963TIP3   OH260379   3.935   4.275  11.770  0.2532 -0.7835  0.3709
12963TIP3    H160380   3.991   4.332  11.718 -1.2378 -0.1806 -0.6175
12963TIP3    H260381   3.847   4.312  11.760 -0.9679 -3.8846 -1.2401
12964TIP3   OH260382   1.858   6.028   2.195 -0.4230  0.7886  0.2437
12964TIP3    H160383   1.896   6.027   2.283 -0.5035 -0.9592  0.2741
12964TIP3    H260384   1.763   6.034   2.210 -0.4721 -0.1191  0.2866
12965TIP3   OH260385   4.398   4.916   6.164  0.3770  0.0115  0.4526
12965TIP3    H160386   4.359   4.860   6.096  1.3511 -2.5744  1.9506
12965TIP3    H260387   4.324   4.938   6.222  0.2023 -0.7266  0.5157
12966TIP3   OH260388   4.272   2.041  13.449  0.4703  0.1782 -0.0801
12966TIP3    H160389   4.180   2.031  13.425 -0.0073  0.3925  1.6265
12966TIP3    H260390   4.313   2.081  13.373 -0.8486  0.0869 -0.8413
12967TIP3   OH260391   1.736   3.974  14.400  0.3008 -0.2583 -0.0225
12967TIP3    H160392   1.771   4.044  14.454 -1.9872 -0.0176  1.2194
12967TIP3    H260393   1.761   3.893  14.445 -1.3051 -0.0680  1.2810
12968TIP3   OH260394   3.536   2.094  12.295  0.1044 -0.2073 -0.1071
12968TIP3    H160395   3.573   2.059  12.376  1.6679 -0.7328 -1.0359
12968TIP3    H260396   3.442   2.076  12.303  0.3153 -0.7461  1.3443
12969TIP3   OH260397   4.661   4.012   5.067  0.2193 -0.0424  0.1045
12969TIP3    H160398   4.594   4.027   5.134  1.4710  0.9516  1.1558
12969TIP3    H260399   4.744   4.015   5.115  0.9386 -3.3108 -0.8123
12970TIP3   OH260400   1.933   5.361  11.822 -0.0418 -0.1028 -1.2101
12970TIP3    H160401   1.879   5.297  11.868  0.9072 -0.2524 -0.2980
12970TIP3    H260402   1.949   5.430  11.886 -2.1610  1.7494 -2.5607
12971TIP3   OH260403   4.256   3.163  12.851 -0.5552 -0.2987 -0.0781
12971TIP3    H160404   4.293   3.247  12.881  1.9299 -0.7021 -1.8780
12971TIP3    H260405   4.256   3.108  12.929 -1.3668  1.0691  0.9165
12972TIP3   OH260406   0.725   0.260   3.565  0.1848  0.9252 -0.1125
12972TIP3    H160407   0.637   0.297   3.554 -0.1616  0.2816  0.4774
12972TIP3    H260408   0.780   0.312   3.507 -0.7301  0.8170 -1.0888
12973TIP3   OH260409   0.732   1.057   6.466  0.6573  0.1403 -0.6926
12973TIP3    H160410   0.776   1.048   6.382 -0.1579  0.8753 -1.2045
12973TIP3    H260411   0.798   1.033   6.531  0.6059 -2.8475 -1.6388
12974TIP3   OH260412   4.281   3.970   3.671  0.0130  0.0828 -0.9649
12974TIP3    H160413   4.256   4.024   3.596 -1.5334  0.9574  0.1715
12974TIP3    H260414   4.227   4.002   3.743  2.1345 -0.1327  0.7680
12975TIP3   OH260415   5.282   4.689  15.578 -0.5954  0.5263  0.3082
12975TIP3    H160416   5.258   4.719  15.490 -1.5453  0.0670  0.4016
12975TIP3    H260417   5.203   4.702  15.630 -0.4090 -0.3142  0.8117
12976TIP3   OH260418   3.257   1.445   5.750  0.2026  0.0320  0.4113
12976TIP3    H160419   3.229   1.470   5.838 -1.2040 -1.0253  0.2968
12976TIP3    H260420   3.175   1.437   5.701  0.9545  0.2968 -0.9119
12977TIP3   OH260421   3.251   1.480  10.473 -0.0052  0.0742  0.8004
12977TIP3    H160422   3.182   1.546  10.473 -0.7411 -0.5765 -2.6070
12977TIP3    H260423   3.264   1.459  10.565 -2.7569  1.8776  1.6732
12978TIP3   OH260424   3.286   4.927  14.133 -0.5062  0.0413 -0.4501
12978TIP3    H160425   3.195   4.944  14.109 -0.2639  1.1989 -0.5841
12978TIP3    H260426   3.281   4.879  14.215 -1.2506 -0.1526 -0.6088
12979TIP3   OH260427   0.178   5.357   2.899  0.6013 -0.0729 -0.2408
12979TIP3    H160428   0.177   5.316   2.986  0.5136  1.4005  0.4634
12979TIP3    H260429   0.269   5.378   2.883  0.4175  0.9901  0.1255
12980TIP3   OH260430   3.243   4.511   3.056 -0.1845  0.1666  0.0427
12980TIP3    H160431   3.197   4.582   3.011 -0.8355  0.2722  0.8548
12980TIP3    H260432   3.271   4.452   2.986 -0.4610  0.7523 -0.5648
12981TIP3   OH260433   2.632   4.313   3.337  0.2367 -0.1002 -0.2333
12981TIP3    H160434   2.716   4.273   3.313 -0.8792 -1.4803 -2.0257
12981TIP3    H260435   2.638   4.326   3.432  2.4919 -0.1130 -0.3380
12982TIP3   OH260436   4.010   1.248  17.078 -0.1281 -0.0559 -0.8774
12982TIP3    H160437   4.027   1.304  17.154 -0.5338 -1.0790 -0.0206
12982TIP3    H260438   4.068   1.282  17.010  2.8276 -1.2764  0.9198
12983TIP3   OH260439   6.733   4.093   4.681 -0.0773  0.0549  0.2740
12983TIP3    H160440   6.820   4.131   4.687  0.2713 -0.3912 -1.4395
12983TIP3    H260441   6.674   4.168   4.669  0.4646  0.1656 -1.8748
12984TIP3   OH260442   2.209   3.171   0.080  0.4400  0.6385  0.0040
12984TIP3    H160443   2.293   3.191   0.122  2.4986 -2.1880 -2.5300
12984TIP3    H260444   2.151   3.146   0.153  2.8167 -0.6142  1.5465
12985TIP3   OH260445   5.098   1.148  10.962 -0.2634 -0.2509 -0.0406
12985TIP3    H160446   5.064   1.229  11.001  0.5732  1.0876 -1.9571
12985TIP3    H260447   5.021   1.103  10.929 -0.5939  0.7633 -0.7095
12986TIP3   OH260448   1.785   0.840   5.645 -0.1762  0.1264 -0.5959
12986TIP3    H160449   1.875   0.821   5.618  0.0864 -0.3409  0.6104
12986TIP3    H260450   1.742   0.755   5.648 -0.0933  0.1240  0.8497
12987TIP3   OH260451   5.506   2.985  13.118 -0.0989 -0.7604  0.3950
12987TIP3    H160452   5.556   2.913  13.157  0.6127 -0.9696 -0.8602
12987TIP3    H260453   5.491   3.047  13.190 -0.3855 -1.9778  1.3943
12988TIP3   OH260454   4.712   1.901   5.655  0.7062  0.2289 -0.4589
12988TIP3    H160455   4.751   1.885   5.570  0.9351 -0.2422 -0.2648
12988TIP3    H260456   4.777   1.870   5.718  0.7747  1.0729 -0.0960
12989TIP3   OH260457   5.677   6.288  15.979 -0.8296 -0.2797  0.8235
12989TIP3    H160458   5.587   6.254  15.976 -0.4079 -1.4164  0.5801
12989TIP3    H260459   5.731   6.212  15.956  0.0323  1.0859 -1.9090
12990TIP3   OH260460   3.846   1.786  16.005  0.0517  0.2756 -0.1751
12990TIP3    H160461   3.903   1.806  15.931 -0.1463  1.3959 -0.0361
12990TIP3    H260462   3.770   1.743  15.966  0.7563 -0.7402 -0.4152
12991TIP3   OH260463   0.607   6.801  14.352 -0.3040  0.0827 -1.2131
12991TIP3    H160464   0.581   6.775  14.264 -1.6438  0.8677 -1.0635
12991TIP3    H260465   0.609   6.720  14.402 -2.1711 -0.0279 -1.3092
12992TIP3   OH260466   5.923   4.397  15.802 -0.1076  0.1396  0.2185
12992TIP3    H160467   6.014   4.428  15.807  0.4864 -1.3393 -1.1027
12992TIP3    H260468   5.892   4.428  15.717 -0.9416  0.8425  0.7612
12993TIP3   OH260469   2.787   5.485  16.489  0.5720  0.0835 -0.0063
12993TIP3    H160470   2.847   5.558  16.475  0.9955 -0.2433  0.0846
12993TIP3    H260471   2.738   5.478  16.407  1.3267 -0.2577 -0.4376
12994TIP3   OH260472   1.887   0.418   0.103 -0.1646  0.1043 -0.2265
12994TIP3    H160473   1.935   0.336   0.090  0.9216  0.8899 -1.2938
12994TIP3    H260474   1.859   0.444   0.015  0.5295  1.4923 -0.0555
12995TIP3   OH260475   4.651   5.028   4.298  0.5993  0.7421  0.1535
12995TIP3    H160476   4.709   4.964   4.257  0.4679  0.4959  0.3531
12995TIP3    H260477   4.683   5.034   4.388  0.4232  0.7373  0.2152
12996TIP3   OH260478   0.402   1.608   2.443  0.3244  0.3871  0.4223
12996TIP3    H160479   0.457   1.542   2.401  2.3194  1.0042  1.9716
12996TIP3    H260480   0.332   1.625   2.380 -0.0309 -2.9137 -0.1613
12997TIP3   OH260481   4.540   1.129  13.078 -0.7506 -0.4274  0.0982
12997TIP3    H160482   4.530   1.224  13.066  0.7040 -0.1466  0.9561
12997TIP3    H260483   4.567   1.119  13.169 -0.9474 -1.6867  0.0316
12998TIP3   OH260484   5.525   5.654   3.608  0.6152 -0.5240  0.4419
12998TIP3    H160485   5.540   5.640   3.702  0.6610  2.7113  0.9621
12998TIP3    H260486   5.439   5.694   3.603  0.0654 -1.8467 -1.0377
12999TIP3   OH260487   6.756   0.253  12.852  0.1652  0.4531  0.2087
12999TIP3    H160488   6.662   0.265  12.837  0.3463  1.3773 -0.2130
12999TIP3    H260489   6.763   0.225  12.943 -0.6424 -1.2083 -0.2074
13000TIP3   OH260490   5.458   0.152   0.056 -0.1421 -0.2386 -0.0837
13000TIP3    H160491   5.427   0.172   0.144 -0.2525 -1.1803  0.0930
13000TIP3    H260492   5.383   0.112   0.012 -0.4158  1.1790 -0.9453
13001TIP3   OH260493   2.061   2.203  17.286 -0.2358  0.3515 -0.2577
13001TIP3    H160494   2.064   2.125  17.342  0.2137  0.1466 -0.5583
13001TIP3    H260495   1.976   2.199  17.244  0.0940 -0.4156 -0.8785
13002TIP3   OH260496   3.376   0.397   2.754  0.2706  0.6888  0.8807
13002TIP3    H160497   3.432   0.474   2.757  1.8465 -0.4350  1.3742
13002TIP3    H260498   3.375   0.364   2.844 -0.7470  0.3880  0.7693
13003TIP3   OH260499   0.277   1.432   3.314  0.2220 -0.2394  0.1429
13003TIP3    H160500   0.195   1.422   3.363 -0.3032  1.4810 -0.3619
13003TIP3    H260501   0.308   1.519   3.338  0.4576  0.2357 -1.8671
13004TIP3   OH260502   6.256   0.640   5.006 -0.1556 -0.1861 -0.4078
13004TIP3    H160503   6.188   0.708   4.999  1.2891  1.4191  0.6272
13004TIP3    H260504   6.334   0.680   4.967  0.3650 -1.7702 -1.0152
13005TIP3   OH260505   2.939   1.488  12.899  0.1791 -0.2777 -0.0911
13005TIP3    H160506   2.914   1.562  12.844 -0.6279 -1.3866 -1.2321
13005TIP3    H260507   2.868   1.425  12.889  0.2285 -0.6757  1.8976
13006TIP3   OH260508   4.150   3.075   2.730 -0.3607  0.0243  0.8011
13006TIP3    H160509   4.127   2.983   2.747  0.1859 -0.4658 -0.9349
13006TIP3    H260510   4.067   3.122   2.734 -0.9151 -0.8585 -0.1151
13007TIP3   OH260511   4.165   1.038  15.498  0.6175 -0.5512 -0.0016
13007TIP3    H160512   4.169   1.005  15.408 -1.2749 -2.6874  0.6459
13007TIP3    H260513   4.145   1.131  15.488 -0.0931 -0.8630 -1.7734
13008TIP3   OH260514   2.762   5.581  17.032 -0.2395  0.3770 -0.2179
13008TIP3    H160515   2.672   5.600  17.060 -0.1882 -0.1656  0.3208
13008TIP3    H260516   2.752   5.516  16.962 -0.2002 -0.6653  0.7426
13009TIP3   OH260517   6.024   3.782   3.649 -0.0304 -0.4710  0.4211
13009TIP3    H160518   5.969   3.704   3.645  0.3669 -0.6634 -2.1626
13009TIP3    H260519   6.110   3.753   3.618  0.0119  1.0420 -0.9465
13010TIP3   OH260520   3.234   4.377  11.175  0.7069 -0.4916  0.2222
13010TIP3    H160521   3.190   4.454  11.211  1.9757 -0.5803  2.0815
13010TIP3    H260522   3.260   4.403  11.087 -1.6353  0.0940 -0.3503
13011TIP3   OH260523   1.369   0.099   4.415 -0.6177  0.1676 -0.3552
13011TIP3    H160524   1.352   0.018   4.463  1.5918  1.9192  3.6284
13011TIP3    H260525   1.463   0.097   4.400 -0.9025  0.9468 -2.3133
13012TIP3   OH260526   2.016   0.110   0.298  0.2123 -0.3559 -0.4314
13012TIP3    H160527   1.954   0.171   0.338  0.8202 -0.2014  0.3013
13012TIP3    H260528   2.017   0.132   0.205  0.1966  0.5454 -0.2155
13013TIP3   OH260529   1.676   3.142  13.738  0.0759 -0.4604 -0.2306
13013TIP3    H160530   1.719   3.183  13.664  1.7185  0.8951  1.4120
13013TIP3    H260531   1.632   3.214  13.784  1.9658 -0.6338  1.9871
13014TIP3   OH260532   1.986   2.442   0.507  0.1320  0.1481  0.0260
13014TIP3    H160533   1.975   2.463   0.414  1.1273  0.5206 -0.0104
13014TIP3    H260534   2.013   2.350   0.507  1.0774  0.4226 -0.1085
13015TIP3   OH260535   2.316   6.719   5.592  0.7010 -0.1464 -0.2137
13015TIP3    H160536   2.318   6.737   5.686  1.3937 -3.0299  0.3907
13015TIP3    H260537   2.407   6.704   5.569  0.4906  0.2073 -1.2587
13016TIP3   OH260538   5.695   3.782   2.962  0.1676 -0.1805  0.4066
13016TIP3    H160539   5.784   3.811   2.981 -0.0307 -0.3596  1.6311
13016TIP3    H260540   5.691   3.777   2.866  1.4718 -0.1893  0.3496
13017TIP3   OH260541   4.790   1.737  15.193 -0.7098  0.1304  0.6548
13017TIP3    H160542   4.845   1.751  15.270  0.5233  2.3230 -0.5652
13017TIP3    H260543   4.724   1.807  15.198 -1.0364 -0.1341  0.0853
13018TIP3   OH260544   3.265   3.350  14.115 -0.2239 -0.0369 -0.0296
13018TIP3    H160545   3.238   3.300  14.192  0.4298 -2.6663 -1.4374
13018TIP3    H260546   3.198   3.418  14.106 -1.3902 -0.9105  1.7160
13019TIP3   OH260547   0.682   2.407   4.761  0.3328  0.3467  0.1319
13019TIP3    H160548   0.744   2.337   4.782  0.4099  1.0863  2.4805
13019TIP3    H260549   0.642   2.380   4.678  2.8779 -0.7511 -0.7764
13020TIP3   OH260550   1.190   0.431  16.098 -0.4307 -0.5058 -0.2917
13020TIP3    H160551   1.150   0.404  16.015 -0.5235 -2.1070  0.2569
13020TIP3    H260552   1.283   0.415  16.085 -0.5558 -1.7251  0.2580
13021TIP3   OH260553   1.404   3.870  16.344 -0.3742 -0.6402 -0.0027
13021TIP3    H160554   1.330   3.902  16.396 -0.3897 -1.4033  0.4481
13021TIP3    H260555   1.462   3.829  16.407  1.3620  1.6121 -0.0833
13022TIP3   OH260556   4.730   4.910  12.220  0.3093 -0.0713 -0.1128
13022TIP3    H160557   4.657   4.943  12.272  0.9024  0.5253  0.3520
13022TIP3    H260558   4.756   4.829  12.263  0.6091  0.2684  0.3487
13023TIP3   OH260559   3.218   5.365  11.864  0.2753  0.0108  0.8654
13023TIP3    H160560   3.278   5.293  11.850  1.2090  0.9478 -0.0313
13023TIP3    H260561   3.190   5.391  11.776 -0.5069  0.3632  1.2072
13024TIP3   OH260562   5.929   5.468   0.329  0.2531 -0.0571 -0.0237
13024TIP3    H160563   5.893   5.557   0.328 -1.1281 -0.5924  0.2574
13024TIP3    H260564   6.019   5.478   0.299 -1.2219  0.8710 -4.5701
13025TIP3   OH260565   6.088   4.800   0.764 -0.4043 -0.4363 -0.1635
13025TIP3    H160566   6.029   4.846   0.824  0.3656 -0.2976  0.4889
13025TIP3    H260567   6.071   4.841   0.679 -1.2653 -0.4144  0.0143
13026TIP3   OH260568   4.536   6.492   1.107  0.1626 -0.0341  0.0403
13026TIP3    H160569   4.465   6.525   1.162  0.6026  0.3763  0.3607
13026TIP3    H260570   4.497   6.418   1.060 -0.0787 -0.7028  1.2553
13027TIP3   OH260571   5.806   1.217   0.118  0.8580 -0.2394 -0.5356
13027TIP3    H160572   5.783   1.301   0.157  2.2915 -0.2317  0.3229
13027TIP3    H260573   5.866   1.239   0.046 -0.7672 -0.3496 -1.9595
13028TIP3   OH260574   4.557   0.376   5.471  0.3145  0.3408  0.8265
13028TIP3    H160575   4.475   0.357   5.425  0.4167 -0.4816  0.9855
13028TIP3    H260576   4.625   0.364   5.405  0.3860  0.1213  0.9430
13029TIP3   OH260577   6.438   3.291  16.732  0.1450 -0.0522 -0.2417
13029TIP3    H160578   6.505   3.235  16.772 -0.5382 -1.1210 -0.5659
13029TIP3    H260579   6.488   3.358  16.685  0.9840 -0.7413 -0.3565
13030TIP3   OH260580   4.000   3.852   1.221 -0.2907 -0.2183  0.4150
13030TIP3    H160581   3.939   3.834   1.292  0.5979 -1.0746  0.9695
13030TIP3    H260582   4.084   3.818   1.252  0.9484  2.7422  0.5351
13031TIP3   OH260583   1.157   4.414  14.665  0.3285 -0.4191 -0.0652
13031TIP3    H160584   1.084   4.400  14.726  1.3347  0.0330  1.2799
13031TIP3    H260585   1.120   4.398  14.579 -2.0144  2.2120  0.3922
13032TIP3   OH260586   6.522   2.809   4.687  0.5339  0.0187  0.2781
13032TIP3    H160587   6.467   2.783   4.760 -0.1752 -1.2986 -0.7064
13032TIP3    H260588   6.468   2.868   4.635  1.2850  1.5279  1.1820
13033TIP3   OH260589   2.211   1.489  15.560 -0.4888  0.4158 -0.4517
13033TIP3    H160590   2.178   1.449  15.479 -2.5747 -2.7693  1.8073
13033TIP3    H260591   2.305   1.472  15.559 -0.8640 -1.8550 -1.1002
13034TIP3   OH260592   2.323   2.229  16.485 -0.1091  0.4660  0.7362
13034TIP3    H160593   2.296   2.175  16.559  0.2262  0.8184  1.1152
13034TIP3    H260594   2.364   2.306  16.525  0.4473  0.4621  0.1794
13035TIP3   OH260595   6.027   3.184   4.014  0.0591  0.1262 -0.1747
13035TIP3    H160596   5.939   3.197   4.049 -0.8568 -1.3131 -1.8878
13035TIP3    H260597   6.054   3.272   3.987 -1.1716  0.4503 -0.3914
13036TIP3   OH260598   1.497   5.397   0.009  0.2136 -1.1964 -0.0485
13036TIP3    H160599   1.538   5.334  -0.050  0.9889 -0.5591 -0.2021
13036TIP3    H260600   1.559   5.404   0.082  0.8089  0.4248 -0.6901
13037TIP3   OH260601   1.263   5.923  15.374 -0.4737 -0.1007 -0.7833
13037TIP3    H160602   1.176   5.919  15.414 -0.7711  1.0827 -1.2853
13037TIP3    H260603   1.259   5.860  15.302 -1.1583  0.4761 -1.2549
13038TIP3   OH260604   3.553   2.454  14.001  0.0335 -0.8169  0.3725
13038TIP3    H160605   3.640   2.479  14.032  1.2926 -0.7459 -3.0510
13038TIP3    H260606   3.499   2.532  14.013  0.7233 -0.5001  1.4304
13039TIP3   OH260607   5.494   1.799   2.044 -0.2428  0.2442  0.4083
13039TIP3    H160608   5.553   1.771   1.974  0.0661  0.8490  0.4161
13039TIP3    H260609   5.463   1.885   2.015  0.6691  0.9482  1.4760
13040TIP3   OH260610   2.927   1.125  12.794  0.5507  0.2727 -0.1597
13040TIP3    H160611   2.865   1.197  12.801  1.6537  1.2743 -0.5217
13040TIP3    H260612   2.888   1.065  12.730 -1.2325 -0.3686  1.4685
13041TIP3   OH260613   0.905   2.379   6.473 -0.2765  0.5800 -0.0718
13041TIP3    H160614   0.895   2.366   6.567 -1.1101  0.5354 -0.1579
13041TIP3    H260615   0.991   2.344   6.452 -0.2484  0.2448  0.6129
13042TIP3   OH260616   0.885   0.705   2.638 -0.1855 -0.4626 -0.2339
13042TIP3    H160617   0.972   0.745   2.645 -0.3423  0.0581 -1.1151
13042TIP3    H260618   0.864   0.676   2.726 -1.1004  3.5483  0.9567
13043TIP3   OH260619   1.604   0.561   0.257  0.0832  0.2798  0.1930
13043TIP3    H160620   1.582   0.601   0.342 -0.6692 -0.6741  0.4568
13043TIP3    H260621   1.566   0.473   0.262  2.8120 -0.9387  0.0906
13044TIP3   OH260622   5.809   0.036  13.226  0.2254 -0.6868  0.1557
13044TIP3    H160623   5.825  -0.057  13.212 -1.4586 -1.1229  0.9597
13044TIP3    H260624   5.723   0.051  13.188 -0.1559  0.2180  1.3612
13045TIP3   OH260625   1.752   2.418  16.448  0.1909  0.2196 -0.1083
13045TIP3    H160626   1.745   2.417  16.352  2.1203  0.0151 -0.2779
13045TIP3    H260627   1.771   2.327  16.471  1.6170  0.5982  0.2809
13046TIP3   OH260628   3.408   0.696   4.333 -0.6979  0.2427  0.1260
13046TIP3    H160629   3.448   0.743   4.406 -1.4328 -1.2456  1.5297
13046TIP3    H260630   3.360   0.624   4.374 -0.7885 -0.8764 -1.8502
13047TIP3   OH260631   4.738   5.666  14.915  0.0603  0.2704  0.3178
13047TIP3    H160632   4.749   5.757  14.941  1.6626  0.5120 -1.0806
13047TIP3    H260633   4.780   5.660  14.829 -0.7749 -1.5882  0.0094
13048TIP3   OH260634   4.563   1.742   0.405  0.0098 -0.4524  0.5776
13048TIP3    H160635   4.602   1.660   0.436  0.8252 -0.4053 -0.3112
13048TIP3    H260636   4.469   1.731   0.422 -0.0174 -2.0265 -0.5075
13049TIP3   OH260637   3.433   5.616  14.422 -0.3714 -0.2939  0.2246
13049TIP3    H160638   3.349   5.615  14.468 -0.0224  2.3704  1.0100
13049TIP3    H260639   3.421   5.556  14.349 -3.0757  0.3051  0.1345
13050TIP3   OH260640   0.547   0.116  17.163 -0.2803 -0.1409  0.0126
13050TIP3    H160641   0.526   0.161  17.081 -1.3529  2.1944  1.5099
13050TIP3    H260642   0.610   0.049  17.139  0.6350  1.5649 -2.4775
13051TIP3   OH260643   1.169   2.632  11.820  0.7093 -0.2912 -0.4911
13051TIP3    H160644   1.104   2.661  11.885  1.8678 -0.4563  0.7673
13051TIP3    H260645   1.189   2.541  11.845 -0.1968 -0.9842 -2.2091
13052TIP3   OH260646   0.535   3.219  16.282 -0.4604  0.3280  0.0112
13052TIP3    H160647   0.503   3.229  16.192  1.3303 -0.4788 -0.7466
13052TIP3    H260648   0.535   3.308  16.317  1.7255  1.1153 -1.8357
13053TIP3   OH260649   4.332   5.680  15.975 -0.3281  0.0763 -0.3161
13053TIP3    H160650   4.397   5.735  16.019 -0.9224 -0.0988  0.8044
13053TIP3    H260651   4.379   5.600  15.954  0.2919  0.6453 -1.1070
13054TIP3   OH260652   5.696   1.785   2.898  0.2131 -0.3291 -1.0687
13054TIP3    H160653   5.669   1.699   2.867 -2.7342 -0.1323  0.6825
13054TIP3    H260654   5.613   1.832   2.911  1.7058  2.1951 -0.4879
13055TIP3   OH260655   4.989   5.267   0.650  0.0954 -0.2137  0.1489
13055TIP3    H160656   4.942   5.331   0.597  1.4981 -0.2682 -1.1740
13055TIP3    H260657   4.931   5.191   0.654 -0.5548  0.2653 -0.2499
13056TIP3   OH260658   4.419   3.061   2.735  0.1937  0.3506 -0.4271
13056TIP3    H160659   4.326   3.082   2.732 -0.6492 -2.8866  1.5064
13056TIP3    H260660   4.430   2.988   2.674  1.7646  1.5113 -1.6145
13057TIP3   OH260661   1.918   0.279  13.062  0.0853 -0.2623 -0.0148
13057TIP3    H160662   1.839   0.247  13.105  0.6868  1.9525  2.8598
13057TIP3    H260663   1.891   0.364  13.024  0.6602 -0.2833 -0.4758
13058TIP3   OH260664   4.325   2.951   3.033 -0.2640 -0.2488 -0.1876
13058TIP3    H160665   4.418   2.938   3.050  0.2653  2.2224 -0.9271
13058TIP3    H260666   4.305   2.890   2.961  0.9019 -0.4009 -0.3909
13059TIP3   OH260667   3.146   4.557   6.091  0.3070 -0.5314  0.3741
13059TIP3    H160668   3.228   4.525   6.054  1.0239  2.0162 -0.2965
13059TIP3    H260669   3.159   4.554   6.186  0.8120 -1.0079  0.2890
13060TIP3   OH260670   2.688   2.289  17.070 -0.5399 -0.0200 -0.1269
13060TIP3    H160671   2.783   2.300  17.071 -0.5254 -0.1391 -0.2537
13060TIP3    H260672   2.669   2.249  16.986 -0.5787 -1.0860  0.3881
13061TIP3   OH260673   5.850   0.530  14.630  0.2933 -0.2540  0.1510
13061TIP3    H160674   5.917   0.465  14.649 -0.9451 -1.6501 -0.2086
13061TIP3    H260675   5.785   0.484  14.578 -0.3957  1.3896 -0.4862
13062TIP3   OH260676   1.078   0.862   2.879  0.5305  0.0042 -1.2190
13062TIP3    H160677   1.063   0.841   2.971  0.0416  1.2354 -1.0053
13062TIP3    H260678   1.166   0.831   2.860 -0.4415 -2.8904 -1.1289
13063TIP3   OH260679   5.739   5.232  16.083  0.1845 -0.6655 -0.2280
13063TIP3    H160680   5.669   5.168  16.073  0.8183 -1.5973  1.0859
13063TIP3    H260681   5.711   5.287  16.156  0.4693 -0.5567 -0.1983
13064TIP3   OH260682   4.518   5.828  11.231  0.5294  0.2931 -0.8299
13064TIP3    H160683   4.501   5.854  11.141  1.2100  0.0224 -1.0417
13064TIP3    H260684   4.534   5.734  11.226 -1.0493 -0.0244 -0.1965
13065TIP3   OH260685   4.945   1.810  15.415 -0.0598 -0.2492  0.2074
13065TIP3    H160686   5.009   1.881  15.405  1.6509 -1.4454  2.1703
13065TIP3    H260687   4.914   1.818  15.505  1.4940 -3.0410  1.0385
13066TIP3   OH260688   4.335   3.886  14.462 -0.2390  0.0443 -0.2928
13066TIP3    H160689   4.346   3.797  14.494  0.0835  0.0635 -0.3505
13066TIP3    H260690   4.389   3.891  14.383 -0.7773  0.0893 -0.6684
13067TIP3   OH260691   1.380   2.089   2.600  0.4829 -0.4892  0.2343
13067TIP3    H160692   1.426   2.076   2.683  0.3679 -1.7513  0.1077
13067TIP3    H260693   1.385   2.183   2.585  0.2531 -0.1929  1.8251
13068TIP3   OH260694   3.754   2.022  10.967 -0.0825  0.5427  0.2044
13068TIP3    H160695   3.805   2.063  11.037 -0.7926 -0.0645  1.0792
13068TIP3    H260696   3.780   2.070  10.888  2.1833 -0.0393  0.5547
13069TIP3   OH260697   5.161   0.969   0.230  0.0795 -0.5658 -0.5662
13069TIP3    H160698   5.196   0.923   0.154  2.3989 -1.3369  0.8857
13069TIP3    H260699   5.172   0.907   0.302  1.3037  1.4746  1.0558
13070TIP3   OH260700   2.840   4.417   0.095  0.0629  0.0761  0.3694
13070TIP3    H160701   2.852   4.445   0.004 -2.0236  1.4817  0.5002
13070TIP3    H260702   2.857   4.495   0.147  0.1955 -0.4456  1.1183
13071TIP3   OH260703   1.077   2.023   1.921 -0.2767 -0.0566  0.6960
13071TIP3    H160704   0.990   2.018   1.880  0.8584  0.5250 -1.8782
13071TIP3    H260705   1.103   1.932   1.932 -0.2851 -0.2333 -0.6232
13072TIP3   OH260706   3.363   1.005   3.588  0.2930  0.9627  0.1709
13072TIP3    H160707   3.383   1.096   3.567  2.0540  0.7738  0.9964
13072TIP3    H260708   3.284   0.986   3.536  1.9232  1.8816 -2.7703
13073TIP3   OH260709   3.154   1.645   4.988  0.1855 -0.1678  0.3967
13073TIP3    H160710   3.215   1.576   4.962  0.2962  0.0230  0.1524
13073TIP3    H260711   3.114   1.675   4.907  0.5533  0.4465  0.4416
13074TIP3   OH260712   1.066   0.479   0.028 -0.4889  0.0885  0.0225
13074TIP3    H160713   0.984   0.515   0.062 -0.9500  0.7848 -1.7627
13074TIP3    H260714   1.046   0.389   0.005 -0.5203  0.0017  0.3933
13075TIP3   OH260715   2.812   3.022  13.325 -0.1903 -0.1797 -0.0721
13075TIP3    H160716   2.846   3.086  13.261  0.2591 -0.3621 -0.0157
13075TIP3    H260717   2.746   3.071  13.374 -0.0916  0.1472 -0.2579
13076TIP3   OH260718   6.033   5.941  15.723  0.3468 -0.0629  0.1853
13076TIP3    H160719   6.109   5.940  15.781 -0.3385 -1.1948  1.0806
13076TIP3    H260720   5.958   5.951  15.782 -0.2130  1.0157 -0.6840
13077TIP3   OH260721   1.311   2.325   0.827 -0.3703  0.7170 -0.0201
13077TIP3    H160722   1.379   2.380   0.787 -0.6863  0.5350 -0.8135
13077TIP3    H260723   1.359   2.250   0.862 -0.2049  0.3919 -0.9322
13078TIP3   OH260724   6.112   0.982   0.136  0.4335 -0.4443 -0.4399
13078TIP3    H160725   6.144   1.014   0.220 -1.5996  1.6804 -0.4465
13078TIP3    H260726   6.094   0.889   0.151  1.0502 -0.3138  1.1808
13079TIP3   OH260727   5.424   3.787   0.460 -0.5877  0.4023  0.5583
13079TIP3    H160728   5.413   3.714   0.399  3.3611 -0.1000  0.2752
13079TIP3    H260729   5.390   3.755   0.543 -0.7402 -1.0355 -0.0390
13080TIP3   OH260730   4.832   5.992   5.411  0.0844  0.4249 -0.0056
13080TIP3    H160731   4.855   5.970   5.320  3.3805  0.1183  0.8250
13080TIP3    H260732   4.897   5.945   5.463  0.4213  3.4137  2.3607
13081TIP3   OH260733   2.339   0.633   5.924 -0.3738  1.2633  0.2518
13081TIP3    H160734   2.400   0.605   5.856  0.6598 -2.8898  2.7068
13081TIP3    H260735   2.379   0.711   5.961  1.6588  0.6024 -0.4962
13082TIP3   OH260736   2.162   1.622   0.284  0.0917  0.2124 -0.4102
13082TIP3    H160737   2.126   1.562   0.218 -1.1084 -0.6369  0.9778
13082TIP3    H260738   2.246   1.584   0.308 -0.9780 -1.3214  0.9732
13083TIP3   OH260739   4.980   6.603   1.024 -0.3644  0.6918  0.0972
13083TIP3    H160740   4.904   6.660   1.032 -0.4650  0.4226  1.0919
13083TIP3    H260741   5.055   6.661   1.036 -0.5152  0.1520  4.2050
13084TIP3   OH260742   0.555   4.605  10.714  0.1993  0.1578  0.1420
13084TIP3    H160743   0.473   4.580  10.756 -0.4100 -0.5034 -1.4032
13084TIP3    H260744   0.623   4.556  10.761 -0.5525 -1.1873 -0.1593
13085TIP3   OH260745   0.622   2.691   5.346 -0.3740 -0.0839 -0.2669
13085TIP3    H160746   0.663   2.646   5.420  1.3783 -1.7570 -2.1903
13085TIP3    H260747   0.661   2.778   5.346  0.1456 -0.3128  0.3407
13086TIP3   OH260748   0.839   3.794   4.822 -0.2102  0.0531 -0.0850
13086TIP3    H160749   0.877   3.791   4.734  4.4430  1.7063  1.7017
13086TIP3    H260750   0.810   3.884   4.833 -2.3220 -0.5625 -0.4858
13087TIP3   OH260751   3.702   4.908   3.248 -0.9466 -0.4077 -0.1830
13087TIP3    H160752   3.608   4.922   3.263 -1.0762 -2.1924  0.7750
13087TIP3    H260753   3.738   4.996   3.239 -2.4531  0.3781  1.2005
13088TIP3   OH260754   0.699   4.633  12.278 -0.1503 -0.4589 -0.3281
13088TIP3    H160755   0.791   4.609  12.288 -0.3234 -1.2620 -0.6447
13088TIP3    H260756   0.650   4.560  12.315 -0.6703 -0.0454 -0.1783
13089TIP3   OH260757   3.715   4.782  14.343 -0.0288 -0.3344  0.5509
13089TIP3    H160758   3.700   4.811  14.253  2.7976  0.1465  0.2090
13089TIP3    H260759   3.710   4.687  14.338 -0.0140 -0.3058 -0.0821
13090TIP3   OH260760   6.131   2.231   3.793 -0.2404  0.0800  0.5009
13090TIP3    H160761   6.056   2.257   3.847  1.2979  0.3692  2.5682
13090TIP3    H260762   6.152   2.309   3.743 -1.5709 -0.1334 -0.4303
13091TIP3   OH260763   2.294   3.578   3.557  0.1159  0.0963  0.2893
13091TIP3    H160764   2.290   3.495   3.605 -0.6645  0.4453  0.8302
13091TIP3    H260765   2.318   3.552   3.468  2.1318 -0.4967  0.9782
13092TIP3   OH260766   2.076   0.986   5.666  0.4417 -0.0200  0.2169
13092TIP3    H160767   2.088   1.061   5.724  0.9470  0.9644 -1.1344
13092TIP3    H260768   2.018   1.017   5.597  2.9877  0.1041 -1.9909
13093TIP3   OH260769   1.001   6.179  12.523  0.5903  0.4802  0.3983
13093TIP3    H160770   1.011   6.236  12.599  1.2679 -1.9516  2.2146
13093TIP3    H260771   1.011   6.090  12.558 -0.3886 -0.7759 -2.3219
13094TIP3   OH260772   2.158   2.183  14.579 -0.2402 -0.9159 -0.2208
13094TIP3    H160773   2.071   2.153  14.551 -0.5306 -0.0109 -0.2903
13094TIP3    H260774   2.172   2.264  14.530 -0.6887  0.6223  2.1269
13095TIP3   OH260775   1.798   6.329  13.278  0.1437  0.3082  0.2592
13095TIP3    H160776   1.839   6.374  13.352 -1.0826  1.0378  0.4942
13095TIP3    H260777   1.782   6.398  13.214 -0.6263  0.0093  0.1293
13096TIP3   OH260778   1.801   0.899  13.876  0.0406  0.3296  0.3899
13096TIP3    H160779   1.849   0.900  13.959 -0.1725  2.5195  0.4986
13096TIP3    H260780   1.848   0.961  13.821 -2.7957  2.7403  0.5870
13097TIP3   OH260781   4.141   3.048  15.566 -0.1446 -0.3830  0.3066
13097TIP3    H160782   4.095   2.969  15.595 -0.5900  0.0024  0.6598
13097TIP3    H260783   4.225   3.016  15.532 -0.6548 -1.0882 -0.3058
13098TIP3   OH260784   4.176   6.206   4.949 -0.2191  0.2730  0.1226
13098TIP3    H160785   4.261   6.244   4.967  0.4672 -0.6218 -1.1996
13098TIP3    H260786   4.175   6.125   5.000  0.1520 -0.2573 -0.7076
13099TIP3   OH260787   6.022   1.324   4.470  0.0726  0.2010 -0.5145
13099TIP3    H160788   5.969   1.393   4.510  0.3153 -1.3102  2.5301
13099TIP3    H260789   6.102   1.369   4.440 -0.5469  1.5315 -0.1878
13100TIP3   OH260790   3.530   4.466   3.093  0.6074 -0.4876  0.6827
13100TIP3    H160791   3.446   4.510   3.101  1.8566  1.9687  0.8149
13100TIP3    H260792   3.583   4.503   3.164  2.4700 -0.4162 -0.7099
13101TIP3   OH260793   0.268   1.281  16.027  0.3586 -0.3616  0.1820
13101TIP3    H160794   0.353   1.259  16.065  1.2027 -0.4800 -1.7091
13101TIP3    H260795   0.264   1.230  15.946 -0.8384  0.8226 -0.5207
13102TIP3   OH260796   4.319   0.583  14.014  0.5615  0.0163  0.1019
13102TIP3    H160797   4.296   0.496  13.979 -0.1978  0.8005 -1.3925
13102TIP3    H260798   4.401   0.606  13.970  1.7188 -0.6959  1.8391
13103TIP3   OH260799   5.446   2.087   0.984 -0.0024  1.0368  0.5690
13103TIP3    H160800   5.355   2.106   1.006 -0.0640 -0.2785  1.5484
13103TIP3    H260801   5.466   2.007   1.034  0.1333 -1.6509 -3.5627
13104TIP3   OH260802   4.943   4.398   2.749 -0.0837  0.6491  0.0525
13104TIP3    H160803   4.854   4.367   2.764 -0.5790  2.1448  0.3238
13104TIP3    H260804   4.960   4.458   2.822  0.3728  1.9746 -1.1198
13105TIP3   OH260805   5.817   1.141   5.567  0.5891 -0.0714  0.0507
13105TIP3    H160806   5.768   1.200   5.510  0.9413  1.4013  1.2251
13105TIP3    H260807   5.755   1.072   5.590 -0.3509  0.7351 -0.0166
13106TIP3   OH260808   5.107   3.027   1.709  0.1422 -0.0972 -0.1945
13106TIP3    H160809   5.192   2.991   1.686 -0.3204 -1.6466  0.4290
13106TIP3    H260810   5.044   2.967   1.668 -0.6512 -0.3222  1.3342
13107TIP3   OH260811   0.189   3.258  12.885 -0.1634  0.3147  0.3175
13107TIP3    H160812   0.128   3.199  12.841 -2.0686  1.8717  0.7762
13107TIP3    H260813   0.243   3.293  12.815 -2.0171  1.4402 -0.6091
13108TIP3   OH260814   2.286   0.732   6.335  0.1466 -0.0652  0.7779
13108TIP3    H160815   2.316   0.669   6.401  0.0260 -1.8175 -0.7950
13108TIP3    H260816   2.330   0.705   6.254  1.7829  3.1995  0.5154
13109TIP3   OH260817   5.060   3.097  16.852  0.4447 -0.4277 -0.4299
13109TIP3    H160818   5.000   3.096  16.927 -0.3026  2.6403 -0.9173
13109TIP3    H260819   5.046   3.013  16.808 -1.5967 -0.8328  0.9486
13110TIP3   OH260820   2.492   1.963  13.779 -0.2535 -0.3974 -0.1372
13110TIP3    H160821   2.451   1.909  13.711  3.2371 -1.1301 -1.7885
13110TIP3    H260822   2.482   1.912  13.859  0.4153 -2.1831 -1.1525
13111TIP3   OH260823   4.699   6.362  12.971 -0.4726 -0.8840 -0.1851
13111TIP3    H160824   4.629   6.419  12.941 -0.1843  0.2007  1.1483
13111TIP3    H260825   4.760   6.358  12.898 -0.3006  0.8592 -0.1488
13112TIP3   OH260826   4.206   3.645   0.636 -0.2676  0.1811 -0.0244
13112TIP3    H160827   4.252   3.627   0.718 -1.0250 -0.6555  0.2357
13112TIP3    H260828   4.183   3.558   0.603 -1.0270  0.5621 -0.5072
13113TIP3   OH260829   5.438   0.060   2.537  0.5439  0.4872 -0.4367
13113TIP3    H160830   5.363   0.095   2.585  0.0846 -0.7410 -0.2223
13113TIP3    H260831   5.433   0.101   2.451 -0.3798  0.4229 -0.4192
13114TIP3   OH260832   5.402   4.737   0.083  0.2451  0.3855 -0.0754
13114TIP3    H160833   5.492   4.771   0.079 -0.0293  1.2966  1.0700
13114TIP3    H260834   5.412   4.650   0.123  0.6817  0.1929 -0.5875
13115TIP3   OH260835   1.555   3.534  10.500  0.0474 -0.0700  0.3465
13115TIP3    H160836   1.634   3.517  10.552  2.1235  1.4900 -2.2064
13115TIP3    H260837   1.544   3.629  10.504 -1.0818 -0.1714 -0.2440
13116TIP3   OH260838   5.791   4.930  13.373 -0.4039 -0.0081  0.1155
13116TIP3    H160839   5.858   4.980  13.326 -0.3091 -0.5051 -0.2850
13116TIP3    H260840   5.718   4.991  13.384 -0.2914  0.2153 -0.3827
13117TIP3   OH260841   1.111   4.554   1.309  0.5480  0.3465  0.4272
13117TIP3    H160842   1.065   4.633   1.337 -2.9105 -1.1261 -0.8249
13117TIP3    H260843   1.150   4.578   1.225  1.6567  1.4483  1.2370
13118TIP3   OH260844   0.132   5.758   5.414 -0.1342 -0.2429  0.0550
13118TIP3    H160845   0.079   5.830   5.446  1.1756  0.2058  1.2302
13118TIP3    H260846   0.154   5.707   5.492 -0.0675 -1.2739 -0.6123
13119TIP3   OH260847   6.287   3.594   4.904 -0.2221  0.0970 -0.4665
13119TIP3    H160848   6.226   3.522   4.921  0.8344 -0.5018  0.8500
13119TIP3    H260849   6.245   3.644   4.834 -1.5094 -1.1516 -0.6218
13120TIP3   OH260850   4.754   2.768  16.616  0.1253 -0.0634 -0.3367
13120TIP3    H160851   4.659   2.756  16.615  0.3576 -2.2130 -0.3495
13120TIP3    H260852   4.771   2.833  16.548 -1.4218  1.1305  0.4092
13121TIP3   OH260853   6.563   2.047   4.651  0.0207  0.1133  0.1865
13121TIP3    H160854   6.556   2.116   4.718 -1.4441  2.2070 -2.0560
13121TIP3    H260855   6.518   1.972   4.690 -1.7314  1.6213  1.1625
13122TIP3   OH260856   0.474   4.414   5.799  0.4312 -0.0704 -0.1016
13122TIP3    H160857   0.472   4.318   5.799  1.0229 -0.0865  1.6814
13122TIP3    H260858   0.511   4.438   5.884  0.5733  1.7395 -0.6520
13123TIP3   OH260859   0.502   5.147  15.465 -0.1329 -0.0798 -0.1502
13123TIP3    H160860   0.559   5.201  15.519 -0.0453 -1.7389  1.4656
13123TIP3    H260861   0.422   5.197  15.456  0.3850  0.8406  0.3197
13124TIP3   OH260862   0.312   4.076  11.430 -0.2388 -0.7245  0.3778
13124TIP3    H160863   0.320   4.152  11.487 -0.4866 -0.0062 -0.5235
13124TIP3    H260864   0.396   4.031  11.438  0.6787  0.7615 -0.6228
13125TIP3   OH260865   6.610   6.782   4.382 -0.0886  0.2033  0.1481
13125TIP3    H160866   6.628   6.722   4.455  2.4649  0.8326  0.0952
13125TIP3    H260867   6.585   6.864   4.425 -1.9143 -0.3821  0.2419
13126TIP3   OH260868   0.233   2.238   0.271  0.0708 -0.7506  0.6625
13126TIP3    H160869   0.294   2.165   0.281  0.7282 -0.4105 -0.7295
13126TIP3    H260870   0.287   2.316   0.283 -0.3827 -0.4638  0.8648
13127TIP3   OH260871   1.006   1.937   3.874  0.8974  0.3534 -0.1662
13127TIP3    H160872   0.968   1.960   3.958  1.2525 -2.4455  0.8036
13127TIP3    H260873   1.100   1.944   3.886  0.9440  0.1365 -0.3766
13128TIP3   OH260874   2.382   6.043  11.317 -0.5235  0.4802 -0.7186
13128TIP3    H160875   2.348   6.101  11.249 -0.4607  0.4356 -0.7881
13128TIP3    H260876   2.366   6.090  11.399 -1.0390  0.3228 -0.7248
13129TIP3   OH260877   5.012   3.691  14.502 -0.2607 -0.1306 -0.4821
13129TIP3    H160878   5.031   3.783  14.523  2.6270 -0.9955  1.0812
13129TIP3    H260879   4.989   3.691  14.409  0.6705  2.0586 -0.7321
13130TIP3   OH260880   4.751   6.072  14.148 -0.2203  0.3145  0.3315
13130TIP3    H160881   4.659   6.081  14.123 -0.0487  1.0122 -0.0467
13130TIP3    H260882   4.771   6.151  14.197  0.4715  0.6438 -0.4856
13131TIP3   OH260883   3.415   1.041   0.221  0.0141 -0.1717  0.4349
13131TIP3    H160884   3.501   1.002   0.234  0.0722 -0.1831  0.0286
13131TIP3    H260885   3.353   0.971   0.239  0.0483  0.1475  1.8904
13132TIP3   OH260886   3.249   3.479  16.807  0.0246  0.2024  0.0149
13132TIP3    H160887   3.175   3.540  16.807  1.4482  1.9572 -0.8895
13132TIP3    H260888   3.275   3.473  16.899 -1.3981 -0.6584  0.3828
13133TIP3   OH260889   5.640   0.747   1.249 -0.4999 -0.0597 -0.2487
13133TIP3    H160890   5.636   0.742   1.153  0.7356 -0.2842 -0.2995
13133TIP3    H260891   5.655   0.839   1.268 -0.5477 -0.0471 -0.2699
13134TIP3   OH260892   3.964   5.653  16.607 -0.9454  0.0989 -0.4635
13134TIP3    H160893   3.973   5.639  16.701 -1.3099 -0.7705 -0.5527
13134TIP3    H260894   3.980   5.567  16.568 -0.1748  0.5895 -1.2398
13135TIP3   OH260895   2.300   6.379   4.549 -0.1550  0.2685 -0.0231
13135TIP3    H160896   2.220   6.326   4.543 -0.3176  0.3000  1.6080
13135TIP3    H260897   2.369   6.316   4.569  0.2816  0.2225 -1.5632
13136TIP3   OH260898   3.407   2.027  11.565 -0.0529  0.1602 -0.6936
13136TIP3    H160899   3.393   1.983  11.481 -0.9074 -1.0316  0.0499
13136TIP3    H260900   3.332   2.087  11.574 -1.1169 -1.2607  0.1686
13137TIP3   OH260901   0.491   0.695  14.438 -0.3506  0.2871  0.0082
13137TIP3    H160902   0.431   0.628  14.405 -1.0274 -0.2974  2.3404
13137TIP3    H260903   0.447   0.778  14.416 -0.5214 -0.0679 -1.0237
13138TIP3   OH260904   5.944   3.818  15.407  0.2485 -0.4616  0.4886
13138TIP3    H160905   6.028   3.802  15.365 -0.0532 -2.0168  0.4147
13138TIP3    H260906   5.927   3.738  15.457 -1.9425 -0.8947 -0.8427
13139TIP3   OH260907   4.729   3.367   5.784 -0.2969 -0.0881 -0.1425
13139TIP3    H160908   4.670   3.428   5.740 -0.9900 -1.4342 -1.0930
13139TIP3    H260909   4.676   3.329   5.854 -0.1125 -0.2164 -0.0726
13140TIP3   OH260910   1.930   3.188   5.531 -0.2677 -0.0271 -0.6213
13140TIP3    H160911   1.892   3.173   5.617 -1.3160 -0.1421 -1.0967
13140TIP3    H260912   2.021   3.211   5.548 -0.9450  1.8141  0.6359
13141TIP3   OH260913   0.497   2.714  14.938 -0.0513 -0.2994  0.0591
13141TIP3    H160914   0.566   2.709  14.873 -0.2005  0.8850 -0.2051
13141TIP3    H260915   0.476   2.623  14.959  1.8859 -0.6719  0.4703
13142TIP3   OH260916   2.800   2.621   3.158  0.3356  0.5841 -0.3229
13142TIP3    H160917   2.766   2.548   3.107  0.7963  1.8351 -2.4642
13142TIP3    H260918   2.869   2.658   3.104  1.5920  1.2793  1.6961
13143TIP3   OH260919   0.773   3.415   4.629 -0.2186 -0.6935 -0.1517
13143TIP3    H160920   0.811   3.382   4.547  1.5388  0.6680  0.0736
13143TIP3    H260921   0.758   3.508   4.612  0.3314 -0.3634  1.1166
13144TIP3   OH260922   0.676   6.447   6.116 -0.1626 -0.3223  0.7476
13144TIP3    H160923   0.640   6.497   6.043  1.9649 -1.6764 -1.3062
13144TIP3    H260924   0.752   6.402   6.079  0.7283 -1.3726  3.7085
13145TIP3   OH260925   4.713   5.952   2.721 -0.4140  0.3246 -0.0445
13145TIP3    H160926   4.741   5.865   2.694 -1.6470  0.5949 -2.2535
13145TIP3    H260927   4.759   5.967   2.804 -1.2241 -2.9700  1.0742
13146TIP3   OH260928   1.135   2.015  17.158  0.4159 -0.2038  0.1809
13146TIP3    H160929   1.218   1.967  17.161 -0.4035 -1.6051  2.3639
13146TIP3    H260930   1.068   1.947  17.163 -0.8515  0.9918 -0.1012
13147TIP3   OH260931   4.789   3.277  16.693 -0.4597  0.1223 -0.0602
13147TIP3    H160932   4.796   3.347  16.757 -1.0145 -0.7162  0.9405
13147TIP3    H260933   4.701   3.241  16.707 -0.5384 -0.1507 -1.2052
13148TIP3   OH260934   2.344   0.613  16.597 -0.4519  0.2453 -0.0927
13148TIP3    H160935   2.411   0.650  16.540  0.1178  0.4762  0.7182
13148TIP3    H260936   2.261   0.635  16.554 -0.0398  0.6968 -0.6580
13149TIP3   OH260937   1.500   6.380   5.267  0.0587  0.2407 -0.5154
13149TIP3    H160938   1.554   6.415   5.196  0.5621  1.4068  0.4183
13149TIP3    H260939   1.426   6.441   5.273 -0.1805 -0.0705 -0.3161
13150TIP3   OH260940   3.574   0.353  14.790 -0.6024  0.2140  0.4628
13150TIP3    H160941   3.502   0.407  14.757 -0.7791 -0.3521 -0.0957
13150TIP3    H260942   3.637   0.416  14.825 -0.2706  0.8707 -1.2665
13151TIP3   OH260943   3.661   0.233   0.357  0.2323  0.1641  0.5336
13151TIP3    H160944   3.653   0.138   0.350  1.1193  0.0730  0.7523
13151TIP3    H260945   3.612   0.255   0.436  0.5827 -0.1877  0.8508
13152TIP3   OH260946   4.018   4.706  13.603  0.7284 -0.0530  0.0740
13152TIP3    H160947   4.093   4.734  13.655  1.4568 -0.9184 -0.4818
13152TIP3    H260948   4.016   4.611  13.612  0.0045 -0.0808 -0.3193
13153TIP3   OH260949   5.541   6.090   2.859  0.4944 -0.1054 -0.0385
13153TIP3    H160950   5.561   6.136   2.778 -0.4785 -0.9931 -0.8005
13153TIP3    H260951   5.610   6.024   2.868  0.4202 -0.2246 -0.3281
13154TIP3   OH260952   4.772   0.427   0.858  0.0194 -0.1746 -0.6648
13154TIP3    H160953   4.850   0.432   0.913  0.9779  1.6506 -2.1259
13154TIP3    H260954   4.703   0.396   0.916  1.5233 -0.5246  0.9763
13155TIP3   OH260955   0.860   0.349   4.077  0.6785  0.2357 -0.3465
13155TIP3    H160956   0.929   0.309   4.130  0.2342 -1.9087 -1.3631
13155TIP3    H260957   0.780   0.337   4.127  0.4959 -0.4464 -0.7931
13156TIP3   OH260958   0.923   4.984  16.928  0.0297 -0.0343  0.4601
13156TIP3    H160959   0.922   5.069  16.973 -1.2870  0.0481  0.2854
13156TIP3    H260960   0.987   4.996  16.857 -0.4897  0.9714  0.1450
13157TIP3   OH260961   4.713   3.089  13.998 -0.0726 -0.2545 -0.4204
13157TIP3    H160962   4.733   3.094  13.905 -0.9880 -0.8101 -0.6418
13157TIP3    H260963   4.797   3.065  14.039  0.0717 -1.0854 -1.2010
13158TIP3   OH260964   2.920   2.208  11.004 -0.3412 -0.0180  0.3795
13158TIP3    H160965   2.830   2.205  10.971 -1.0752 -0.5193  2.3722
13158TIP3    H260966   2.972   2.234  10.928 -2.4184  2.3450 -0.3045
13159TIP3   OH260967   6.419   5.558   3.060 -0.3289 -0.5335  0.2341
13159TIP3    H160968   6.486   5.499   3.093 -1.5820 -1.4578  1.1952
13159TIP3    H260969   6.410   5.535   2.967 -0.2767 -1.3400  0.4280
13160TIP3   OH260970   1.872   4.302   1.786 -0.1403  0.0583  0.4063
13160TIP3    H160971   1.857   4.210   1.809 -2.0955  0.0894 -0.6103
13160TIP3    H260972   1.939   4.299   1.718 -0.5339 -0.6856  0.0310
13161TIP3   OH260973   3.752   6.369   3.935 -0.4975 -0.2837  0.7326
13161TIP3    H160974   3.725   6.296   3.879 -0.7611  1.4488 -1.4688
13161TIP3    H260975   3.840   6.344   3.966 -0.2959 -1.2187 -0.5520
13162TIP3   OH260976   3.542   0.269  15.083  0.2239  0.4015 -0.1568
13162TIP3    H160977   3.489   0.189  15.086  0.8334  0.0271  1.3137
13162TIP3    H260978   3.522   0.309  14.998 -1.4477 -0.3869 -0.1470
13163TIP3   OH260979   1.926   2.489   1.336  0.5494 -0.4843 -0.1714
13163TIP3    H160980   1.834   2.490   1.312  0.2381  2.1947  0.9426
13163TIP3    H260981   1.939   2.405   1.381 -1.4390 -0.6844  0.0530
13164TIP3   OH260982   2.919   6.371  11.935 -0.0484 -0.0368  0.1150
13164TIP3    H160983   2.897   6.444  11.993  0.3871 -0.2614  0.5586
13164TIP3    H260984   2.891   6.401  11.848 -0.3224  0.4621  0.3726
13165TIP3   OH260985   1.546   4.326   0.250  0.3396 -0.1857  0.5300
13165TIP3    H160986   1.640   4.310   0.239  0.4100 -0.6656  1.7709
13165TIP3    H260987   1.505   4.258   0.197  0.6902 -0.3326  0.4415
13166TIP3   OH260988   4.170   2.796  12.202 -0.7526 -0.2210  0.2920
13166TIP3    H160989   4.117   2.788  12.123 -1.0522 -0.1564  0.4835
13166TIP3    H260990   4.192   2.889  12.207  0.1719 -0.4075 -0.2955
13167TIP3   OH260991   3.111   0.930   2.510 -0.9171  0.5474  0.0833
13167TIP3    H160992   3.125   0.921   2.604 -0.2223  0.1889 -0.0492
13167TIP3    H260993   3.083   1.021   2.498 -2.0527  0.2907  0.7498
13168TIP3   OH260994   4.021   6.500   5.850 -0.2224  0.0467 -0.6928
13168TIP3    H160995   4.027   6.470   5.941 -0.1459  0.1878 -0.6516
13168TIP3    H260996   3.929   6.486   5.827 -0.2050 -0.1428 -0.6465
13169TIP3   OH260997   4.903   3.750  12.115 -0.4541 -0.1090  0.2675
13169TIP3    H160998   4.831   3.714  12.064 -0.8904  1.4714 -0.2601
13169TIP3    H260999   4.881   3.729  12.206 -1.8182  0.7589  0.1482
13170TIP3   OH261000   0.211   4.502  12.192 -0.2261  0.2403  0.1087
13170TIP3    H161001   0.180   4.461  12.273 -0.2864  0.7196  0.3349
13170TIP3    H261002   0.134   4.545  12.156 -0.6711 -1.7148 -1.2964
13171TIP3   OH261003   6.628   0.984  13.911  1.0987 -0.0057 -0.4876
13171TIP3    H161004   6.647   0.890  13.909 -1.4175 -0.5409 -1.6629
13171TIP3    H261005   6.706   1.023  13.949  1.2203 -2.8092  2.3543
13172TIP3   OH261006   0.640   3.301  12.411  0.0142 -0.4376  0.5557
13172TIP3    H161007   0.688   3.336  12.486 -0.9863 -0.5910  1.2793
13172TIP3    H261008   0.681   3.342  12.335 -0.1532  1.1494  1.2969
13173TIP3   OH261009   1.927   0.114  11.238 -0.0221 -0.0756  1.0142
13173TIP3    H161010   1.915   0.110  11.143  0.1024 -0.7465  1.0274
13173TIP3    H261011   1.944   0.024  11.264  0.3874  0.1761  1.6168
13174TIP3   OH261012   5.065   6.222   0.028  0.0944  0.4287  0.5534
13174TIP3    H161013   5.051   6.128   0.016  0.9780  0.2037  1.2666
13174TIP3    H261014   5.039   6.239   0.119 -1.0660  1.0725  0.1099
13175TIP3   OH261015   5.507   0.947  16.878  0.7287 -0.1211 -0.6436
13175TIP3    H161016   5.547   0.872  16.923  0.5378 -0.3729 -0.8854
13175TIP3    H261017   5.578   0.986  16.828  0.8343 -0.1313 -0.5036
13176TIP3   OH261018   3.444   4.830   5.477  0.3834 -0.0589  1.0797
13176TIP3    H161019   3.428   4.920   5.446  1.2094 -0.7970 -1.6724
13176TIP3    H261020   3.357   4.792   5.487  0.0592  0.5862  0.7336
13177TIP3   OH261021   3.062   1.184  16.259 -0.0264  0.5597  0.5188
13177TIP3    H161022   3.132   1.239  16.222  3.0613 -2.0936  2.0836
13177TIP3    H261023   2.987   1.199  16.202  1.8754  3.3524 -1.4164
13178TIP3   OH261024   4.591   5.508  14.450 -0.5231  0.1379  0.2105
13178TIP3    H161025   4.507   5.491  14.408 -0.1817 -0.1053 -0.3737
13178TIP3    H261026   4.654   5.507  14.379  0.6463 -4.2948  1.1638
13179TIP3   OH261027   0.212   4.876  13.768  0.0469 -0.2537  0.3943
13179TIP3    H161028   0.183   4.948  13.712 -1.8303 -0.1880  1.4405
13179TIP3    H261029   0.183   4.797  13.722  1.3676 -0.3436 -0.3266
13180TIP3   OH261030   2.883   3.714  16.546  0.8195  0.0154  0.1791
13180TIP3    H161031   2.804   3.749  16.505 -0.6524 -2.8658  0.3737
13180TIP3    H261032   2.943   3.699  16.473  0.3146  0.1111 -0.2602
13181TIP3   OH261033   0.243   1.378  11.159  0.5323 -0.0355 -0.1582
13181TIP3    H161034   0.216   1.468  11.179  1.0907 -0.0488  0.6660
13181TIP3    H261035   0.170   1.342  11.109 -0.2714  0.4585  0.6343
13182TIP3   OH261036   4.819   5.144  15.968 -0.1919  0.2884  0.7740
13182TIP3    H161037   4.809   5.049  15.978  0.4282  0.3011  1.6336
13182TIP3    H261038   4.904   5.163  16.009  0.5421  0.9647 -1.0414
13183TIP3   OH261039   4.451   2.506  12.481 -0.1864  0.4264 -0.7225
13183TIP3    H161040   4.474   2.552  12.562  1.4145 -1.9200  0.2075
13183TIP3    H261041   4.368   2.462  12.502  0.1310 -0.0278 -0.4191
13184TIP3   OH261042   3.020   4.340  12.622 -0.2384 -0.2943  0.0049
13184TIP3    H161043   2.929   4.320  12.644 -1.0787  0.2185 -2.7754
13184TIP3    H261044   3.025   4.436  12.628  0.3108 -0.3627  0.7610
13185TIP3   OH261045   0.396   1.379   4.110 -0.7105  0.3663  0.3654
13185TIP3    H161046   0.485   1.403   4.084 -0.5356  0.6850  1.2350
13185TIP3    H261047   0.374   1.305   4.053  0.6692 -0.6617  1.1105
13186TIP3   OH261048   3.849   3.721  12.460 -0.2386 -0.5247 -0.1464
13186TIP3    H161049   3.782   3.775  12.418 -2.1113 -1.9029  1.0046
13186TIP3    H261050   3.869   3.767  12.542  0.0167 -0.2771 -0.3448
13187TIP3   OH261051   2.299   5.288   5.085 -0.3386 -0.1370  0.1718
13187TIP3    H161052   2.310   5.269   5.179  1.5549  0.6066  0.1224
13187TIP3    H261053   2.350   5.368   5.071 -1.9953  0.7037 -1.1601
13188TIP3   OH261054   2.116   2.010  15.231 -0.2298 -0.1384  0.6073
13188TIP3    H161055   2.040   1.968  15.190  0.6248 -1.9623  0.8405
13188TIP3    H261056   2.082   2.094  15.264 -1.6083  0.0589 -1.2145
13189TIP3   OH261057   5.507   2.364   4.940 -0.0642 -0.5642 -0.2994
13189TIP3    H161058   5.416   2.369   4.912  0.7331 -0.7282 -3.0794
13189TIP3    H261059   5.530   2.271   4.930  0.5939 -0.4112 -0.2574
13190TIP3   OH261060   0.663   6.564  13.848 -0.0956 -0.6861  0.0449
13190TIP3    H161061   0.618   6.481  13.864  0.7836 -1.3383 -0.7625
13190TIP3    H261062   0.647   6.583  13.755  2.3349 -1.6079 -0.6183
13191TIP3   OH261063   0.433   3.308  12.685  0.0193 -0.4315 -0.8576
13191TIP3    H161064   0.522   3.340  12.701  0.0555 -0.7338 -0.4523
13191TIP3    H261065   0.442   3.212  12.686 -0.6375 -0.4767  0.9948
13192TIP3   OH261066   6.208   5.698   3.638 -0.0834  0.4976  0.0971
13192TIP3    H161067   6.217   5.701   3.543  0.0704 -0.6820  0.0600
13192TIP3    H261068   6.121   5.660   3.652 -0.4522  1.4631  0.4283
13193TIP3   OH261069   3.631   4.838  12.564  0.3684 -0.0532  0.1288
13193TIP3    H161070   3.549   4.887  12.552 -0.6867 -1.6274  0.7668
13193TIP3    H261071   3.604   4.755  12.604  2.2092 -0.8614 -0.2452
13194TIP3   OH261072   1.375   3.303  14.377  0.5553  0.0490  0.1925
13194TIP3    H161073   1.290   3.346  14.383  1.1340  1.3379 -0.7131
13194TIP3    H261074   1.433   3.356  14.432  0.6954 -1.0175  1.0755
13195TIP3   OH261075   5.837   4.618  13.755  0.0717 -0.5938 -0.1045
13195TIP3    H161076   5.867   4.648  13.669 -0.3230  0.9945  0.3007
13195TIP3    H261077   5.784   4.690  13.788  1.2849 -0.6603  2.0417
13196TIP3   OH261078   3.683   1.496   2.404 -0.8574  0.1175  0.8805
13196TIP3    H161079   3.677   1.531   2.493  0.6462  1.0205  0.6583
13196TIP3    H261080   3.659   1.570   2.348 -0.6777 -0.1013  0.5102
13197TIP3   OH261081   1.660   6.072   2.817 -0.2081 -0.0208  0.1552
13197TIP3    H161082   1.683   6.127   2.743  3.3298 -0.9525  0.4978
13197TIP3    H261083   1.742   6.057   2.863 -2.1754 -0.2063  3.7913
13198TIP3   OH261084   1.481   0.922  11.280 -0.3755 -0.2312  0.0385
13198TIP3    H161085   1.553   0.894  11.223  0.9749 -1.5743  2.3609
13198TIP3    H261086   1.411   0.859  11.261  1.0235 -2.3798  1.8083
13199TIP3   OH261087   0.254   2.463  12.825 -0.0900 -0.8824  1.1827
13199TIP3    H161088   0.306   2.384  12.811  0.3126 -0.7405  1.8678
13199TIP3    H261089   0.268   2.516  12.747 -0.1813 -1.3818  0.8237
13200TIP3   OH261090   1.662   2.383  16.196  0.3535  0.2309 -0.4818
13200TIP3    H161091   1.596   2.321  16.166  0.5269 -0.2374  0.0817
13200TIP3    H261092   1.740   2.360  16.146  1.1826 -1.7984  1.6133
13201TIP3   OH261093   1.444   5.011   4.392  0.3410 -0.9829  0.0203
13201TIP3    H161094   1.411   4.921   4.388 -0.3512 -0.7005 -0.8357
13201TIP3    H261095   1.424   5.047   4.305  0.0752  0.1838  0.5632
13202TIP3   OH261096   0.924   3.689  12.064  0.4975  0.2451 -0.1868
13202TIP3    H161097   0.989   3.717  12.000  0.3558 -1.1078 -0.9461
13202TIP3    H261098   0.965   3.705  12.149  1.4478  0.2778 -0.6517
13203TIP3   OH261099   1.087   4.857  16.392 -0.2096 -0.2535 -0.1674
13203TIP3    H161100   1.026   4.926  16.419 -1.4135 -0.8178 -1.3765
13203TIP3    H261101   1.109   4.880  16.301 -0.0507 -1.0580 -0.3338
13204TIP3   OH261102   4.957   2.118   2.297  0.2921  0.3046 -0.2374
13204TIP3    H161103   4.864   2.096   2.309  0.4629 -0.5496 -0.4220
13204TIP3    H261104   4.959   2.214   2.294 -0.7523  0.3090 -1.4619
13205TIP3   OH261105   6.109   3.010   4.747  0.6160 -0.2559 -0.6164
13205TIP3    H161106   6.044   2.993   4.815  0.7633  0.8479 -0.1926
13205TIP3    H261107   6.133   3.101   4.759 -0.8554  0.5592 -3.4579
13206TIP3   OH261108   4.265   2.678  11.514  0.2030  0.2446 -0.7500
13206TIP3    H161109   4.269   2.645  11.424  0.5012 -1.4332 -0.1470
13206TIP3    H261110   4.356   2.694  11.538  0.2305 -0.4874 -0.3401
13207TIP3   OH261111   5.801   0.918  13.075  0.0182 -0.5642 -0.0278
13207TIP3    H161112   5.779   0.893  12.985  2.4316 -1.1233 -0.4968
13207TIP3    H261113   5.761   0.850  13.130 -0.5795 -0.7983 -0.7546
13208TIP3   OH261114   6.679   0.603   3.413 -0.5303  0.2229  0.0814
13208TIP3    H161115   6.615   0.674   3.408 -0.6682  0.0207 -1.0847
13208TIP3    H261116   6.648   0.538   3.350  0.0509 -0.5110  0.5410
13209TIP3   OH261117   4.658   6.518   4.865 -0.1416 -0.1618 -0.3102
13209TIP3    H161118   4.622   6.606   4.880 -3.7817 -1.5836 -0.3109
13209TIP3    H261119   4.605   6.461   4.920  1.4616 -2.5544 -1.1672
13210TIP3   OH261120   2.383   4.890   2.753  0.0826 -0.3461  0.3039
13210TIP3    H161121   2.396   4.978   2.789 -0.9477  0.3496 -0.9649
13210TIP3    H261122   2.289   4.884   2.739  0.1486 -1.6764  0.4120
13211TIP3   OH261123   6.139   6.645  11.494 -0.0395 -0.1739 -0.3814
13211TIP3    H161124   6.107   6.724  11.450  0.8971  0.9340  0.8523
13211TIP3    H261125   6.078   6.631  11.567 -0.2268 -0.6111 -0.6220
13212TIP3   OH261126   1.776   4.066   1.557  0.2202 -0.0469  0.1674
13212TIP3    H161127   1.754   4.022   1.475  1.2487 -0.3061  0.0263
13212TIP3    H261128   1.870   4.080   1.552  0.4112 -0.7228  1.6380
13213TIP3   OH261129   0.309   1.713  12.872 -0.1472  0.0909 -0.0736
13213TIP3    H161130   0.235   1.760  12.833  1.2742  1.6074 -1.0442
13213TIP3    H261131   0.270   1.659  12.940 -1.8963  2.5155  0.9257
13214TIP3   OH261132   5.155   1.895  14.389 -0.2566 -0.0907 -0.6290
13214TIP3    H161133   5.197   1.922  14.307  1.1233  0.5901  0.2934
13214TIP3    H261134   5.086   1.959  14.403 -0.6651 -0.3598 -1.3960
13215TIP3   OH261135   0.880   2.268   5.188  0.1586  0.2859  0.4692
13215TIP3    H161136   0.785   2.277   5.177 -0.0646 -0.5043  1.5504
13215TIP3    H261137   0.918   2.303   5.108 -1.1336 -1.2182 -0.8345
13216TIP3   OH261138   2.407   3.179   1.362 -0.0473  0.7435  0.9574
13216TIP3    H161139   2.380   3.141   1.278  0.0104  1.6593  0.5147
13216TIP3    H261140   2.402   3.107   1.424 -0.4350  0.1404  0.2318
13217TIP3   OH261141   4.915   1.210  13.812 -1.0532 -0.0168 -1.0462
13217TIP3    H161142   4.867   1.136  13.850 -0.2705  0.2620  0.5254
13217TIP3    H261143   4.939   1.180  13.725 -0.3760 -1.8046 -0.2777
13218TIP3   OH261144   5.206   1.216   1.869 -0.6533  0.7692  0.4837
13218TIP3    H161145   5.179   1.289   1.925  0.6053  1.3196  0.3792
13218TIP3    H261146   5.284   1.247   1.824  0.5003 -1.0183  1.2075
13219TIP3   OH261147   0.870   6.209   5.036 -0.0164  0.2642  0.0691
13219TIP3    H161148   0.858   6.299   5.067  0.5112  0.3118  0.1418
13219TIP3    H261149   0.785   6.184   5.000 -0.0940  0.8776 -0.1713
13220TIP3   OH261150   3.934   3.843   0.953 -0.8405 -0.1869 -0.3484
13220TIP3    H161151   3.938   3.839   1.048  2.4475  1.3604 -0.3468
13220TIP3    H261152   3.864   3.906   0.934 -2.0132 -1.0499  0.9832
13221TIP3   OH261153   2.842   3.420  16.949 -0.0449  0.1780 -0.1077
13221TIP3    H161154   2.889   3.500  16.926  1.2052 -0.0447  1.5988
13221TIP3    H261155   2.870   3.356  16.884  1.2242  0.3237  0.2967
13222TIP3   OH261156   4.861   1.132   2.095 -0.6041  0.2960 -0.1272
13222TIP3    H161157   4.857   1.045   2.135  0.0440  0.7610  0.9768
13222TIP3    H261158   4.815   1.122   2.011 -1.1948 -0.9218  0.3224
13223TIP3   OH261159   4.343   6.258  16.209 -0.1227 -0.3855 -0.1449
13223TIP3    H161160   4.353   6.228  16.299 -0.4554  0.1562  0.0756
13223TIP3    H261161   4.270   6.320  16.212  0.4986  0.3856 -0.6041
13224TIP3   OH261162   3.569   1.635   6.377  0.0899 -0.2438 -0.1701
13224TIP3    H161163   3.511   1.567   6.410 -0.5232  0.2459 -0.2330
13224TIP3    H261164   3.511   1.708   6.355  0.6179 -0.1270 -1.2012
13225TIP3   OH261165   4.584   6.800   4.431  0.3633 -0.4193 -0.1256
13225TIP3    H161166   4.587   6.881   4.380 -0.2554 -0.8214 -0.8042
13225TIP3    H261167   4.560   6.829   4.519 -1.9321 -0.0496 -0.8368
13226TIP3   OH261168   5.707   1.655   5.572  0.3237 -0.0149  0.0530
13226TIP3    H161169   5.746   1.580   5.619  0.0262 -0.1716  0.0501
13226TIP3    H261170   5.750   1.731   5.611 -0.2887 -0.1185  0.9373
13227TIP3   OH261171   0.077   5.315  12.882 -0.5682 -0.1042  0.2481
13227TIP3    H161172   0.169   5.342  12.887 -0.7082  0.4901 -0.3978
13227TIP3    H261173   0.079   5.220  12.900 -0.0588  0.2602  2.3220
13228TIP3   OH261174   3.714   0.459  11.523  0.3052 -0.1932  0.0458
13228TIP3    H161175   3.805   0.437  11.542 -0.3520 -2.2137  0.9810
13228TIP3    H261176   3.685   0.511  11.598  0.9806  1.3719 -0.7568
13229TIP3   OH261177   4.970   1.343  14.370 -0.3372 -0.0515 -0.1421
13229TIP3    H161178   5.064   1.361  14.365 -0.4031  0.2891 -0.1224
13229TIP3    H261179   4.938   1.402  14.438 -1.0168  1.6324 -1.9035
13230TIP3   OH261180   5.531   4.826  11.649 -0.6849 -0.2684  0.3158
13230TIP3    H161181   5.485   4.835  11.565 -1.9937  1.4661  1.1789
13230TIP3    H261182   5.461   4.821  11.714  0.3221 -1.7297  1.3072
13231TIP3   OH261183   6.042   3.118   2.211 -0.2928  0.0193  1.0604
13231TIP3    H161184   6.061   3.199   2.164  3.5429 -1.4861 -0.2351
13231TIP3    H261185   5.971   3.077   2.160  0.4615  0.7303 -0.6107
13232TIP3   OH261186   1.352   0.546  11.195 -0.3652  0.2381  0.0364
13232TIP3    H161187   1.289   0.482  11.229 -0.3655 -0.0205 -0.4491
13232TIP3    H261188   1.305   0.629  11.198 -0.6208  0.0961 -0.0188
13233TIP3   OH261189   6.666   3.614  12.060  0.3364 -0.2939  0.2307
13233TIP3    H161190   6.600   3.670  12.018 -1.2380 -2.7806 -0.7361
13233TIP3    H261191   6.631   3.597  12.147  0.5461 -0.1877  0.3338
13234TIP3   OH261192   3.009   4.477  16.673 -0.5745  0.2330 -0.9207
13234TIP3    H161193   2.976   4.560  16.707 -1.3301 -0.2649 -0.4497
13234TIP3    H261194   3.077   4.450  16.735 -1.0637 -0.0331 -0.5022
13235TIP3   OH261195   3.005   3.333  13.515 -0.3285 -0.2254 -0.7642
13235TIP3    H161196   3.013   3.425  13.492 -1.2441 -0.0719 -0.5097
13235TIP3    H261197   2.979   3.290  13.434  1.6885 -0.5224 -1.2776
13236TIP3   OH261198   4.961   2.063   4.119 -0.4389 -0.6269 -0.0310
13236TIP3    H161199   4.881   2.056   4.172  0.1779 -1.0800  0.8469
13236TIP3    H261200   4.969   2.157   4.101  0.0792 -0.2758  1.8615
13237TIP3   OH261201   1.262   3.451   1.253 -0.1757  0.6046  0.3617
13237TIP3    H161202   1.270   3.374   1.197 -5.2591  1.0512 -1.2685
13237TIP3    H261203   1.210   3.421   1.327 -0.4658  1.9857  0.7285
13238TIP3   OH261204   6.601   2.540   4.598 -0.0774  0.1059 -0.3241
13238TIP3    H161205   6.599   2.624   4.643  0.9095  0.0349 -0.1306
13238TIP3    H261206   6.623   2.476   4.666  0.9408 -0.0674 -0.8024
13239TIP3   OH261207   2.253   5.774   1.865  0.0029  0.3268  0.1274
13239TIP3    H161208   2.212   5.798   1.781  0.4641  1.2501  0.1600
13239TIP3    H261209   2.181   5.778   1.928 -0.3529 -0.4019 -0.2312
13240TIP3   OH261210   4.772   3.856  16.275  0.1447 -0.2804  0.5629
13240TIP3    H161211   4.850   3.874  16.328  0.1783 -0.4594  0.5740
13240TIP3    H261212   4.726   3.787  16.323 -0.0590 -0.1231  0.5949
13241TIP3   OH261213   5.830   4.281   5.212  0.4184  0.0136  0.0373
13241TIP3    H161214   5.823   4.375   5.192  2.5159  0.0240 -0.8165
13241TIP3    H261215   5.917   4.272   5.251 -0.2535 -1.3936  1.2192
13242TIP3   OH261216   1.216   1.143  14.770  0.3356  0.1798  0.0978
13242TIP3    H161217   1.275   1.069  14.779 -1.5019 -1.2612  0.5370
13242TIP3    H261218   1.270   1.220  14.791  1.4855 -1.2891  2.7368
13243TIP3   OH261219   4.466   3.625   2.682  0.1948 -0.4357 -0.8595
13243TIP3    H161220   4.447   3.564   2.753  3.7679 -0.1946  0.3636
13243TIP3    H261221   4.450   3.712   2.719 -0.3134 -0.3919 -1.1613
13244TIP3   OH261222   1.387   5.162  15.389  0.2019 -0.2834 -0.5260
13244TIP3    H161223   1.459   5.215  15.422 -0.4917  0.3607 -0.0109
13244TIP3    H261224   1.323   5.161  15.461 -0.6032 -0.2592 -1.2276
13245TIP3   OH261225   2.993   4.814   4.687  0.2770  0.3598 -0.0724
13245TIP3    H161226   2.947   4.819   4.603 -0.5623 -0.0283  0.3590
13245TIP3    H261227   2.978   4.900   4.727 -0.8921 -0.0986  0.4872
13246TIP3   OH261228   4.742   2.087   6.268  0.2692 -0.2317  0.2334
13246TIP3    H161229   4.688   2.026   6.318 -1.3105  0.7261 -0.2648
13246TIP3    H261230   4.714   2.076   6.177  0.9456  0.2309 -0.0381
13247TIP3   OH261231   4.824   6.557  13.549 -0.0911  0.0385  0.0444
13247TIP3    H161232   4.818   6.632  13.489 -0.6236 -1.6744 -2.0793
13247TIP3    H261233   4.735   6.524  13.555  0.1006 -0.2801  1.1676
13248TIP3   OH261234   4.280   2.640  16.390  0.2545  0.3920 -0.3416
13248TIP3    H161235   4.263   2.554  16.428  1.4463 -0.0897 -0.8650
13248TIP3    H261236   4.194   2.682  16.388 -0.2498 -0.5684  0.4438
13249TIP3   OH261237   2.649   4.352   3.613 -0.0106  0.3491  0.1152
13249TIP3    H161238   2.576   4.290   3.615 -1.2971  1.8370  0.2031
13249TIP3    H261239   2.724   4.301   3.642 -0.7517 -1.5332 -1.1976
13250TIP3   OH261240   6.349   1.328  11.195 -0.1399  0.0312 -0.1881
13250TIP3    H161241   6.334   1.379  11.275  2.1125 -1.1855  1.0586
13250TIP3    H261242   6.443   1.335  11.179 -0.3963 -0.6798 -2.0973
13251TIP3   OH261243   5.912   2.335  14.062 -0.2214  0.1564 -0.7887
13251TIP3    H161244   5.925   2.241  14.057  0.6929  0.2301  0.0604
13251TIP3    H261245   5.905   2.363  13.971 -1.5471 -0.8606 -1.0182
13252TIP3   OH261246   1.892   5.211   5.339  0.7317 -0.2820 -0.4300
13252TIP3    H161247   1.931   5.236   5.256 -1.0993  2.0379 -0.6484
13252TIP3    H261248   1.834   5.284   5.361  0.8430 -1.0599  2.6545
13253TIP3   OH261249   2.568   3.170   0.503 -0.2818 -0.0739 -0.0255
13253TIP3    H161250   2.514   3.112   0.450 -0.2727  0.6047 -0.7843
13253TIP3    H261251   2.613   3.227   0.440 -2.4682  2.6730  0.7816
13254TIP3   OH261252   3.803   3.929  15.145  0.2414 -0.0689  0.1915
13254TIP3    H161253   3.832   3.942  15.235  0.5570  0.1251  0.0633
13254TIP3    H261254   3.725   3.983  15.137  0.6936  0.5872  0.1036
13255TIP3   OH261255   5.905   0.714  13.964 -0.0095 -0.1986  0.0678
13255TIP3    H161256   5.971   0.654  13.996  1.5212  1.6511  0.4657
13255TIP3    H261257   5.878   0.765  14.041 -2.6030 -1.5462  0.1188
13256TIP3   OH261258   5.710   0.789   5.054 -0.1460  0.0584  0.1035
13256TIP3    H161259   5.804   0.788   5.069 -0.2754 -0.8817  0.8606
13256TIP3    H261260   5.687   0.882   5.053  0.1539  0.2382  4.0017
13257TIP3   OH261261   2.834   4.431  12.350 -0.0741  0.0295 -0.4789
13257TIP3    H161262   2.899   4.501  12.351  1.3793 -1.2823  0.2238
13257TIP3    H261263   2.878   4.359  12.306 -0.6428 -1.2442  0.9862
13258TIP3   OH261264   3.529   3.763  11.267 -0.0169  0.6145  0.0266
13258TIP3    H161265   3.543   3.849  11.227  1.8664 -0.2075 -1.1492
13258TIP3    H261266   3.503   3.707  11.195 -0.5175  0.0208  0.6670
13259TIP3   OH261267   4.182   4.227   4.194  0.6195  0.3014 -0.0809
13259TIP3    H161268   4.229   4.304   4.162  1.0882  0.7767  1.6906
13259TIP3    H261269   4.224   4.153   4.151  2.6840  0.7611  1.1029
13260TIP3   OH261270   4.051   5.920   0.261  0.3157 -0.4468  0.7371
13260TIP3    H161271   4.044   5.828   0.286  1.3921 -0.8285 -0.3269
13260TIP3    H261272   4.068   5.966   0.343  1.1264 -1.3531  1.0786
13261TIP3   OH261273   0.137   3.653   3.992 -0.0401 -0.2239 -0.3984
13261TIP3    H161274   0.169   3.682   3.907  0.5874  1.1897  0.3169
13261TIP3    H261275   0.188   3.703   4.056 -0.5499 -1.2248  0.8098
13262TIP3   OH261276   5.363   1.999  10.682 -0.7994  0.1740 -0.1430
13262TIP3    H161277   5.283   2.051  10.671 -1.3878 -0.5497  0.7273
13262TIP3    H261278   5.336   1.922  10.732  0.3929 -0.1954 -0.0466
13263TIP3   OH261279   0.314   4.251  15.266 -0.7668  0.1129 -0.0448
13263TIP3    H161280   0.379   4.230  15.199 -1.1577  0.2089 -0.4559
13263TIP3    H261281   0.365   4.266  15.346 -0.3602 -0.7343 -0.1469
13264TIP3   OH261282   2.958   2.821   3.862 -0.0762 -0.5105  0.4160
13264TIP3    H161283   2.946   2.915   3.878  0.7718 -0.4314  0.6106
13264TIP3    H261284   2.948   2.812   3.767 -1.2351 -0.3906  0.5218
13265TIP3   OH261285   4.817   5.770   2.316 -0.1289 -0.0571  0.4553
13265TIP3    H161286   4.799   5.840   2.378  0.4332  0.3384  0.1794
13265TIP3    H261287   4.891   5.722   2.354  0.4011  0.3581 -0.0367
13266TIP3   OH261288   6.776   1.643  14.418  0.5267  0.1104 -0.7638
13266TIP3    H161289   6.800   1.728  14.382 -3.3480  1.6624  0.1278
13266TIP3    H261290   6.730   1.663  14.500 -3.0128 -2.6351 -1.9700
13267TIP3   OH261291   4.700   2.071  12.420 -0.6550 -0.1071  0.1259
13267TIP3    H161292   4.700   1.976  12.429 -1.8241  0.0130  1.8095
13267TIP3    H261293   4.610   2.097  12.443 -0.7594  1.2862 -1.7463
13268TIP3   OH261294   4.387   5.896  11.509 -0.5151  0.3928  0.5545
13268TIP3    H161295   4.428   5.870  11.427 -1.3993  1.8068 -0.3717
13268TIP3    H261296   4.437   5.973  11.537  0.4779 -0.7240  1.9309
13269TIP3   OH261297   0.763   5.637   3.091 -0.1373  0.5925 -0.1328
13269TIP3    H161298   0.775   5.710   3.151  0.6418 -0.0826  0.5466
13269TIP3    H261299   0.779   5.674   3.005  1.9300  0.8436  0.3501
13270TIP3   OH261300   3.754   2.007   6.491  0.2547  0.3073  0.2856
13270TIP3    H161301   3.792   2.094   6.491 -0.6011  0.6875 -0.5055
13270TIP3    H261302   3.660   2.021   6.478 -0.1135 -0.6417  1.7177
13271TIP3   OH261303   3.435   6.740  17.183 -0.0988 -0.2932 -0.1161
13271TIP3    H161304   3.380   6.723  17.107  0.5256  0.7792 -0.8256
13271TIP3    H261305   3.375   6.769  17.251 -0.2905  2.0804 -1.2654
13272TIP3   OH261306   2.446   1.833  14.033 -0.1702  0.3782 -0.5011
13272TIP3    H161307   2.521   1.776  14.052 -0.5821  0.2381  0.7671
13272TIP3    H261308   2.391   1.827  14.111 -0.9171  1.4150 -0.9330
13273TIP3   OH261309   5.913   5.806   3.165  0.6404 -0.2991  0.3241
13273TIP3    H161310   5.827   5.782   3.131 -0.2547  2.8941  0.1838
13273TIP3    H261311   5.974   5.776   3.097 -0.6331  0.3477 -1.1358
13274TIP3   OH261312   4.675   4.271  12.045 -0.7441 -0.2320 -0.4385
13274TIP3    H161313   4.631   4.309  12.121  1.7272  0.8970  0.4869
13274TIP3    H261314   4.671   4.176  12.060 -1.4817 -0.0766  0.3992
13275TIP3   OH261315   2.203   4.774  12.325  0.1099  0.2591  0.6067
13275TIP3    H161316   2.162   4.691  12.349 -0.6367  0.8678  1.4592
13275TIP3    H261317   2.161   4.838  12.381 -0.4503  1.4572 -1.1520
13276TIP3   OH261318   2.162   3.327  13.377  0.0676 -0.2158  0.1867
13276TIP3    H161319   2.251   3.314  13.346  0.2948 -0.5244  0.9601
13276TIP3    H261320   2.107   3.282  13.312  0.4326  0.3507 -0.5272
13277TIP3   OH261321   2.549   4.396  16.151  0.0507  0.2339  0.4240
13277TIP3    H161322   2.472   4.394  16.093 -0.8225 -0.0923  1.5747
13277TIP3    H261323   2.531   4.466  16.213  0.3720 -0.2913  1.1155
13278TIP3   OH261324   5.785   5.673   5.242 -0.2703 -0.0318  0.1529
13278TIP3    H161325   5.755   5.760   5.268 -1.0066 -0.4824  0.8021
13278TIP3    H261326   5.718   5.641   5.182 -0.1420 -0.2663  0.1346
13279TIP3   OH261327   3.310   2.202   4.248  0.0126  0.2090 -0.0374
13279TIP3    H161328   3.215   2.205   4.248 -0.0273  0.1338  2.2304
13279TIP3    H261329   3.338   2.290   4.222 -0.6379 -0.0404 -1.6503
13280TIP3   OH261330   3.278   5.732  11.690 -0.0966  0.0642  0.8654
13280TIP3    H161331   3.329   5.683  11.625 -1.0046  2.1431 -1.5244
13280TIP3    H261332   3.325   5.814  11.702 -1.0762  0.5993  1.1609
13281TIP3   OH261333   6.501   5.440  15.047 -1.2226  0.8384  0.1210
13281TIP3    H161334   6.553   5.453  15.127 -0.7780 -0.0803 -0.0169
13281TIP3    H261335   6.515   5.349  15.024 -1.3990  1.0879 -0.9809
13282TIP3   OH261336   6.565   3.435   1.898  0.1157 -0.0561  0.4622
13282TIP3    H161337   6.584   3.401   1.810 -0.5445  0.3359  0.1720
13282TIP3    H261338   6.652   3.457   1.933  0.2802  1.0778 -0.6107
13283TIP3   OH261339   6.012   0.369   5.587  0.8558 -0.2430 -0.2237
13283TIP3    H161340   5.934   0.408   5.627  2.0626  0.4508  1.4937
13283TIP3    H261341   5.986   0.279   5.569 -0.4487  0.0597  0.0337
13284TIP3   OH261342   6.432   3.498   1.155  0.5753  0.6212 -0.0978
13284TIP3    H161343   6.405   3.410   1.181  0.8606  0.3354 -0.7580
13284TIP3    H261344   6.523   3.504   1.185  0.3090  0.9812  0.6502
13285TIP3   OH261345   5.306   2.281   2.700 -0.0649  0.1910  0.0045
13285TIP3    H161346   5.275   2.312   2.786 -0.3147 -2.6243  0.9735
13285TIP3    H261347   5.370   2.346   2.673 -1.5679  2.2982  1.3087
13286TIP3   OH261348   1.820   4.197  17.201  0.1619 -0.8251  0.1993
13286TIP3    H161349   1.806   4.177  17.109  0.7240  0.6191 -0.2002
13286TIP3    H261350   1.912   4.225  17.206  0.2633 -1.3336  1.2689
13287TIP3   OH261351   0.642   4.359   2.137  0.0673 -0.0307 -0.1325
13287TIP3    H161352   0.713   4.305   2.102  0.3964 -0.1558  0.7186
13287TIP3    H261353   0.657   4.361   2.231 -1.8236 -1.2013  0.2358
13288TIP3   OH261354   3.899   5.323  11.084 -0.4878 -0.4739  0.0478
13288TIP3    H161355   3.821   5.283  11.045 -2.0545  0.8878  1.6759
13288TIP3    H261356   3.907   5.408  11.041  0.3993 -0.8035 -0.4571
13289TIP3   OH261357   2.489   0.379  15.817 -0.5124  0.1202  0.3372
13289TIP3    H161358   2.400   0.413  15.820 -1.8935 -3.0231 -1.9032
13289TIP3    H261359   2.519   0.399  15.728  1.2805  1.6420  1.2423
13290TIP3   OH261360   2.526   2.218  13.575 -0.0566 -0.7476  0.4561
13290TIP3    H161361   2.607   2.210  13.625 -0.0294  0.1284  0.5595
13290TIP3    H261362   2.532   2.150  13.508  1.9017  0.9269 -1.1104
13291TIP3   OH261363   1.464   5.625   2.871  0.4655  0.2008  0.5264
13291TIP3    H161364   1.548   5.636   2.826  1.5768 -1.6241  2.1113
13291TIP3    H261365   1.411   5.573   2.811 -0.1171  2.6091 -1.1414
13292TIP3   OH261366   2.919   6.031  15.659  0.5693 -0.3586  0.7245
13292TIP3    H161367   2.842   5.974  15.656  1.2965 -1.3905  1.2517
13292TIP3    H261368   2.976   5.991  15.725  1.4169  0.5691  0.5722
13293TIP3   OH261369   1.090   0.213   3.587  0.2457  0.0454  0.4194
13293TIP3    H161370   1.185   0.210   3.594  0.3353 -0.4356 -0.8236
13293TIP3    H261371   1.071   0.174   3.502 -0.8939  2.3322 -0.4449
13294TIP3   OH261372   4.596   6.457   2.183 -0.2326 -0.5725 -0.2334
13294TIP3    H161373   4.632   6.545   2.195  0.5922 -0.9863  0.4264
13294TIP3    H261374   4.646   6.421   2.109 -1.3748 -0.0736 -1.2591
13295TIP3   OH261375   2.154   3.848  13.972  0.2411 -0.4771 -0.5516
13295TIP3    H161376   2.106   3.792  13.912 -2.0238  0.3070  0.4825
13295TIP3    H261377   2.141   3.937  13.937  0.3632 -0.1944  0.1176
13296TIP3   OH261378   2.966   4.684   4.218  0.0280  0.6244  0.8560
13296TIP3    H161379   2.961   4.778   4.199  0.9236  0.5462  0.2130
13296TIP3    H261380   3.049   4.656   4.180 -1.4057 -0.9542 -1.2732
13297TIP3   OH261381   0.736   6.800   0.166  0.3329 -0.0353 -0.1522
13297TIP3    H161382   0.760   6.776   0.256  0.3914 -2.3290 -0.7732
13297TIP3    H261383   0.654   6.755   0.150  0.2938  0.4157 -1.2567
13298TIP3   OH261384   3.710   3.373   6.644  0.6424  0.7384 -0.1444
13298TIP3    H161385   3.655   3.426   6.701 -1.7031 -1.3614 -0.3804
13298TIP3    H261386   3.706   3.285   6.681  1.3656 -0.0682 -1.9091
13299TIP3   OH261387   1.566   6.688  11.491 -0.1258 -0.1117 -0.3835
13299TIP3    H161388   1.542   6.771  11.533 -1.2057 -0.8131  0.3970
13299TIP3    H261389   1.576   6.710  11.398  0.4864  1.0784 -0.0503
13300TIP3   OH261390   3.667   2.881  11.147  0.6631 -0.0352 -0.1734
13300TIP3    H161391   3.724   2.952  11.117  0.1943  0.3433 -0.1762
13300TIP3    H261392   3.691   2.806  11.092  1.8474 -0.1653  0.4920
13301TIP3   OH261393   1.630   0.468   3.227 -0.4483 -0.0024 -0.2975
13301TIP3    H161394   1.684   0.547   3.218 -0.3512  0.2682  2.2114
13301TIP3    H261395   1.545   0.500   3.256 -0.6006 -0.7779  0.1264
13302TIP3   OH261396   6.504   2.974  11.589  0.4842 -0.0918 -0.3206
13302TIP3    H161397   6.437   2.915  11.556  0.5415  0.2489 -1.0640
13302TIP3    H261398   6.550   3.004  11.510 -0.1611  1.6932 -0.0413
13303TIP3   OH261399   0.989   5.816  12.447 -0.2433 -0.1348 -0.1563
13303TIP3    H161400   1.046   5.739  12.449 -0.1959 -0.1199 -0.7054
13303TIP3    H261401   0.956   5.819  12.357 -0.3756  0.3946 -0.0936
13304TIP3   OH261402   2.079   5.884   1.717  0.2338 -0.1179 -0.5776
13304TIP3    H161403   1.983   5.875   1.711  0.2104 -0.0805 -0.2508
13304TIP3    H261404   2.093   5.978   1.730  0.2660 -0.2398  0.3336
13305TIP3   OH261405   4.073   2.802   5.318  0.1338  0.1142  0.2596
13305TIP3    H161406   4.062   2.783   5.225 -0.1073  0.0778  0.2955
13305TIP3    H261407   4.119   2.886   5.320 -0.6383  0.5444  0.1161
13306TIP3   OH261408   5.828   4.669  14.471 -0.0567 -0.4723 -0.0720
13306TIP3    H161409   5.821   4.764  14.482 -0.4163 -0.3375 -1.4012
13306TIP3    H261410   5.917   4.655  14.440 -0.2053 -0.5187 -0.4722
13307TIP3   OH261411   4.068   3.885   3.867 -0.0085  0.1792  0.3280
13307TIP3    H161412   4.010   3.950   3.908  0.0966  1.5446 -1.6336
13307TIP3    H261413   4.011   3.814   3.842 -0.1857 -0.3568  2.1626
13308TIP3   OH261414   6.315   1.706  13.403  0.1217  0.0775 -0.1097
13308TIP3    H161415   6.313   1.737  13.493  0.2890 -0.5852  0.1269
13308TIP3    H261416   6.373   1.629  13.405  1.1719  0.8302 -1.0287
13309TIP3   OH261417   2.787   4.240  16.157  0.1825  0.3659 -0.0180
13309TIP3    H161418   2.700   4.263  16.189  0.2671  0.1232  0.3875
13309TIP3    H261419   2.844   4.247  16.234  0.6931  1.4761 -0.4895
13310TIP3   OH261420   4.045   1.143   0.606  0.1931 -0.2904  0.2275
13310TIP3    H161421   3.965   1.146   0.553 -0.6727 -0.3898  1.4847
13310TIP3    H261422   4.085   1.059   0.585 -1.5679 -1.5587  1.7040
13311TIP3   OH261423   3.927   3.149  16.565 -0.4372  0.3585 -0.7332
13311TIP3    H161424   3.947   3.110  16.480  0.4791  0.0901 -0.4083
13311TIP3    H261425   4.012   3.183  16.596 -0.4930 -0.7404  0.6700
13312TIP3   OH261426   4.066   6.459  13.636 -0.0711 -0.5088 -1.0724
13312TIP3    H161427   4.039   6.368  13.621 -3.1497  0.1397  0.1949
13312TIP3    H261428   4.063   6.469  13.731 -0.3484  1.1214 -1.2439
13313TIP3   OH261429   0.569   0.731   3.624  0.0930 -0.1307  0.2216
13313TIP3    H161430   0.560   0.756   3.716  0.7325 -0.1841  0.3028
13313TIP3    H261431   0.512   0.791   3.576 -2.7931 -2.1792  0.9566
13314TIP3   OH261432   0.866   0.982  15.181 -0.2433  0.0774  0.3095
13314TIP3    H161433   0.772   0.964  15.184 -0.3204  0.6486  1.5044
13314TIP3    H261434   0.906   0.904  15.219 -0.3991  0.9734  2.3848
13315TIP3   OH261435   0.546   0.393   5.913 -0.5275  0.3592  0.3848
13315TIP3    H161436   0.561   0.488   5.912  0.0781  0.2692  0.5294
13315TIP3    H261437   0.632   0.355   5.891 -0.2289 -0.2106  2.3689
13316TIP3   OH261438   1.874   3.270  16.559 -0.1954  0.6280  0.2451
13316TIP3    H161439   1.793   3.234  16.595 -0.8080  0.5465 -1.1879
13316TIP3    H261440   1.918   3.195  16.518  0.1633  0.8477  0.2247
13317TIP3   OH261441   5.323   2.332  11.650 -0.0482  0.4137 -0.0894
13317TIP3    H161442   5.296   2.412  11.695  1.7317  0.4501  0.9798
13317TIP3    H261443   5.245   2.276  11.650 -0.3142  0.7587  2.2854
13318TIP3   OH261444   0.881   2.166   3.277 -0.4793 -0.0582  0.1772
13318TIP3    H161445   0.795   2.195   3.308 -1.2420 -0.6021 -1.4049
13318TIP3    H261446   0.866   2.076   3.248  1.1492 -0.9691  2.0427
13319TIP3   OH261447   0.308   6.244  14.665 -0.5898  0.4873 -0.1029
13319TIP3    H161448   0.308   6.339  14.653  0.8832  0.1865 -2.7558
13319TIP3    H261449   0.224   6.215  14.628 -1.7147  0.8602  2.0570
13320TIP3   OH261450   3.260   3.088  11.816 -0.1295  0.0527 -0.2771
13320TIP3    H161451   3.204   3.027  11.863 -0.9309 -0.3162 -1.6779
13320TIP3    H261452   3.203   3.162  11.794  0.2981  0.3471 -0.4115
13321TIP3   OH261453   4.291   0.641   2.973 -0.0001 -0.3416  0.5329
13321TIP3    H161454   4.222   0.707   2.963  0.9156  0.2548 -2.3134
13321TIP3    H261455   4.243   0.560   2.991 -1.4148  0.2092 -0.6352
13322TIP3   OH261456   2.280   1.002   1.671 -0.0957  0.7005 -0.3793
13322TIP3    H161457   2.346   1.006   1.601  1.6346 -1.9204  1.0340
13322TIP3    H261458   2.325   0.960   1.744 -3.1586 -0.5181  0.8721
13323TIP3   OH261459   5.680   1.032  10.973  0.4415 -0.6946 -0.0491
13323TIP3    H161460   5.671   1.062  10.883  0.8186  0.9766  0.4521
13323TIP3    H261461   5.624   0.955  10.979 -1.6770  0.7328 -0.9981
13324TIP3   OH261462   2.610   5.502  11.272 -0.0104  0.6740 -0.0071
13324TIP3    H161463   2.607   5.416  11.230  0.4205  0.1128  1.0993
13324TIP3    H261464   2.527   5.510  11.319  0.6196  0.1747  1.2129
13325TIP3   OH261465   4.957   5.715   5.449  0.1983 -0.1718  0.1635
13325TIP3    H161466   5.028   5.719   5.386  1.6913 -1.2982  1.7220
13325TIP3    H261467   4.987   5.767   5.524 -0.8119 -0.2578  0.6505
13326TIP3   OH261468   5.892   4.731   3.678  0.0416 -0.1910 -0.2914
13326TIP3    H161469   5.801   4.732   3.650 -0.1372  1.0251  0.2807
13326TIP3    H261470   5.895   4.796   3.749  1.1499 -0.8888  0.3145
13327TIP3   OH261471   6.491   1.606  16.172  0.3968 -0.3524  0.5887
13327TIP3    H161472   6.477   1.570  16.084 -1.0597  0.3281  0.5310
13327TIP3    H261473   6.586   1.615  16.179  0.6709 -2.3108 -0.1455
13328TIP3   OH261474   4.696   3.656  15.376 -0.1644  0.3013 -0.4089
13328TIP3    H161475   4.715   3.628  15.286  0.0450 -2.9289  0.5993
13328TIP3    H261476   4.614   3.613  15.398  0.5554 -0.1279  1.4739
13329TIP3   OH261477   3.492   0.504  13.493  0.0401  0.5297  0.1343
13329TIP3    H161478   3.456   0.476  13.577  1.4706  0.1899  0.6418
13329TIP3    H261479   3.567   0.446  13.478 -0.7488 -0.0254 -1.8219
13330TIP3   OH261480   3.284   2.612  15.958 -0.5759 -0.4082  0.1860
13330TIP3    H161481   3.254   2.562  16.034 -1.0391 -1.9823 -0.9999
13330TIP3    H261482   3.373   2.580  15.942  0.0610  0.9637  0.9362
13331TIP3   OH261483   3.672   5.493   1.784  0.5071  0.4014  0.1620
13331TIP3    H161484   3.603   5.550   1.820 -0.4255 -0.6994  0.1351
13331TIP3    H261485   3.740   5.493   1.852  0.2774  1.0992  0.4051
13332TIP3   OH261486   0.956   3.288   3.289  0.6169  0.4258  0.4565
13332TIP3    H161487   0.997   3.371   3.310  0.5590  0.1824  1.5306
13332TIP3    H261488   0.870   3.292   3.331  0.2112  0.2266 -0.3293
13333TIP3   OH261489   3.703   1.379   2.036 -0.6247  0.1701  0.2795
13333TIP3    H161490   3.782   1.413   2.079 -1.2106  0.8764  0.8243
13333TIP3    H261491   3.720   1.286   2.024  0.6733  0.4958 -0.4710
13334TIP3   OH261492   3.277   2.614  15.518  0.4036 -0.4554  0.0029
13334TIP3    H161493   3.256   2.706  15.502  1.0002 -0.5380 -1.3551
13334TIP3    H261494   3.372   2.608  15.502  0.3057 -1.3699 -0.2836
13335TIP3   OH261495   6.092   4.253   4.992  0.1423 -0.0819  0.4414
13335TIP3    H161496   6.010   4.248   4.943  0.6459 -2.3308 -0.1985
13335TIP3    H261497   6.070   4.219   5.079  0.3332 -0.4196  0.3571
13336TIP3   OH261498   3.673   4.637   2.670  0.0723 -0.5201  0.6927
13336TIP3    H161499   3.698   4.557   2.717  3.2709 -0.0416 -0.0185
13336TIP3    H261500   3.701   4.708   2.727 -3.2534  0.1429  1.5603
13337TIP3   OH261501   0.845   2.292   1.890 -0.6761 -0.1796 -0.2503
13337TIP3    H161502   0.788   2.342   1.831  0.0761  1.6203  0.5099
13337TIP3    H261503   0.847   2.204   1.853  1.3216  1.3667 -4.0234
13338TIP3   OH261504   6.355   1.346  16.020 -0.3149  0.2488  0.0922
13338TIP3    H161505   6.335   1.284  16.090 -1.3944  0.7080  0.1901
13338TIP3    H261506   6.324   1.303  15.940  0.5280 -0.0865 -0.0684
13339TIP3   OH261507   1.051   3.155  11.338  0.5877 -0.2059  0.0514
13339TIP3    H161508   1.087   3.211  11.407 -1.2928  0.5491  0.4299
13339TIP3    H261509   1.127   3.131  11.286  1.8792  0.1314  1.7265
13340TIP3   OH261510   0.047   4.865  14.015 -0.5422  0.2310 -0.1927
13340TIP3    H161511   0.084   4.914  14.089  1.4212 -0.8351 -0.4288
13340TIP3    H261512   0.100   4.891  13.940  0.3490 -2.0002 -0.3821
13341TIP3   OH261513   6.231   5.018   3.566  0.0460  0.4714  0.0951
13341TIP3    H161514   6.151   5.051   3.606  0.3124  0.5192  0.5869
13341TIP3    H261515   6.204   4.939   3.519 -0.4202  0.8797 -0.3254
13342TIP3   OH261516   1.516   4.242   5.625  0.4436  0.3632 -0.7866
13342TIP3    H161517   1.473   4.298   5.561 -0.2237  1.3674  0.5040
13342TIP3    H261518   1.468   4.258   5.706  1.2294 -0.9256 -0.0485
13343TIP3   OH261519   1.230   6.161  11.750  0.3390 -0.1447 -0.2005
13343TIP3    H161520   1.325   6.159  11.760  0.3877  1.6488 -0.1206
13343TIP3    H261521   1.215   6.209  11.669 -0.5038 -0.3747 -0.1888
13344TIP3   OH261522   1.755   6.322   3.235 -0.4725  0.0785 -0.0536
13344TIP3    H161523   1.778   6.233   3.206  2.9393  1.2000 -1.0355
13344TIP3    H261524   1.688   6.309   3.301 -1.5588 -3.1165 -1.6619
13345TIP3   OH261525   4.620   1.076   6.350 -0.2185 -0.0269  0.2655
13345TIP3    H161526   4.619   1.154   6.405  0.8083  0.3873 -0.2921
13345TIP3    H261527   4.609   1.003   6.412  1.9534  0.3650  1.1519
13346TIP3   OH261528   0.983   0.073   0.870 -0.0701  0.1762  0.5373
13346TIP3    H161529   1.055   0.111   0.921  2.7102 -3.5229 -0.3883
13346TIP3    H261530   0.992   0.113   0.783 -0.2000  1.0235  0.9134
13347TIP3   OH261531   2.407   3.742  11.586  0.6466  0.1688  0.2358
13347TIP3    H161532   2.447   3.732  11.500  0.9506  0.5756  0.3257
13347TIP3    H261533   2.348   3.667  11.594  0.2182  0.4296 -0.5372
13348TIP3   OH261534   1.987   3.394  12.936 -0.8077  0.0554 -0.1484
13348TIP3    H161535   2.006   3.450  13.012  0.5712 -2.1544  1.2002
13348TIP3    H261536   1.988   3.453  12.861 -1.1198  2.1146  1.4341
13349TIP3   OH261537   6.130   1.810  17.267  0.6658 -0.2810 -0.0784
13349TIP3    H161538   6.172   1.895  17.278 -0.3419  0.3640 -1.1048
13349TIP3    H261539   6.120   1.776  17.356  0.6798  0.8727  0.3696
13350TIP3   OH261540   2.927   2.209  13.547 -0.0662 -0.3975  0.5499
13350TIP3    H161541   2.994   2.173  13.489 -1.2687 -0.3584 -0.9043
13350TIP3    H261542   2.891   2.283  13.498 -0.5052  0.1742  1.7251
13351TIP3   OH261543   3.345   0.433   6.363 -0.2842 -0.5767  0.1488
13351TIP3    H161544   3.392   0.386   6.294 -3.1041 -0.4123 -1.9807
13351TIP3    H261545   3.302   0.364   6.413  0.3801 -0.5930  0.7025
13352TIP3   OH261546   6.743   4.174   5.162  0.4529  0.4498 -0.4190
13352TIP3    H161547   6.753   4.083   5.189 -0.3332  0.4529 -0.0844
13352TIP3    H261548   6.672   4.173   5.098 -1.6236  1.1787  1.7399
13353TIP3   OH261549   4.773   3.711   4.897  0.1051 -0.2084  0.4301
13353TIP3    H161550   4.746   3.712   4.805  0.9504 -0.7433  0.1730
13353TIP3    H261551   4.696   3.743   4.945 -0.0722  0.7946 -0.5273
13354TIP3   OH261552   0.253   2.171   5.213  0.9682 -0.2030  0.0275
13354TIP3    H161553   0.243   2.266   5.210  1.4041 -0.0842  1.5640
13354TIP3    H261554   0.208   2.139   5.135 -1.5490  1.0906  0.8643
13355TIP3   OH261555   2.644   0.606   1.478  0.0974  0.1979  0.0388
13355TIP3    H161556   2.623   0.580   1.567  0.5571 -0.6002 -0.0836
13355TIP3    H261557   2.660   0.701   1.484 -2.0992  0.5811  0.3812
13356TIP3   OH261558   5.157   2.769  12.804 -0.4782 -0.2434 -0.2635
13356TIP3    H161559   5.099   2.845  12.795  0.4944  0.5836  0.2356
13356TIP3    H261560   5.242   2.801  12.774  0.0565 -0.9881  0.4512
13357TIP3   OH261561   5.239   2.856  14.327  0.2519  0.1518 -0.5814
13357TIP3    H161562   5.252   2.875  14.234 -1.9447 -0.3651 -1.0069
13357TIP3    H261563   5.198   2.935  14.362  0.1268 -0.0459 -0.2775
13358TIP3   OH261564   0.573   0.287  14.713 -0.0630  0.0013  0.3131
13358TIP3    H161565   0.561   0.274  14.619 -0.4290  1.2315  0.1871
13358TIP3    H261566   0.587   0.381  14.723 -0.9162 -0.0004  1.5835
13359TIP3   OH261567   0.318   5.585   0.762 -0.2998  0.2660 -0.0205
13359TIP3    H161568   0.365   5.668   0.774 -1.1878  0.9984 -1.4839
13359TIP3    H261569   0.243   5.592   0.821 -0.8330  0.8802 -0.7537
13360TIP3   OH261570   1.762   4.964  15.634  0.7561 -0.3141  0.1683
13360TIP3    H161571   1.837   5.014  15.603  0.6733 -0.0992  0.3154
13360TIP3    H261572   1.708   4.949  15.555  0.3259  0.6087  0.2870
13361TIP3   OH261573   5.950   4.791  15.085 -0.1370  0.7357  0.7474
13361TIP3    H161574   6.019   4.791  15.151  0.8471  0.3052 -0.2619
13361TIP3    H261575   5.888   4.726  15.116 -0.2802  1.3825  1.8509
13362TIP3   OH261576   6.703   6.290   4.749  0.2393  0.3580  0.1745
13362TIP3    H161577   6.631   6.274   4.688  0.2705  1.8115 -0.2396
13362TIP3    H261578   6.706   6.385   4.759  1.1315  0.2184  1.3645
13363TIP3   OH261579   3.655   4.515  11.492  0.0538 -0.5896 -1.2035
13363TIP3    H161580   3.575   4.481  11.452 -0.5070 -2.5806  1.5077
13363TIP3    H261581   3.624   4.577  11.558  0.8519  0.2963 -1.6528
13364TIP3   OH261582   6.234   5.134  13.366 -0.0987 -0.1854  0.1142
13364TIP3    H161583   6.293   5.192  13.413 -0.6709  0.3816  0.1491
13364TIP3    H261584   6.210   5.067  13.431 -2.2821  1.5931  1.2179
13365TIP3   OH261585   5.277   3.338   5.778 -0.1611 -0.1933 -0.0132
13365TIP3    H161586   5.323   3.342   5.862  1.6535  0.4700 -1.0114
13365TIP3    H261587   5.332   3.280   5.724 -0.0718  1.2054 -1.4651
13366TIP3   OH261588   0.131   6.438   4.977  0.3821 -0.0176  0.7448
13366TIP3    H161589   0.157   6.503   5.042 -0.3321 -0.3612  1.3895
13366TIP3    H261590   0.044   6.410   5.005 -0.4872  0.7557 -1.0745
13367TIP3   OH261591   1.162   0.464  13.560 -0.2175  0.4783 -0.2683
13367TIP3    H161592   1.254   0.484  13.578 -0.6376  3.0524 -0.7457
13367TIP3    H261593   1.122   0.453  13.646 -0.1341  2.7684  0.1046
13368TIP3   OH261594   0.299   1.819  13.652  0.0817 -0.5285 -0.1400
13368TIP3    H161595   0.220   1.840  13.604  0.1236 -2.0845 -0.9240
13368TIP3    H261596   0.341   1.904  13.669 -2.3719  0.4197  1.4103
13369TIP3   OH261597   1.912   6.387   3.966 -0.0082 -0.2231 -0.0344
13369TIP3    H161598   1.976   6.317   3.968  0.7478  0.4596 -0.1760
13369TIP3    H261599   1.933   6.441   4.043  0.2817  0.6120 -0.6972
13370TIP3   OH261600   1.310   6.477   2.050  0.4636 -0.3253 -0.5099
13370TIP3    H161601   1.216   6.491   2.059  0.3056 -0.9824 -1.0408
13370TIP3    H261602   1.345   6.563   2.028 -0.1326 -0.2487 -1.1906
13371TIP3   OH261603   4.179   0.304   1.833 -0.7195 -0.3569 -0.1198
13371TIP3    H161604   4.096   0.259   1.847 -1.1783  0.9229  1.4603
13371TIP3    H261605   4.245   0.236   1.845 -1.4691 -1.0321  0.2738
13372TIP3   OH261606   5.192   3.762   3.053 -0.1448  0.4141 -0.3517
13372TIP3    H161607   5.153   3.704   2.987  0.8704 -1.4908  0.6941
13372TIP3    H261608   5.142   3.744   3.133  0.0569  1.1138 -0.0682
13373TIP3   OH261609   5.497   4.398  11.385 -0.6775  0.3655 -0.2775
13373TIP3    H161610   5.464   4.455  11.316 -1.1619  0.5149  0.0740
13373TIP3    H261611   5.549   4.333  11.339 -0.9624  0.4892 -0.7826
13374TIP3   OH261612   1.173   2.292  12.139  0.1778  0.0323 -0.7064
13374TIP3    H161613   1.150   2.301  12.046  1.2590 -0.4166 -1.0330
13374TIP3    H261614   1.090   2.278  12.183 -0.5431  2.0830 -1.3736
13375TIP3   OH261615   1.129   3.799  11.900  0.1713  0.6077 -0.4794
13375TIP3    H161616   1.223   3.814  11.891  0.3765 -0.6990 -0.6383
13375TIP3    H261617   1.113   3.717  11.854 -0.7306 -0.1372  1.0906
13376TIP3   OH261618   4.080   4.999  16.105  0.5668 -0.6061  0.4351
13376TIP3    H161619   3.989   5.009  16.133  0.8092 -0.0060  1.0162
13376TIP3    H261620   4.080   5.026  16.013  0.2641 -0.0657  0.5921
13377TIP3   OH261621   2.174   4.642   4.442  0.0098  0.0702  0.1538
13377TIP3    H161622   2.106   4.649   4.375 -0.1378 -1.3577  0.1425
13377TIP3    H261623   2.206   4.732   4.454  1.5096  0.0649 -3.3314
13378TIP3   OH261624   0.439   3.436  12.191 -0.3850  0.6558  0.4023
13378TIP3    H161625   0.409   3.486  12.115  0.0221  1.9158  1.0565
13378TIP3    H261626   0.534   3.430  12.180 -0.3220  0.8582  0.8187
13379TIP3   OH261627   0.698   3.970  16.903  0.2425  0.0858 -0.3797
13379TIP3    H161628   0.788   3.953  16.876 -0.1293  0.1539 -1.7185
13379TIP3    H261629   0.696   3.948  16.996  1.2924 -1.2501 -0.6580
13380TIP3   OH261630   5.599   2.895   4.948 -0.2000  0.3951 -1.0223
13380TIP3    H161631   5.642   2.813   4.970 -0.5774  0.3767 -0.3575
13380TIP3    H261632   5.661   2.963   4.974 -0.1681  0.3394 -0.9537
13381TIP3   OH261633   2.209   4.879   5.484 -0.2707 -0.2974  0.1283
13381TIP3    H161634   2.132   4.844   5.438  0.8930 -1.2539 -1.1412
13381TIP3    H261635   2.260   4.923   5.416 -1.4678  3.6049  1.5994
13382TIP3   OH261636   0.004   5.377  17.244 -0.2633 -0.2374  0.5660
13382TIP3    H161637   0.063   5.418  17.181  1.1732 -1.6807  0.9042
13382TIP3    H261638  -0.023   5.448  17.301 -0.0248  0.7327 -0.4976
13383TIP3   OH261639   5.043   1.981   0.668  0.1743  0.2032 -0.2825
13383TIP3    H161640   4.970   2.032   0.704  0.4204  0.2396  0.1648
13383TIP3    H261641   5.111   1.985   0.735  0.4572 -0.1304 -0.5463
13384TIP3   OH261642   6.474   4.586  13.762  0.0077 -0.1247 -0.0410
13384TIP3    H161643   6.388   4.626  13.775  0.3025  0.8534 -1.0245
13384TIP3    H261644   6.536   4.658  13.774  0.5923 -0.4648 -0.9497
13385TIP3   OH261645   6.351   4.018  16.413  0.2884  0.2878  0.2827
13385TIP3    H161646   6.275   4.069  16.440  0.3216  0.4730  0.0357
13385TIP3    H261647   6.416   4.033  16.482 -0.4628 -1.1912  1.3337
13386TIP3   OH261648   6.647   1.118  15.996  0.2399 -0.1717  0.5533
13386TIP3    H161649   6.630   1.189  15.934  0.9875 -0.0644  0.4716
13386TIP3    H261650   6.565   1.069  16.000 -0.0895  0.3494  0.1609
13387TIP3   OH261651   4.654   2.609   1.621 -0.2584  0.1506  0.0892
13387TIP3    H161652   4.620   2.696   1.642 -1.5121 -0.6057  1.2517
13387TIP3    H261653   4.578   2.551   1.629  0.4559 -0.9793 -1.1967
13388TIP3   OH261654   2.228   0.880  14.381  0.4212  0.8219  0.4028
13388TIP3    H161655   2.222   0.789  14.408 -2.3464  0.0591 -2.4702
13388TIP3    H261656   2.276   0.878  14.299  0.4336  1.9509  0.3685
13389TIP3   OH261657   1.100   3.171   2.474  0.4492  0.0060 -0.1638
13389TIP3    H161658   1.157   3.150   2.548  0.3145  0.3314  0.0333
13389TIP3    H261659   1.110   3.265   2.462 -0.6609  0.1988  0.3916
13390TIP3   OH261660   2.689   0.354   5.519  0.3199  0.1969  0.0500
13390TIP3    H161661   2.702   0.408   5.441 -0.0792  0.8813  0.4557
13390TIP3    H261662   2.603   0.314   5.506  1.3089 -1.6797 -1.0386
13391TIP3   OH261663   6.175   0.234   1.871 -0.1286 -0.3396  0.2741
13391TIP3    H161664   6.203   0.165   1.931 -0.9902 -0.5808  0.3949
13391TIP3    H261665   6.106   0.281   1.917  0.0145  0.2131 -0.0595
13392TIP3   OH261666   2.077   4.835   0.206 -0.4739  0.5528  0.0839
13392TIP3    H161667   2.158   4.872   0.173 -0.1524 -1.5613 -1.5862
13392TIP3    H261668   2.041   4.785   0.133 -0.1228 -3.6577  2.6373
13393TIP3   OH261669   3.908   4.154   4.702  0.4322 -0.3611  0.3860
13393TIP3    H161670   3.919   4.070   4.747  1.2909  0.2531  1.3313
13393TIP3    H261671   3.813   4.167   4.699  0.3215 -1.0185  0.8697
13394TIP3   OH261672   0.239   3.184   1.770 -0.2031 -0.0029 -0.2500
13394TIP3    H161673   0.275   3.272   1.765  1.8527 -0.8725 -1.2892
13394TIP3    H261674   0.159   3.188   1.718  0.7193  0.8648 -1.6255
13395TIP3   OH261675   3.529   0.766  16.531  0.2955  0.2266  0.4788
13395TIP3    H161676   3.575   0.846  16.557  1.7169 -0.6352  0.6670
13395TIP3    H261677   3.557   0.700  16.595 -1.1452 -0.3442  0.5424
13396TIP3   OH261678   5.731   6.685  12.030 -0.0362  0.2662 -0.1880
13396TIP3    H161679   5.695   6.635  12.103 -2.0170  0.4531 -1.0159
13396TIP3    H261680   5.759   6.618  11.968 -0.1506  0.1398 -0.1033
13397TIP3   OH261681   4.664   4.181  13.973 -0.0097  0.0533  0.7397
13397TIP3    H161682   4.589   4.180  13.913  0.0341  0.8553  0.6665
13397TIP3    H261683   4.634   4.233  14.048  0.6520  0.8106  0.4806
13398TIP3   OH261684   4.950   4.777   3.421  0.2239 -0.1309 -0.3136
13398TIP3    H161685   4.929   4.767   3.513  0.9664  1.1471  0.0083
13398TIP3    H261686   5.035   4.821   3.420  0.7844 -1.1817 -1.5998
13399TIP3   OH261687   2.513   5.782   3.170  0.3879  0.3369  0.3036
13399TIP3    H161688   2.523   5.754   3.260  0.8125  1.3791  0.5898
13399TIP3    H261689   2.569   5.859   3.162  1.2191 -0.3831 -1.1498
13400TIP3   OH261690   1.205   3.893   2.231 -0.1526  0.4629  0.2136
13400TIP3    H161691   1.231   3.939   2.311 -0.7508 -2.7054  2.3425
13400TIP3    H261692   1.259   3.814   2.231 -1.9396 -0.7794 -1.1784
13401TIP3   OH261693   5.721   0.538   3.093 -0.3225  0.1656 -0.2083
13401TIP3    H161694   5.644   0.572   3.138  0.1258  0.6352  0.2181
13401TIP3    H261695   5.686   0.489   3.018 -1.0101  0.8415 -0.3394
13402TIP3   OH261696   6.665   5.337   3.451 -0.0262 -0.1138  0.3152
13402TIP3    H161697   6.641   5.341   3.543  0.4571  0.1112  0.4342
13402TIP3    H261698   6.581   5.337   3.404 -0.2644  0.8871  0.7135
13403TIP3   OH261699   0.567   5.693  14.816  0.2680 -0.4284 -0.2745
13403TIP3    H161700   0.546   5.679  14.724  0.5069  0.4232 -0.4682
13403TIP3    H261701   0.495   5.746  14.850  0.6921  0.1380 -0.2417
13404TIP3   OH261702   4.315   5.088   0.324  0.0151 -0.1857 -0.6974
13404TIP3    H161703   4.389   5.070   0.265  0.1013  0.0927 -0.6715
13404TIP3    H261704   4.289   5.178   0.303  1.7632  0.8804  1.5737
13405TIP3   OH261705   0.461   2.447  11.765 -0.2102  0.5217 -0.1803
13405TIP3    H161706   0.395   2.385  11.733 -0.1926 -0.2784  1.2826
13405TIP3    H261707   0.503   2.481  11.686 -0.7617 -0.7570 -1.0327
13406TIP3   OH261708   4.790   3.579   2.223  0.4800  0.1791 -0.1581
13406TIP3    H161709   4.776   3.507   2.284  1.1824  0.1751  0.0038
13406TIP3    H261710   4.745   3.654   2.263 -2.3879 -0.7513 -1.5413
13407TIP3   OH261711   5.383   1.717  15.309 -0.4229  0.2763  0.3459
13407TIP3    H161712   5.348   1.761  15.387 -1.1626 -0.2427  0.3141
13407TIP3    H261713   5.425   1.638  15.343 -0.5487  0.1646  0.2428
13408TIP3   OH261714   4.521   6.774  13.653 -0.4890 -0.1823 -0.7581
13408TIP3    H161715   4.482   6.690  13.630 -1.3487  0.2632 -0.9621
13408TIP3    H261716   4.590   6.753  13.716  0.2403 -1.1829 -1.8562
13409TIP3   OH261717   0.710   0.096   4.517 -0.3917  0.5547  0.2927
13409TIP3    H161718   0.741   0.021   4.567  3.2852  0.4131 -1.9815
13409TIP3    H261719   0.639   0.062   4.463  0.1640 -0.8873  0.4579
13410TIP3   OH261720   2.441   4.907  11.909 -0.6235 -0.6439 -0.4459
13410TIP3    H161721   2.380   4.834  11.921  0.0771 -0.9684  1.2332
13410TIP3    H261722   2.524   4.875  11.944 -0.5787  1.3365  1.3377
13411TIP3   OH261723   4.550   3.966  16.608 -0.7366  0.1055  0.1379
13411TIP3    H161724   4.521   3.989  16.520 -1.7295 -0.4271  0.3167
13411TIP3    H261725   4.489   3.897  16.636  1.4081 -1.8588  0.0817
13412TIP3   OH261726   0.130   5.706   3.368 -0.6379 -0.1183  0.2656
13412TIP3    H161727   0.169   5.709   3.455 -1.4187  0.3394  0.6052
13412TIP3    H261728   0.071   5.782   3.365  1.1350  1.2228 -1.4939
13413TIP3   OH261729   0.398   0.426  11.107 -0.6097  0.1146 -0.2369
13413TIP3    H161730   0.337   0.438  11.034 -2.5151 -3.4760  0.6575
13413TIP3    H261731   0.464   0.365  11.074  0.7313  1.4856 -0.1496
13414TIP3   OH261732   5.283   2.901   3.346 -0.1181 -0.1191  0.2136
13414TIP3    H161733   5.255   2.973   3.289 -0.2074  0.2463  0.7154
13414TIP3    H261734   5.203   2.852   3.364 -0.3222  0.5389  1.1062
13415TIP3   OH261735   2.363   4.754   1.865  0.5321  0.1172 -0.9147
13415TIP3    H161736   2.271   4.738   1.888  0.4554  0.9420 -0.6339
13415TIP3    H261737   2.388   4.678   1.813 -0.0797 -0.4898 -0.3323
13416TIP3   OH261738   4.385   4.844  15.582  0.0379 -0.0204 -0.3912
13416TIP3    H161739   4.350   4.846  15.672 -0.0226  3.1994 -0.4336
13416TIP3    H261740   4.330   4.780  15.537 -0.8031 -0.6987  1.5335
13417TIP3   OH261741   4.477   6.548  13.850  0.1899 -0.2595  0.5878
13417TIP3    H161742   4.555   6.604  13.851  0.8235 -1.0336 -1.1540
13417TIP3    H261743   4.461   6.525  13.941 -0.0912  2.7488  1.3134
13418TIP3   OH261744   2.359   6.067   1.493  0.2714 -0.5226 -0.1920
13418TIP3    H161745   2.364   6.149   1.445  1.6810 -0.9866 -0.8683
13418TIP3    H261746   2.284   6.021   1.454 -0.4899  0.4038  0.1598
13419TIP3   OH261747   0.598   0.720  13.634 -0.2604  0.5952 -0.0369
13419TIP3    H161748   0.568   0.663  13.704  0.5595  0.9709  0.6304
13419TIP3    H261749   0.689   0.693  13.620  0.3539  2.2151  0.7763
13420TIP3   OH261750   1.968   0.754  17.004 -0.4291 -0.2881  0.0680
13420TIP3    H161751   2.055   0.725  16.976  0.0156  0.6374  0.4964
13420TIP3    H261752   1.915   0.750  16.924  0.5210  1.1070 -0.6527
13421TIP3   OH261753   6.347   0.701   5.998 -0.4343  0.0198  0.1490
13421TIP3    H161754   6.430   0.658   6.020 -0.8898 -0.7661  0.3621
13421TIP3    H261755   6.282   0.630   6.001 -1.0057  0.5003 -0.6622
13422TIP3   OH261756   5.409   3.178   3.588 -0.0267  0.5384  0.1813
13422TIP3    H161757   5.361   3.196   3.669 -0.5134 -0.1241  0.0378
13422TIP3    H261758   5.406   3.083   3.579  0.6553  0.5526 -0.2352
13423TIP3   OH261759   2.156   0.764   4.786  0.3823  0.6533  0.1855
13423TIP3    H161760   2.119   0.823   4.852 -0.1816  1.0256 -0.4665
13423TIP3    H261761   2.132   0.802   4.702  1.1788  0.2279 -0.2483
13424TIP3   OH261762   3.025   5.814   5.599  0.7080 -0.7979  0.5919
13424TIP3    H161763   2.931   5.826   5.594  0.7307 -0.6536  0.4991
13424TIP3    H261764   3.037   5.722   5.623  0.5505 -0.8686  0.3910
13425TIP3   OH261765   6.436   4.095   1.742 -0.6272  0.1148 -0.4788
13425TIP3    H161766   6.400   4.102   1.830  0.2830  0.2066 -0.1091
13425TIP3    H261767   6.500   4.166   1.737 -1.2711  0.6235 -1.4944
13426TIP3   OH261768   1.221   5.613  17.140 -0.2582  0.6412  0.0533
13426TIP3    H161769   1.248   5.672  17.210 -1.9910  0.1401  1.1830
13426TIP3    H261770   1.167   5.547  17.183  0.2765 -0.8398 -1.4454
13427TIP3   OH261771   1.053   2.195   0.075 -0.0331  0.3100  0.0266
13427TIP3    H161772   1.042   2.126   0.140  0.1789  1.3640  1.1825
13427TIP3    H261773   1.080   2.148  -0.004 -2.4391 -1.2150  0.0487
13428TIP3   OH261774   4.120   2.386  13.654 -0.4322  0.1402  0.2102
13428TIP3    H161775   4.088   2.476  13.659  0.1445  0.6018 -3.0037
13428TIP3    H261776   4.207   2.389  13.693 -0.4737  0.9669  0.2428
13429TIP3   OH261777   5.527   3.709  12.465 -0.3674  0.0285  0.2703
13429TIP3    H161778   5.623   3.700  12.463 -0.2890  0.7526  0.8304
13429TIP3    H261779   5.499   3.680  12.378  0.4840  1.3192 -0.4414
13430TIP3   OH261780   5.126   0.356  15.705  0.6177 -0.1084  0.7285
13430TIP3    H161781   5.076   0.279  15.676  0.2523  0.6099 -0.5820
13430TIP3    H261782   5.193   0.320  15.763  1.4558 -1.6288 -1.1168
13431TIP3   OH261783   1.973   1.507   1.200  0.5494  0.8584  0.0942
13431TIP3    H161784   1.914   1.579   1.218  0.6022  1.3808 -1.7200
13431TIP3    H261785   1.980   1.504   1.105  0.9967 -1.1764  0.1553
13432TIP3   OH261786   1.826   0.758   4.694  0.7573 -0.3358 -0.4348
13432TIP3    H161787   1.811   0.821   4.624  0.8736  1.3573  1.0056
13432TIP3    H261788   1.799   0.804   4.774  0.9708 -2.0699  0.6765
13433TIP3   OH261789   1.809   5.396  11.433 -0.6679  0.3753 -0.2398
13433TIP3    H161790   1.753   5.386  11.356 -0.2095  0.4979 -0.5951
13433TIP3    H261791   1.792   5.486  11.463 -1.3674  0.0880  0.2189
13434TIP3   OH261792   4.381   2.874   4.515 -0.0679  0.5613 -0.0931
13434TIP3    H161793   4.394   2.933   4.589  0.0547  0.9737 -0.4448
13434TIP3    H261794   4.340   2.796   4.553 -0.1059  0.8192  0.3892
13435TIP3   OH261795   3.461   3.398  10.867 -0.2046  0.1728  0.0844
13435TIP3    H161796   3.370   3.408  10.836 -0.8416 -1.9196  1.2291
13435TIP3    H261797   3.470   3.305  10.885  3.0460 -0.1279 -2.5820
13436TIP3   OH261798   6.002   5.866  11.878  0.2897 -0.3917  0.1157
13436TIP3    H161799   5.936   5.857  11.809  3.3537  1.1968 -3.2265
13436TIP3    H261800   5.993   5.786  11.930 -2.9775 -1.0721 -1.3490
13437TIP3   OH261801   0.229   3.449   3.027  0.1017  0.4832  0.5440
13437TIP3    H161802   0.190   3.502   3.097 -0.4667 -0.1764  0.7302
13437TIP3    H261803   0.158   3.438   2.963  0.5501  0.8914 -0.0351
13438TIP3   OH261804   5.515   1.580   3.361 -0.4354  0.0959 -0.2616
13438TIP3    H161805   5.443   1.640   3.340  0.4352  0.7900 -1.3194
13438TIP3    H261806   5.563   1.570   3.278  2.5485  2.1748  1.1162
13439TIP3   OH261807   6.097   4.722  13.293 -0.1471  0.1850  0.7556
13439TIP3    H161808   6.153   4.796  13.318  1.3585 -1.8313  3.5858
13439TIP3    H261809   6.024   4.725  13.355 -0.7398  0.0166  0.0754
13440TIP3   OH261810   1.756   3.387   4.728  0.8580  0.8754  0.6037
13440TIP3    H161811   1.846   3.373   4.756  0.8250  1.1486  0.8560
13440TIP3    H261812   1.725   3.301   4.699  1.3585  0.8778  0.0483
13441TIP3   OH261813   1.100   3.357  14.227 -0.1165 -0.2869  0.0264
13441TIP3    H161814   1.105   3.451  14.211  0.3881 -0.5076 -1.1805
13441TIP3    H261815   1.071   3.320  14.143 -0.6597 -1.1723  0.5991
13442TIP3   OH261816   6.090   2.605  12.687  0.1821  0.0885 -0.0162
13442TIP3    H161817   6.044   2.652  12.617 -0.3630  1.0247  0.9590
13442TIP3    H261818   6.064   2.651  12.767  1.9224 -0.0886  0.6616
13443TIP3   OH261819   1.552   4.299   3.346  1.0620  0.0028 -0.4359
13443TIP3    H161820   1.524   4.303   3.438  0.0192  0.1203 -0.7603
13443TIP3    H261821   1.610   4.223   3.342  0.0565 -0.7909  0.0265
13444TIP3   OH261822   1.596   3.223  16.721 -0.2940  0.3094  0.0438
13444TIP3    H161823   1.506   3.243  16.747 -0.8028 -0.8664 -0.7680
13444TIP3    H261824   1.639   3.309  16.717 -1.7173  1.0105 -0.8266
13445TIP3   OH261825   1.665   4.745   2.635 -0.0158  0.5949  0.3003
13445TIP3    H161826   1.737   4.793   2.594  1.1486 -2.2443 -1.0930
13445TIP3    H261827   1.588   4.768   2.582  0.5078  0.9494 -0.3084
13446TIP3   OH261828   6.466   4.627   2.227  0.6033 -0.1144  0.0641
13446TIP3    H161829   6.437   4.608   2.317  0.3702  0.0442  0.0224
13446TIP3    H261830   6.441   4.549   2.177  0.6716 -0.1739  0.1235
13447TIP3   OH261831   0.545   2.279   0.503  0.1395  0.0147  0.1643
13447TIP3    H161832   0.461   2.303   0.541  0.3173 -0.7488  1.0633
13447TIP3    H261833   0.610   2.326   0.555  0.3110 -0.0631  0.0227
13448TIP3   OH261834   3.531   5.957   1.507  0.1356 -0.2487 -0.2342
13448TIP3    H161835   3.444   5.986   1.479 -0.2812 -1.9361 -0.8208
13448TIP3    H261836   3.592   6.005   1.451 -0.3795  1.5521  0.7398
13449TIP3   OH261837   4.529   5.820   0.828 -0.1005  0.7528  0.2590
13449TIP3    H161838   4.508   5.728   0.813 -0.6370  0.6721  1.4099
13449TIP3    H261839   4.541   5.857   0.740  0.8537 -0.5731 -0.1793
13450TIP3   OH261840   1.828   0.393   3.564  0.1028 -0.7323  0.1832
13450TIP3    H161841   1.889   0.461   3.534 -1.6102  1.0194  0.6151
13450TIP3    H261842   1.804   0.346   3.485 -1.0482  1.1245 -0.6040
13451TIP3   OH261843   4.142   4.062   5.447  0.3825 -0.3248 -0.1813
13451TIP3    H161844   4.085   4.037   5.520  1.1868  2.5224  1.4693
13451TIP3    H261845   4.087   4.052   5.369 -1.7490  0.4347  1.1926
13452TIP3   OH261846   6.702   0.184  11.723  0.6750  0.0797  0.3390
13452TIP3    H161847   6.785   0.146  11.753 -0.4171 -1.3799  1.6211
13452TIP3    H261848   6.637   0.151  11.786 -0.7914  1.6330 -0.3330
13453TIP3   OH261849   1.863   0.887  10.981  0.1861 -0.7577 -0.5225
13453TIP3    H161850   1.775   0.926  10.981  0.6960  0.4860  1.7247
13453TIP3    H261851   1.847   0.793  10.992 -0.8557 -0.3149  2.3482
13454TIP3   OH261852   2.856   2.600  16.504  0.6201 -0.4319  0.1835
13454TIP3    H161853   2.818   2.551  16.577  2.0861  1.2754  2.1566
13454TIP3    H261854   2.833   2.549  16.426 -0.7291 -2.4531  1.8501
13455TIP3   OH261855   1.986   5.389  17.248 -0.2006  0.1538  0.0676
13455TIP3    H161856   1.983   5.484  17.234 -0.5213 -0.2251 -2.8221
13455TIP3    H261857   2.062   5.359  17.198 -0.3226 -1.1553  0.6337
13456TIP3   OH261858   3.678   2.599   5.053 -0.1297 -1.4194  0.0340
13456TIP3    H161859   3.652   2.655   5.127  1.1325  0.4183 -0.8596
13456TIP3    H261860   3.636   2.640   4.977  1.3817 -1.2506 -0.7287
13457TIP3   OH261861   2.943   3.980   4.802  0.4020  0.3012  0.3876
13457TIP3    H161862   2.998   4.020   4.868 -0.0017  3.7529 -1.2713
13457TIP3    H261863   2.860   4.028   4.806 -0.4363 -0.9460 -1.0634
13458TIP3   OH261864   5.969   4.045   3.702 -0.6123  0.4966  0.0541
13458TIP3    H161865   5.980   3.952   3.682  3.3446  1.1083 -1.0282
13458TIP3    H261866   5.928   4.082   3.624  0.3038  0.1198 -0.6093
13459TIP3   OH261867   0.310   3.426  15.366  0.5841  0.1597 -0.6437
13459TIP3    H161868   0.268   3.497  15.415  0.3279 -1.2845  1.2546
13459TIP3    H261869   0.365   3.471  15.302 -0.4443  2.0698 -0.2198
13460TIP3   OH261870   4.189   1.511  15.014 -0.6197  0.0617  0.1725
13460TIP3    H161871   4.187   1.501  14.918  1.2668  1.1141  0.0031
13460TIP3    H261872   4.116   1.570  15.033 -1.0308 -0.1810 -0.6036
13461TIP3   OH261873   3.874   3.759   2.494  0.4233 -1.1118  0.4106
13461TIP3    H161874   3.849   3.686   2.550 -0.3457 -1.6585 -0.6384
13461TIP3    H261875   3.902   3.719   2.412  2.4487 -0.3701  0.7136
13462TIP3   OH261876   1.804   1.758  11.984 -0.0006  0.4129  0.1849
13462TIP3    H161877   1.892   1.720  11.978 -0.9818 -1.8685 -0.3294
13462TIP3    H261878   1.777   1.773  11.894 -0.4702  0.2651  0.2952
13463TIP3   OH261879   6.055   1.253  12.168 -0.4864  0.1635 -0.1325
13463TIP3    H161880   6.020   1.174  12.209 -1.5589  0.4239 -0.5371
13463TIP3    H261881   5.978   1.301  12.138  0.1092  1.7075  0.7303
13464TIP3   OH261882   3.478   3.839  12.488 -0.1890 -0.2160  0.1626
13464TIP3    H161883   3.452   3.774  12.553  0.2328 -0.2673  0.2832
13464TIP3    H261884   3.509   3.787  12.413  0.2816 -0.1537  0.3130
13465TIP3   OH261885   5.967   4.165   1.074  0.7884 -0.5078  0.7641
13465TIP3    H161886   6.008   4.194   0.992 -0.1084 -0.2773  0.3845
13465TIP3    H261887   5.894   4.110   1.045  0.7691 -0.8236  1.4237
13466TIP3   OH261888   2.866   0.610  11.717  0.0630 -0.9019  0.4736
13466TIP3    H161889   2.795   0.594  11.656  0.2567 -1.1003  0.3003
13466TIP3    H261890   2.942   0.628  11.662 -0.8474  4.0592  0.5842
13467TIP3   OH261891   1.784   4.027   2.405  0.1511  0.0876 -0.0125
13467TIP3    H161892   1.772   4.050   2.497  1.5545  2.6632 -0.4248
13467TIP3    H261893   1.837   3.947   2.406  0.8222  0.5404  1.4283
13468TIP3   OH261894   1.509   0.243  11.121  0.7166 -0.7542 -0.0226
13468TIP3    H161895   1.600   0.264  11.143  0.4181 -0.4323  0.9062
13468TIP3    H261896   1.509   0.149  11.107  0.7896 -1.0777  2.0070
13469TIP3   OH261897   2.485   4.022   4.074 -0.1773 -0.7374 -0.3585
13469TIP3    H161898   2.555   4.041   4.011 -0.1359 -0.7557 -0.3183
13469TIP3    H261899   2.532   4.000   4.154 -0.2147 -1.5377 -0.5523
13470TIP3   OH261900   2.620   6.450   3.911 -0.1201 -0.2875  0.1008
13470TIP3    H161901   2.681   6.521   3.896 -0.9595  0.5691  0.7024
13470TIP3    H261902   2.540   6.477   3.865 -0.4804 -0.7754  0.4356
13471TIP3   OH261903   2.878   3.810  14.698 -0.3756  0.5524  0.0555
13471TIP3    H161904   2.948   3.874  14.687 -0.2853  0.1720 -1.8306
13471TIP3    H261905   2.912   3.748  14.762  0.8778  0.5831 -0.5574
13472TIP3   OH261906   3.808   0.685   5.531 -0.1273 -0.3847 -0.3798
13472TIP3    H161907   3.832   0.596   5.558  0.9400  0.4741  1.6835
13472TIP3    H261908   3.892   0.728   5.513 -0.5237  0.6531  0.1855
13473TIP3   OH261909   2.956   3.503   3.745 -0.0635  0.2557  0.2621
13473TIP3    H161910   2.951   3.445   3.670  1.0347  0.2245  0.2107
13473TIP3    H261911   3.047   3.500   3.773 -0.1998  1.1962  0.8578
13474TIP3   OH261912   6.311   3.534  12.423 -0.3099 -0.5528 -0.3672
13474TIP3    H161913   6.362   3.519  12.503  0.2954 -2.1146 -1.0331
13474TIP3    H261914   6.365   3.591  12.370 -0.6401  0.3556  0.2543
13475TIP3   OH261915   3.551   4.719   5.155 -0.2622 -0.4509  0.0716
13475TIP3    H161916   3.634   4.754   5.188 -0.5842  0.4665 -0.0813
13475TIP3    H261917   3.492   4.795   5.152 -0.8279 -0.9098 -0.7225
13476TIP3   OH261918   6.374   3.482   0.266 -0.1930 -0.4400 -0.1765
13476TIP3    H161919   6.303   3.545   0.267  2.1385  2.3209 -1.6774
13476TIP3    H261920   6.361   3.433   0.184 -1.0737 -0.8513  0.1984
13477TIP3   OH261921   4.826   1.705   6.435 -0.1573 -0.2983 -0.5486
13477TIP3    H161922   4.771   1.648   6.381 -0.1257  0.2057 -1.1219
13477TIP3    H261923   4.779   1.711   6.518 -0.5956 -0.4757 -0.7771
13478TIP3   OH261924   3.374   3.674  12.687 -0.1735  0.1188  0.7414
13478TIP3    H161925   3.333   3.606  12.634 -1.1548  0.9562  0.4052
13478TIP3    H261926   3.303   3.706  12.743 -0.0827  1.8065 -0.0694
13479TIP3   OH261927   6.675   4.878  12.439 -0.2497  0.2726  0.0693
13479TIP3    H161928   6.659   4.939  12.367  0.3810  0.3189 -0.0319
13479TIP3    H261929   6.642   4.794  12.407 -1.6503  0.6775  0.4312
13480TIP3   OH261930   2.025   6.631   0.341 -0.0867  0.3689 -0.6525
13480TIP3    H161931   2.074   6.548   0.338 -0.8109 -0.0918 -0.1237
13480TIP3    H261932   1.982   6.636   0.256  0.7592  0.7036 -1.0643
13481TIP3   OH261933   0.839   3.018   0.322  0.3918 -0.5112  0.1377
13481TIP3    H161934   0.919   2.967   0.331  0.8095 -0.3925 -2.4304
13481TIP3    H261935   0.866   3.108   0.340  0.6589 -0.5897  0.1309
13482TIP3   OH261936   4.762   6.354   1.943  0.2655  0.1009  0.0968
13482TIP3    H161937   4.809   6.311   2.014  0.6741  1.1640  0.4697
13482TIP3    H261938   4.813   6.432   1.923 -0.8336  0.7924 -0.0994
13483TIP3   OH261939   0.785   4.196  14.630 -0.3601 -0.3150  0.1714
13483TIP3    H161940   0.825   4.283  14.622  2.3927 -1.1279  3.7973
13483TIP3    H261941   0.706   4.211  14.682  0.5686 -0.0847  1.5322
13484TIP3   OH261942   2.532   6.567  15.584  0.5101  0.1719 -0.2731
13484TIP3    H161943   2.476   6.643  15.569  0.0191 -0.2411 -0.5499
13484TIP3    H261944   2.516   6.542  15.675  1.0013  0.6652 -0.0499
13485TIP3   OH261945   6.446   3.950  12.517 -0.1559 -0.1936 -0.1330
13485TIP3    H161946   6.491   3.977  12.437  1.2167  2.2118  1.3584
13485TIP3    H261947   6.511   3.898  12.565 -0.3371 -0.1006  0.2180
13486TIP3   OH261948   2.118   0.035   4.665 -0.3535 -0.3007  0.3719
13486TIP3    H161949   2.075   0.089   4.731  0.9381 -0.1763  1.1336
13486TIP3    H261950   2.186  -0.012   4.713  4.0651  3.6059 -1.6839
13487TIP3   OH261951   5.886   2.303  13.789  0.3919  0.2581 -0.5449
13487TIP3    H161952   5.831   2.269  13.718 -0.2950 -0.4844  0.3358
13487TIP3    H261953   5.966   2.333  13.745 -0.5330  0.9471 -1.7838
13488TIP3   OH261954   3.474   1.134  14.477 -1.0817 -1.0038 -0.4083
13488TIP3    H161955   3.532   1.059  14.461  0.5501  0.1080  0.2535
13488TIP3    H261956   3.438   1.155  14.391  1.9623  0.2960 -1.4214
13489TIP3   OH261957   3.585   1.090   4.595 -0.0145 -0.0582  0.2327
13489TIP3    H161958   3.674   1.124   4.599 -0.2766  0.6297  0.3486
13489TIP3    H261959   3.536   1.142   4.659 -0.5704 -0.1899 -0.0740
13490TIP3   OH261960   4.409   6.047  15.213 -0.0353  0.3049 -0.1753
13490TIP3    H161961   4.346   6.014  15.149 -0.3636 -1.5041  1.0370
13490TIP3    H261962   4.493   6.045  15.167  0.3381 -4.4227  0.4902
13491TIP3   OH261963   3.627   1.212  16.276  0.0868  1.0214  0.0707
13491TIP3    H161964   3.692   1.214  16.205  0.4748 -3.2759  0.1665
13491TIP3    H261965   3.678   1.188  16.354 -0.8844  2.4561  1.1726
13492TIP3   OH261966   0.273   4.857   0.403 -0.0249 -0.1015  0.2858
13492TIP3    H161967   0.322   4.801   0.463  1.1545  0.1942 -0.3946
13492TIP3    H261968   0.182   4.826   0.411  0.1753 -0.3088  1.9239
13493TIP3   OH261969   1.585   3.282   6.179 -0.1843  0.1510 -0.0981
13493TIP3    H161970   1.600   3.376   6.187 -0.0693  0.2644 -1.5739
13493TIP3    H261971   1.668   3.246   6.151 -0.8046 -0.1113 -1.6115
13494TIP3   OH261972   5.617   2.452  13.880 -0.0135  0.0698 -0.1823
13494TIP3    H161973   5.531   2.493  13.882  0.2300  0.5746  0.0862
13494TIP3    H261974   5.600   2.359  13.897 -0.3583  0.4440  1.7032
13495TIP3   OH261975   0.168   4.280  13.393 -0.2281  0.1753  0.2476
13495TIP3    H161976   0.140   4.218  13.326  1.6350  0.8192 -1.1826
13495TIP3    H261977   0.155   4.234  13.476 -0.0516 -1.6626 -0.7154
13496TIP3   OH261978   3.145   6.207  11.918 -0.4743 -0.1049  0.0720
13496TIP3    H161979   3.181   6.259  11.846 -1.9451  1.7333  0.6032
13496TIP3    H261980   3.057   6.243  11.932 -1.6515 -2.9405  0.3036
13497TIP3   OH261981   4.971   4.345   5.865  0.3719  0.0230 -0.0801
13497TIP3    H161982   4.955   4.281   5.934  0.1667 -0.3163 -0.4422
13497TIP3    H261983   5.024   4.412   5.907 -1.4050  0.8230  0.9481
13498TIP3   OH261984   1.956   0.979   4.173  0.0701  0.0098  0.7107
13498TIP3    H161985   1.891   0.935   4.119 -1.9817  1.9009  1.5833
13498TIP3    H261986   2.034   0.984   4.118 -0.8528 -1.2702 -0.7442
13499TIP3   OH261987   6.078   4.440   6.000 -0.0768  0.2203  0.8404
13499TIP3    H161988   6.104   4.532   6.008  0.1526  0.1044  1.4731
13499TIP3    H261989   6.161   4.393   5.988 -0.3465  0.3086 -1.7178
13500TIP3   OH261990   3.300   6.270  10.552  0.3941  0.0136  0.5599
13500TIP3    H161991   3.229   6.215  10.586 -0.4109 -0.0094 -1.0881
13500TIP3    H261992   3.255   6.343  10.510  1.3649  0.1391 -0.2766
13501TIP3   OH261993   5.287   5.344  11.507  0.0368 -0.2458  0.0832
13501TIP3    H161994   5.196   5.370  11.496 -0.6115 -3.1926 -2.0481
13501TIP3    H261995   5.283   5.266  11.562  0.9428 -2.2795 -2.6298
13502TIP3   OH261996   0.450   5.083  11.419  0.5048  0.1035 -0.3124
13502TIP3    H161997   0.448   5.141  11.495 -0.1460 -2.0076  1.3395
13502TIP3    H261998   0.528   5.111  11.370  2.5247 -0.2304  2.5635
13503TIP3   OH261999   1.677   5.611   5.260 -0.2424 -0.3351 -0.0463
13503TIP3    H162000   1.759   5.573   5.228 -0.8358 -0.7440 -1.0861
13503TIP3    H262001   1.705   5.687   5.311  0.7129  0.4949 -1.7512
13504TIP3   OH262002   5.532   1.886  16.802  0.1783 -0.5365 -0.5137
13504TIP3    H162003   5.541   1.809  16.858  2.4804  0.3071  0.3011
13504TIP3    H262004   5.527   1.960  16.862 -1.8971  0.0162 -1.3033
13505TIP3   OH262005   2.887   4.625  16.881  0.1575 -0.2120  0.7973
13505TIP3    H162006   2.819   4.563  16.906  0.2670  0.0851  1.8337
13505TIP3    H262007   2.899   4.680  16.958  1.8715 -0.5222  0.7654
13506TIP3   OH262008   4.755   3.039  17.129 -0.6770  0.1890 -0.4427
13506TIP3    H162009   4.844   3.069  17.115 -0.2718 -1.5935 -1.8449
13506TIP3    H262010   4.762   2.971  17.196 -1.1370  0.7900  0.2276
13507TIP3   OH262011   2.540   4.741  14.925  0.3328  0.0690  0.1166
13507TIP3    H162012   2.625   4.737  14.970  0.0635  0.5466  0.6795
13507TIP3    H262013   2.560   4.717  14.834  1.4086  1.9867 -0.1984
13508TIP3   OH262014   0.313   4.552   4.755 -0.8043  0.0459 -0.3353
13508TIP3    H162015   0.253   4.502   4.811  0.3564  1.1195  1.9669
13508TIP3    H262016   0.279   4.642   4.758  0.4163  0.5100  0.3628
13509TIP3   OH262017   0.792   4.843  16.295 -0.5065 -0.4552  0.6474
13509TIP3    H162018   0.852   4.769  16.309 -1.1689 -1.0831  0.2029
13509TIP3    H262019   0.842   4.920  16.322  1.3822 -0.6781 -2.0650
13510TIP3   OH262020   1.968   0.190   4.841 -0.0753 -0.0789  0.2521
13510TIP3    H162021   2.005   0.277   4.829  0.8886 -0.4020  0.8654
13510TIP3    H262022   1.883   0.206   4.882 -0.4800  0.6385 -0.8421
13511TIP3   OH262023   0.552   5.722   1.495  0.5267  0.3726  0.9876
13511TIP3    H162024   0.485   5.742   1.559  0.8262  0.0085  1.4210
13511TIP3    H262025   0.531   5.777   1.420 -0.7308 -0.3444  0.8015
13512TIP3   OH262026   3.506   5.245  11.964  0.1539 -0.5303 -0.4275
13512TIP3    H162027   3.521   5.339  11.955  1.2186 -0.6898 -0.3659
13512TIP3    H262028   3.554   5.221  12.043  1.5097 -1.4873 -1.5348
13513TIP3   OH262029   0.457   4.227   3.798 -0.0906 -0.4520  0.2141
13513TIP3    H162030   0.363   4.236   3.781 -0.2745  0.1911  1.5344
13513TIP3    H262031   0.467   4.139   3.834 -0.1455 -0.6160 -0.1696
13514TIP3   OH262032   6.464   5.314   2.293  0.7532 -0.0204  0.2358
13514TIP3    H162033   6.471   5.220   2.279  0.1318  0.1946 -1.6738
13514TIP3    H262034   6.553   5.343   2.314  0.9233 -1.0456  0.9190
13515TIP3   OH262035   4.185   0.896   3.297  0.0391 -0.3061 -0.2976
13515TIP3    H162036   4.260   0.836   3.293  0.0758 -0.1617 -2.3378
13515TIP3    H262037   4.164   0.902   3.390  2.7746 -0.1053  0.3597
13516TIP3   OH262038   5.743   4.264   3.241 -0.1916 -1.0660  0.6355
13516TIP3    H162039   5.758   4.209   3.164 -0.4435 -1.2299  0.7051
13516TIP3    H262040   5.648   4.278   3.243 -0.0128  0.4078 -0.1032
13517TIP3   OH262041   0.223   1.631   2.231 -0.2060 -0.3077 -0.0503
13517TIP3    H162042   0.272   1.701   2.187 -0.8294  0.9982  1.3213
13517TIP3    H262043   0.131   1.648   2.209 -0.2997 -1.1407 -0.3304
13518TIP3   OH262044   4.344   4.798  12.652 -0.3418 -0.2339  0.0697
13518TIP3    H162045   4.288   4.730  12.614 -0.9915 -0.1951  0.9424
13518TIP3    H262046   4.344   4.780  12.746 -0.4603  0.9280  0.3014
13519TIP3   OH262047   6.390   1.547  15.632  0.3127 -0.2049 -0.4669
13519TIP3    H162048   6.325   1.610  15.601  0.0172  0.8897  2.2514
13519TIP3    H262049   6.473   1.579  15.597 -0.0269  0.9271 -0.2553
13520TIP3   OH262050   0.082   5.108   1.993 -0.3350  0.2241 -0.2623
13520TIP3    H162051   0.150   5.081   1.931 -0.2242  0.5041 -0.2626
13520TIP3    H262052   0.024   5.164   1.941 -0.2388  0.4630 -0.1117
13521TIP3   OH262053   3.745   3.895  15.749 -0.7016  0.0369 -0.1136
13521TIP3    H162054   3.838   3.911  15.731 -0.7469  0.4049 -0.0047
13521TIP3    H262055   3.731   3.806  15.718 -0.6090  0.4185 -1.2415
13522TIP3   OH262056   4.375   0.171  12.959  0.1496 -0.0448 -0.3973
13522TIP3    H162057   4.317   0.155  13.033  2.0235  1.4468  1.4412
13522TIP3    H262058   4.356   0.261  12.933  0.7522  0.0359 -0.5680
13523TIP3   OH262059   6.758   3.432  16.949  0.0550 -0.0724  0.8196
13523TIP3    H162060   6.707   3.511  16.931  0.7623  0.2569  0.2411
13523TIP3    H262061   6.695   3.371  16.986 -0.9565  0.0259 -0.6970
13524TIP3   OH262062   0.441   3.945   2.598  0.1617  0.8530  0.4416
13524TIP3    H162063   0.490   3.958   2.517  1.1882 -1.2699  0.7007
13524TIP3    H262064   0.495   3.885   2.650 -0.3619  2.3377  2.7997
13525TIP3   OH262065   3.103   1.367   1.146  0.0761 -0.2843  0.5116
13525TIP3    H162066   3.115   1.299   1.081 -0.5562 -1.2484  1.3972
13525TIP3    H262067   3.178   1.357   1.206  0.1598  0.0155  0.4618
13526TIP3   OH262068   5.732   0.765   2.888 -0.1018  0.1089  0.0894
13526TIP3    H162069   5.780   0.686   2.912  0.6713  0.9150  1.2341
13526TIP3    H262070   5.799   0.830   2.870 -0.7406  0.8523  0.3506
13527TIP3   OH262071   5.283   3.689  12.891 -0.2293 -0.2248  0.2750
13527TIP3    H162072   5.240   3.628  12.831  0.6667 -0.3739 -0.2143
13527TIP3    H262073   5.313   3.634  12.964 -1.6239  0.0065  1.0430
13528TIP3   OH262074   3.104   3.930   5.925  0.8267 -0.1785  0.4410
13528TIP3    H162075   3.181   3.885   5.889  0.3006  0.1552 -1.1741
13528TIP3    H262076   3.037   3.862   5.929  0.7707 -0.1253  0.4079
13529TIP3   OH262077   3.059   0.016   3.804 -1.4930 -0.2616  0.4028
13529TIP3    H162078   3.029   0.004   3.895 -0.0933 -0.4314  0.8518
13529TIP3    H262079   3.087  -0.070   3.776  0.5557  0.2775  0.7221
13530TIP3   OH262080   5.064   3.798  14.898  0.9480 -0.4107  0.4442
13530TIP3    H162081   5.013   3.849  14.836  0.9830 -0.1839  0.6026
13530TIP3    H262082   5.109   3.863  14.952 -1.2882 -0.5385  2.5366
13531TIP3   OH262083   6.539   1.341   2.667 -0.6693 -0.5219  0.8008
13531TIP3    H162084   6.506   1.261   2.626  0.6392 -1.4198  1.4425
13531TIP3    H262085   6.545   1.404   2.596 -0.8110 -1.2952  0.0971
13532TIP3   OH262086   3.963   6.066   3.320  0.1043 -0.0864 -0.1548
13532TIP3    H162087   3.922   6.065   3.233  0.8411 -2.1416 -0.4938
13532TIP3    H262088   3.891   6.045   3.380 -0.3634  1.1412 -0.2653
13533TIP3   OH262089   4.237   4.297  16.938  0.6922 -0.1411 -0.5270
13533TIP3    H162090   4.318   4.280  16.986  1.2652 -0.4692 -1.6008
13533TIP3    H262091   4.231   4.226  16.874 -1.1968 -0.9429  0.4862
13534TIP3   OH262092   2.317   1.805   3.368  0.0358  0.2004 -0.3830
13534TIP3    H162093   2.348   1.721   3.335 -1.0450 -0.0235 -0.8500
13534TIP3    H262094   2.379   1.828   3.437  0.0254 -1.2443  0.1218
13535TIP3   OH262095   5.045   2.266  17.147 -0.4551 -0.1517  0.4458
13535TIP3    H162096   5.131   2.299  17.122 -0.5774  0.4410  0.8159
13535TIP3    H262097   5.025   2.200  17.081 -1.7159  2.8765 -2.3409
13536TIP3   OH262098   3.253   1.438  16.814 -0.3117 -0.1404 -0.4597
13536TIP3    H162099   3.276   1.379  16.885 -1.7718 -0.0361  0.1320
13536TIP3    H262100   3.211   1.382  16.749 -0.5648  0.0319 -0.4484
13537TIP3   OH262101   1.846   0.948  11.929 -0.1614 -0.0020  0.3975
13537TIP3    H162102   1.934   0.984  11.927  0.2008 -0.9071 -0.3442
13537TIP3    H262103   1.806   0.985  12.008  1.7041 -1.4728  2.1029
13538TIP3   OH262104   1.740   2.820  12.004 -0.5491 -0.2276 -0.4560
13538TIP3    H162105   1.651   2.785  12.005 -0.2022 -1.1151 -0.1474
13538TIP3    H262106   1.731   2.908  12.040 -1.2607 -0.4205 -0.1405
13539TIP3   OH262107   4.062   0.815  14.234  0.2657 -0.2092 -0.1475
13539TIP3    H162108   3.990   0.873  14.209  0.9126 -0.6253 -3.1227
13539TIP3    H262109   4.030   0.727  14.214  2.0071 -0.3205 -2.6604
13540TIP3   OH262110   4.096   1.679   2.735 -0.6890 -0.0199 -0.2370
13540TIP3    H162111   4.174   1.655   2.786 -2.1965  0.4827  2.3893
13540TIP3    H262112   4.055   1.595   2.713 -1.0562 -0.1724  1.0302
13541TIP3   OH262113   0.457   6.153  15.758  0.5222  0.0155 -0.1022
13541TIP3    H162114   0.495   6.192  15.680 -1.0706  0.6999 -0.5579
13541TIP3    H262115   0.486   6.209  15.830  0.5985  0.3641 -0.4075
13542TIP3   OH262116   0.235   3.731   3.321 -0.0105  0.6033 -0.1225
13542TIP3    H162117   0.324   3.707   3.348  0.8225  0.5727 -2.8039
13542TIP3    H262118   0.185   3.728   3.403  2.3806  0.4125  1.4133
13543TIP3   OH262119   2.112   2.448   4.056  0.2026 -0.1851 -0.7853
13543TIP3    H162120   2.115   2.535   4.016 -1.2123 -0.0165 -0.5736
13543TIP3    H262121   2.198   2.437   4.096  0.3121  1.2409 -0.5803
13544TIP3   OH262122   3.721   2.916  14.895 -0.6043  0.2475 -0.5505
13544TIP3    H162123   3.807   2.886  14.867 -1.4325 -1.2911 -1.5314
13544TIP3    H262124   3.673   2.932  14.814 -1.1173  1.4985 -0.0189
13545TIP3   OH262125   4.801   2.869   4.680 -0.1491 -0.2821  0.1355
13545TIP3    H162126   4.726   2.894   4.735 -0.2634  0.3657 -0.3048
13545TIP3    H262127   4.877   2.904   4.726  0.0869 -2.6106  1.5817
13546TIP3   OH262128   4.105   5.057   3.932  0.4234  0.2071 -0.1062
13546TIP3    H162129   4.136   5.120   3.867 -0.1662  0.6535  0.0363
13546TIP3    H262130   4.047   5.108   3.989 -1.0968 -0.7292 -0.7568
13547TIP3   OH262131   6.092   2.614   0.827 -0.1590 -0.0189 -0.7618
13547TIP3    H162132   6.132   2.693   0.791 -1.4341 -0.0861 -2.3786
13547TIP3    H262133   6.079   2.556   0.752  0.6188 -1.7219  0.3869
13548TIP3   OH262134   5.443   1.161   0.322  0.1065 -0.4854  0.7747
13548TIP3    H162135   5.380   1.159   0.394  0.4088 -0.4270  1.0379
13548TIP3    H262136   5.514   1.217   0.353  0.5453 -0.9912  0.6910
13549TIP3   OH262137   3.043   2.540   4.885  0.0370  0.4535  0.6065
13549TIP3    H162138   3.029   2.607   4.952 -0.7063  1.4212 -0.5070
13549TIP3    H262139   2.960   2.535   4.838  1.4381  1.8317 -2.0809
13550TIP3   OH262140   0.589   0.325  16.583  0.3188 -0.0065 -0.0433
13550TIP3    H162141   0.580   0.248  16.527 -0.6587 -0.5572  0.8467
13550TIP3    H262142   0.661   0.303  16.642  1.1335  0.4420 -0.8619
13551TIP3   OH262143   5.079   3.970   6.571  0.5657 -0.6113  0.3436
13551TIP3    H162144   5.016   3.906   6.539 -0.7445  0.1752  1.2718
13551TIP3    H262145   5.067   4.046   6.514 -0.1587 -0.0436  1.2324
13552TIP3   OH262146   1.920   3.861   2.695 -0.0298 -0.1288 -0.0205
13552TIP3    H162147   1.923   3.895   2.785 -0.3777  0.4825 -0.2385
13552TIP3    H262148   1.959   3.931   2.642 -0.2159 -0.3109 -0.3998
13553TIP3   OH262149   6.503   3.634  15.244 -0.1143 -0.3363 -0.0615
13553TIP3    H162150   6.493   3.724  15.213  0.4419  0.2614  1.4378
13553TIP3    H262151   6.593   3.631  15.279 -0.9005 -0.7911  2.0069
13554TIP3   OH262152   1.911   5.761  12.342  0.4561 -0.6316  0.0770
13554TIP3    H162153   1.915   5.745  12.247  1.6630  2.9666 -0.5347
13554TIP3    H262154   1.946   5.849  12.353  0.6012 -1.1036  3.9452
13555TIP3   OH262155   5.315   5.743  11.694  0.2616 -0.2215  0.4744
13555TIP3    H162156   5.258   5.789  11.755  1.0091 -0.1100  1.0893
13555TIP3    H262157   5.391   5.717  11.746  0.1283 -1.6243  0.0002
13556TIP3   OH262158   2.962   0.034   2.126 -0.1115 -0.2215  0.7029
13556TIP3    H162159   2.969  -0.017   2.207 -0.7254 -0.7302  0.4373
13556TIP3    H262160   2.905  -0.018   2.070  0.6613 -0.0791 -0.2236
13557TIP3   OH262161   5.334   3.243  12.378  0.0283  0.0743 -0.1859
13557TIP3    H162162   5.408   3.304  12.379 -0.5174  0.8384  4.1512
13557TIP3    H262163   5.371   3.159  12.405 -0.4431  0.1322  0.6494
13558TIP3   OH262164   0.827   3.205   4.897 -0.3936  0.5737 -0.2285
13558TIP3    H162165   0.795   3.150   4.825 -1.5304  0.8973  0.0223
13558TIP3    H262166   0.768   3.280   4.898 -0.5656  0.4398  1.2158
13559TIP3   OH262167   3.191   5.943  11.977 -0.1778 -0.8524  0.0200
13559TIP3    H162168   3.170   6.033  11.955  0.5828 -0.7476 -0.2776
13559TIP3    H262169   3.106   5.899  11.982 -0.5818  0.0061  0.7347
13560TIP3   OH262170   4.378   4.408   2.776 -0.0259 -0.3582 -0.2774
13560TIP3    H162171   4.380   4.366   2.691 -0.6825 -0.3281 -0.3074
13560TIP3    H262172   4.331   4.347   2.833 -0.2252 -0.0580 -0.1129
13561TIP3   OH262173   1.469   1.194  10.838  0.6715  0.4161 -0.0335
13561TIP3    H162174   1.504   1.177  10.750 -2.0291 -1.4269 -0.8133
13561TIP3    H262175   1.424   1.277  10.830  0.1748  0.1082 -0.4863
13562TIP3   OH262176   0.904   5.513  14.975 -0.1420  0.4362  0.3213
13562TIP3    H162177   0.937   5.601  14.954 -0.5915  0.2507 -1.2022
13562TIP3    H262178   0.814   5.514  14.945  0.0964 -0.8181 -0.4423
13563TIP3   OH262179   6.509   4.695   3.994  0.0256 -0.0087  0.2429
13563TIP3    H162180   6.416   4.681   3.979 -0.2208  0.0443  1.6132
13563TIP3    H262181   6.550   4.687   3.908 -1.2240 -0.2017 -0.3317
13564TIP3   OH262182   4.531   1.115   0.303 -0.6762 -0.0877  0.1387
13564TIP3    H162183   4.484   1.150   0.227 -1.4384 -0.7155  0.3032
13564TIP3    H262184   4.562   1.029   0.274  1.2945  0.7701 -0.3104
13565TIP3   OH262185   1.475   0.787   2.385  0.1162 -1.1496  0.3325
13565TIP3    H162186   1.521   0.704   2.399  1.4927 -0.4728 -0.0982
13565TIP3    H262187   1.521   0.827   2.311 -0.3300  0.1515  0.7593
13566TIP3   OH262188   3.430   5.617   1.138 -0.1462  0.6103  0.3749
13566TIP3    H162189   3.362   5.637   1.203 -0.7401  0.5249 -0.2102
13566TIP3    H262190   3.474   5.540   1.172 -0.2830  0.7226  0.8103
13567TIP3   OH262191   1.140   5.397   5.087  0.3359 -0.3924 -0.4315
13567TIP3    H162192   1.186   5.392   5.171  0.3831 -1.1149 -0.4911
13567TIP3    H262193   1.050   5.420   5.110  1.0237  2.3921 -0.4174
13568TIP3   OH262194   0.228   4.237  14.048 -0.6420  0.5405  0.4044
13568TIP3    H162195   0.171   4.280  13.985 -0.2448  1.4387  0.6491
13568TIP3    H262196   0.264   4.309  14.100 -1.0384 -0.1911  1.7072
13569TIP3   OH262197   2.174   5.715  16.209  0.3076 -0.4790 -0.1923
13569TIP3    H162198   2.106   5.769  16.250  0.0114 -0.9083 -0.1147
13569TIP3    H262199   2.128   5.670  16.138  0.8251  0.2816 -1.0127
13570TIP3   OH262200   3.637   3.455   5.554  0.3800 -0.8805  0.0057
13570TIP3    H162201   3.633   3.420   5.643  1.3211 -0.1312  0.3507
13570TIP3    H262202   3.586   3.535   5.557 -1.5395 -2.0463 -0.7165
13571TIP3   OH262203   2.595   3.528  12.511  0.3568 -0.3251 -0.6259
13571TIP3    H162204   2.514   3.565  12.477  1.6980  2.5722 -0.7501
13571TIP3    H262205   2.617   3.582  12.587  1.2093 -2.2686  0.5790
13572TIP3   OH262206   1.781   6.375   1.939  0.4914  0.0483 -0.7027
13572TIP3    H162207   1.771   6.346   1.848 -0.0598  1.3478 -1.0570
13572TIP3    H262208   1.693   6.363   1.976  0.1507  1.6849 -0.9733
13573TIP3   OH262209   6.108   5.931  16.514  0.0016  1.3325 -0.6265
13573TIP3    H162210   6.050   5.964  16.583  1.4307  0.3987  1.0472
13573TIP3    H262211   6.189   5.981  16.525  0.1193  1.4355 -1.8734
13574TIP3   OH262212   4.314   1.164   0.948  0.4453  0.0488 -0.6276
13574TIP3    H162213   4.226   1.129   0.959  1.2287 -1.8146  0.0127
13574TIP3    H262214   4.337   1.200   1.033  0.9730 -1.1234 -0.2603
13575TIP3   OH262215   1.669   0.827   2.204  0.1032 -0.1502 -0.6719
13575TIP3    H162216   1.711   0.893   2.149  1.2243 -0.0739  0.2701
13575TIP3    H262217   1.740   0.790   2.256 -0.8580 -0.6408  0.3062
13576TIP3   OH262218   0.634   0.038  16.169 -0.6961  0.3381 -0.1386
13576TIP3    H162219   0.580   0.082  16.104 -0.5855 -0.0706 -0.5078
13576TIP3    H262220   0.668  -0.039  16.124 -0.4725  0.1527  0.3459
13577TIP3   OH262221   6.007   1.605  12.225  0.0331  0.1906  0.0080
13577TIP3    H162222   6.049   1.602  12.311  0.0244  0.4781  0.0203
13577TIP3    H262223   5.954   1.685  12.226 -0.3835 -0.0799 -0.0687
13578TIP3   OH262224   6.574   6.439  16.532 -0.0226  0.3770  0.5899
13578TIP3    H162225   6.553   6.468  16.621 -1.0315  1.7069 -0.0804
13578TIP3    H262226   6.503   6.379  16.509  0.5316 -0.4068  0.8716
13579TIP3   OH262227   5.082   3.697   4.756  0.4732 -0.5982  0.4118
13579TIP3    H162228   5.063   3.717   4.848 -0.7065  3.3139 -0.5871
13579TIP3    H262229   5.001   3.657   4.723  0.8517 -1.8831  1.0294
13580TIP3   OH262230   1.013   5.358  11.926  0.1616 -0.0767  0.0385
13580TIP3    H162231   1.048   5.335  11.840  0.0162  1.1861 -0.3696
13580TIP3    H262232   1.026   5.453  11.932 -1.3644  0.1012  0.7032
13581TIP3   OH262233   3.146   0.909   3.426 -0.2711 -0.1511 -0.1104
13581TIP3    H162234   3.097   0.828   3.412  0.1105 -0.3616 -0.2224
13581TIP3    H262235   3.078   0.974   3.444 -0.5242 -0.7066  0.9895
13582TIP3   OH262236   0.283   1.096  14.594 -0.2191  0.3205  0.4593
13582TIP3    H162237   0.248   1.050  14.670  0.8124 -0.3140  0.5555
13582TIP3    H262238   0.214   1.159  14.571  0.1337  1.6686  2.8913
13583TIP3   OH262239   2.736   2.456   4.408  0.1323  0.3932  0.0635
13583TIP3    H162240   2.729   2.537   4.358  0.1864 -0.2319 -0.9678
13583TIP3    H262241   2.691   2.391   4.355 -1.7622  0.1777  1.8831
13584TIP3   OH262242   0.749   4.089   3.404  0.3998 -0.0353  0.0945
13584TIP3    H162243   0.744   4.043   3.488 -0.3495 -0.2008 -0.0355
13584TIP3    H262244   0.663   4.131   3.395  0.8756  0.9225 -0.0564
13585TIP3   OH262245   2.675   5.096  13.544 -0.0584 -0.0744  0.0774
13585TIP3    H162246   2.594   5.058  13.576 -0.2995 -0.3245 -0.8113
13585TIP3    H262247   2.742   5.068  13.607 -0.5848 -0.2052  0.5822
13586TIP3   OH262248   4.083   5.140   2.640 -0.1862  0.4812  0.2985
13586TIP3    H162249   4.155   5.120   2.699 -0.7692  1.4719  1.3791
13586TIP3    H262250   4.004   5.131   2.694 -0.9428 -1.4045 -1.0860
13587TIP3   OH262251   5.438   5.196   1.554  0.2741 -0.0903  0.2075
13587TIP3    H162252   5.530   5.221   1.548 -0.1945  2.0752  1.3576
13587TIP3    H262253   5.401   5.217   1.469  0.7930 -0.7618 -0.1839
13588TIP3   OH262254   6.715   1.272  17.289  0.2523 -0.3310 -0.3209
13588TIP3    H162255   6.672   1.298  17.207  0.4417  2.2006  0.3201
13588TIP3    H262256   6.645   1.274  17.354  0.5638  0.0592  0.0079
13589TIP3   OH262257   2.694   1.193  16.620  0.2378  0.3558 -0.3208
13589TIP3    H162258   2.628   1.230  16.563 -0.0929  0.0408 -0.1436
13589TIP3    H262259   2.664   1.213  16.709  1.1717  1.5799 -0.2636
13590TIP3   OH262260   6.513   4.238   1.072 -0.2715  0.5636 -0.4654
13590TIP3    H162261   6.599   4.274   1.094  1.5006 -1.1900 -4.0893
13590TIP3    H262262   6.504   4.161   1.129  0.0610  1.3314  0.6434
13591TIP3   OH262263   3.220   3.301   3.694  0.8122 -0.1153 -0.1435
13591TIP3    H162264   3.217   3.349   3.612  0.3241 -0.1402 -0.1415
13591TIP3    H262265   3.179   3.217   3.674 -2.1063  0.9978  0.8681
13592TIP3   OH262266   0.398   2.342   2.359 -0.1234 -0.1175  0.0889
13592TIP3    H162267   0.477   2.288   2.370  0.1647  0.1521 -0.6657
13592TIP3    H262268   0.425   2.429   2.388  0.1839  0.2371 -1.2757
13593TIP3   OH262269   0.317   6.145  12.378 -0.3341  0.7012 -0.9951
13593TIP3    H162270   0.328   6.238  12.358 -0.1100  0.8619 -0.1177
13593TIP3    H262271   0.315   6.141  12.473 -2.8950  0.0934 -1.0363
13594TIP3   OH262272   3.215   3.085   3.951 -0.3506  0.1282 -0.8970
13594TIP3    H162273   3.233   3.167   3.997 -2.5222  0.0379  0.1704
13594TIP3    H262274   3.132   3.100   3.906 -2.7544 -2.6684  2.3478
13595TIP3   OH262275   3.110   3.490   1.124  0.6729  0.3907  0.1775
13595TIP3    H162276   3.081   3.579   1.102 -0.4445  0.5649  2.2416
13595TIP3    H262277   3.113   3.488   1.219  2.4680 -1.2535  0.1180
13596TIP3   OH262278   3.227   2.687   0.556 -0.2274 -0.2732  0.4102
13596TIP3    H162279   3.202   2.689   0.463 -0.0905 -2.1273  0.3152
13596TIP3    H262280   3.152   2.726   0.601 -0.9847 -0.7956 -0.3601
13597TIP3   OH262281   5.038   5.333   2.918 -0.2093 -0.2470  0.2693
13597TIP3    H162282   5.116   5.279   2.912 -0.9647 -1.5423  1.6193
13597TIP3    H262283   5.007   5.341   2.828  1.0851 -0.3012 -0.1835
13598TIP3   OH262284   0.389   5.400   4.873 -0.2413  0.0968  0.0785
13598TIP3    H162285   0.459   5.426   4.813  1.1326  0.1756  1.6602
13598TIP3    H262286   0.362   5.314   4.842  1.4310 -0.4873  0.1614
13599TIP3   OH262287   3.143   0.988   6.384 -0.5651 -0.3206  0.2028
13599TIP3    H162288   3.133   0.973   6.478 -0.4032 -1.7795  0.0025
13599TIP3    H262289   3.058   1.022   6.355 -0.4403  0.6492  0.9652
13600TIP3   OH262290   3.525   3.730   5.582  0.3719  0.1575  0.3343
13600TIP3    H162291   3.482   3.778   5.511  1.1926  0.5427  0.0887
13600TIP3    H262292   3.490   3.770   5.662  0.2007  0.3986  0.1388
13601TIP3   OH262293   6.721   1.082   1.188  0.1949 -0.1411 -0.1107
13601TIP3    H162294   6.740   1.113   1.100  0.7238  0.7808  0.3255
13601TIP3    H262295   6.804   1.047   1.220 -0.2296 -1.3911 -0.3365
13602TIP3   OH262296   3.260   2.434   0.737 -0.0241 -0.1287  0.1050
13602TIP3    H162297   3.184   2.477   0.777  1.7738  1.4806  1.9454
13602TIP3    H262298   3.332   2.497   0.749  1.4120 -1.2287 -2.3769
13603TIP3   OH262299   2.810   5.324  10.563  0.4404 -0.4416  0.7547
13603TIP3    H162300   2.775   5.406  10.527  1.1766 -0.3826  0.1855
13603TIP3    H262301   2.814   5.264  10.489  2.7981 -0.0421  0.5424
13604TIP3   OH262302   6.259   6.635  11.798 -0.7350 -0.2120 -0.4130
13604TIP3    H162303   6.183   6.576  11.804  0.3398 -1.8317 -2.1842
13604TIP3    H262304   6.225   6.713  11.754 -1.7019 -0.3726  0.0420
13605TIP3   OH262305   0.261   1.425   4.413 -0.3670 -0.3893 -0.3694
13605TIP3    H162306   0.176   1.463   4.392 -0.6731 -0.2214  1.0746
13605TIP3    H262307   0.288   1.379   4.334 -0.9477  1.1146 -1.4628
13606TIP3   OH262308   5.934   6.650   0.601 -0.2417 -0.1558 -0.6995
13606TIP3    H162309   5.975   6.734   0.580 -0.9469  0.3382 -0.1282
13606TIP3    H262310   5.920   6.608   0.516 -0.0038  0.3554 -0.9935
13607TIP3   OH262311   4.730   5.739  15.820  0.1636  0.0358  0.2787
13607TIP3    H162312   4.711   5.676  15.750  2.2768 -0.3717  0.0468
13607TIP3    H262313   4.678   5.816  15.797 -0.7861 -0.8438 -0.5974
13608TIP3   OH262314   6.539   3.732   4.963  0.1786 -0.2252 -0.1817
13608TIP3    H162315   6.548   3.768   4.875 -0.6796  0.2240 -0.0920
13608TIP3    H262316   6.460   3.678   4.959  0.4419 -0.6373  0.1671
13609TIP3   OH262317   4.426   6.284  11.918 -0.1762 -0.5605 -0.0941
13609TIP3    H162318   4.500   6.344  11.904  0.4920 -1.9393 -2.7712
13609TIP3    H262319   4.350   6.332  11.886 -0.2253  0.2116  1.1179
13610TIP3   OH262320   2.736   1.971   1.705 -0.4030 -0.3744  0.2647
13610TIP3    H162321   2.782   1.918   1.639  0.4295  0.2988  0.2953
13610TIP3    H262322   2.726   1.913   1.780  0.3385 -0.5507  0.2298
13611TIP3   OH262323   2.514   2.203  13.921  0.1832 -0.6067  0.2588
13611TIP3    H162324   2.511   2.123  13.868 -0.5150  0.0044 -0.6206
13611TIP3    H262325   2.605   2.232  13.916 -0.1807  0.2531 -1.8040
13612TIP3   OH262326   6.228   0.291   2.813 -0.1248  0.3177 -0.4231
13612TIP3    H162327   6.304   0.309   2.869  0.3902  0.0580 -1.0265
13612TIP3    H262328   6.239   0.200   2.785 -0.9004  0.1382 -0.1569
13613TIP3   OH262329   4.674   0.157  14.230 -0.1987  0.2209  0.4154
13613TIP3    H162330   4.664   0.170  14.324  0.9882 -2.5582  0.9571
13613TIP3    H262331   4.706   0.068  14.221 -0.8195  0.2557 -2.6745
13614TIP3   OH262332   5.331   4.935  17.127  0.1897 -0.2827 -0.2087
13614TIP3    H162333   5.266   4.998  17.158  1.9843  1.6377 -0.2547
13614TIP3    H262334   5.407   4.950  17.182  1.7436 -0.2076 -2.3182
13615TIP3   OH262335   4.699   5.791  16.403  0.3575 -0.2454  0.1717
13615TIP3    H162336   4.720   5.884  16.394  0.6644 -0.3038  0.2619
13615TIP3    H262337   4.650   5.785  16.485  0.6142 -0.2059  0.3296
13616TIP3   OH262338   5.634   0.927   5.601  0.0014  0.0301 -0.0482
13616TIP3    H162339   5.548   0.939   5.641  0.6991 -0.9163  1.7856
13616TIP3    H262340   5.648   0.832   5.604 -0.5707 -0.2666 -3.9553
13617TIP3   OH262341   1.876   5.667  13.909 -0.2207 -0.1987  0.5107
13617TIP3    H162342   1.804   5.614  13.943  1.1472 -1.9832  0.7012
13617TIP3    H262343   1.906   5.620  13.831 -0.0039  1.1275 -0.2084
13618TIP3   OH262344   1.031   6.220   1.614 -0.3785  0.2685 -0.1882
13618TIP3    H162345   1.093   6.268   1.559  0.3526 -0.4768 -0.0299
13618TIP3    H262346   1.039   6.260   1.701 -0.1251  0.1893 -0.1733
13619TIP3   OH262347   2.176   3.578  12.032 -0.0305 -0.4470  0.2361
13619TIP3    H162348   2.122   3.609  12.106 -1.3925  0.4944 -1.1219
13619TIP3    H262349   2.217   3.657  11.998  1.4463 -1.0288  0.6234
13620TIP3   OH262350   0.023   4.681  11.156 -0.0169 -0.2059  0.0398
13620TIP3    H162351   0.081   4.629  11.212 -0.5652 -0.0827  0.7320
13620TIP3    H262352  -0.062   4.677  11.199 -0.1424  0.9805 -0.0774
13621TIP3   OH262353   0.423   2.120   2.865  0.0883 -1.1444  0.1884
13621TIP3    H162354   0.356   2.187   2.881  0.2882 -0.7742 -0.4977
13621TIP3    H262355   0.386   2.067   2.794  0.8815 -0.4181 -0.7884
13622TIP3   OH262356   4.034   0.393   0.607  0.1234  0.6468 -0.1342
13622TIP3    H162357   3.981   0.448   0.665  1.3673 -0.3603  2.0341
13622TIP3    H262358   4.053   0.315   0.659 -0.5293 -1.2829 -2.6969
13623TIP3   OH262359   1.123   2.462  12.623 -0.7726  0.1527 -0.5662
13623TIP3    H162360   1.064   2.527  12.583  0.0673  1.0301 -0.4091
13623TIP3    H262361   1.209   2.503  12.617 -0.6592  0.4021  2.3712
13624TIP3   OH262362   5.848   6.466  15.377  0.2916 -0.2441  0.4106
13624TIP3    H162363   5.918   6.460  15.443  3.0041 -0.2939 -2.3599
13624TIP3    H262364   5.829   6.375  15.354  0.7436 -0.1795 -0.2465
13625TIP3   OH262365   4.540   3.469  12.829 -0.0773 -0.2595 -0.2268
13625TIP3    H162366   4.445   3.458  12.827 -0.1217  0.2356 -1.4162
13625TIP3    H262367   4.574   3.388  12.789 -0.0617  0.0993 -0.9600
13626TIP3   OH262368   3.899   2.258   0.056 -0.4209  0.1252  0.3095
13626TIP3    H162369   3.913   2.186  -0.006  2.0487  0.6651  0.1630
13626TIP3    H262370   3.863   2.216   0.134  0.0153 -1.1284 -0.1455
13627TIP3   OH262371   2.729   3.945   3.108  0.6701  0.0335 -0.0707
13627TIP3    H162372   2.659   3.920   3.167  0.6982 -1.2882 -0.5841
13627TIP3    H262373   2.695   4.022   3.062 -0.4419 -0.5808 -0.2989
13628TIP3   OH262374   6.290   4.512   0.175  0.1292  0.0233 -0.2959
13628TIP3    H162375   6.355   4.446   0.150  1.2738  0.9458  0.2253
13628TIP3    H262376   6.340   4.580   0.219 -1.1508  0.9091 -0.1810
13629TIP3   OH262377   0.273   1.226   4.903  0.5670 -0.0889 -0.4538
13629TIP3    H162378   0.261   1.268   4.818  0.2913  1.7550  0.4653
13629TIP3    H262379   0.217   1.276   4.962 -0.1021 -2.0463  0.6100
13630TIP3   OH262380   5.992   2.122   6.596  0.6465 -0.1809 -0.1411
13630TIP3    H162381   6.085   2.140   6.591  0.8102 -0.7499  0.8378
13630TIP3    H262382   5.978   2.048   6.538  0.6887  0.3234 -0.7991
13631TIP3   OH262383   3.693   4.732   0.611 -0.3460  0.2415  0.4132
13631TIP3    H162384   3.747   4.654   0.622  0.5239  0.8076  0.2111
13631TIP3    H262385   3.606   4.698   0.588  0.1674 -0.6531 -0.2548
13632TIP3   OH262386   6.636   1.420  15.385  0.1276  0.5065  0.1406
13632TIP3    H162387   6.615   1.443  15.475  0.1275 -1.8227  0.7715
13632TIP3    H262388   6.553   1.390  15.347  0.4209  0.0529 -0.1594
13633TIP3   OH262389   3.170   5.333   5.202 -0.3980 -0.0504 -0.4077
13633TIP3    H162390   3.091   5.387   5.194  0.7215  1.5603 -0.9117
13633TIP3    H262391   3.164   5.272   5.129 -1.1168  0.1512 -0.5245
13634TIP3   OH262392   3.872   2.791  10.661 -0.1286  0.7178  0.0831
13634TIP3    H162393   3.933   2.792  10.587 -0.8272  0.8359 -0.4915
13634TIP3    H262394   3.903   2.861  10.718 -0.5218  1.6707 -0.8580
13635TIP3   OH262395   1.460   5.593  14.343  0.2168 -0.3289  0.1446
13635TIP3    H162396   1.520   5.543  14.288  2.0654  0.6961  1.1921
13635TIP3    H262397   1.389   5.617  14.284  0.4412 -2.1665 -0.9405
13636TIP3   OH262398   4.605   6.452   4.314  0.6701 -0.7739  0.3903
13636TIP3    H162399   4.650   6.490   4.390 -1.0347  1.1420  0.5085
13636TIP3    H262400   4.654   6.484   4.238 -0.0390  0.7031  0.5420
13637TIP3   OH262401   1.880   6.730   6.429 -0.1856 -0.0396 -0.1601
13637TIP3    H162402   1.811   6.768   6.483 -0.8195 -2.1315  0.5352
13637TIP3    H262403   1.834   6.671   6.369  0.6810  0.9880 -1.8927
13638TIP3   OH262404   3.671   6.334  12.209 -0.4543  0.3366  0.0040
13638TIP3    H162405   3.699   6.247  12.237 -0.7502  0.9308  2.1974
13638TIP3    H262406   3.689   6.391  12.284 -2.4888  1.7361 -0.5216
13639TIP3   OH262407   1.652   3.430   1.271 -0.4069 -0.6897  0.0460
13639TIP3    H162408   1.610   3.448   1.355  0.2182 -1.8208  0.6042
13639TIP3    H262409   1.636   3.509   1.219 -0.9246 -0.0460  1.1689
13640TIP3   OH262410   6.291   4.611  14.838 -0.1898  0.1485  0.2869
13640TIP3    H162411   6.218   4.552  14.819  0.5012 -0.6128  0.0347
13640TIP3    H262412   6.353   4.597  14.768  0.5307  0.2845  0.8934
13641TIP3   OH262413   5.705   6.139  16.548  0.2912 -0.6906 -0.0143
13641TIP3    H162414   5.669   6.111  16.633  0.2214  0.3022  0.2868
13641TIP3    H262415   5.650   6.095  16.483 -0.2165 -0.7488  0.4495
13642TIP3   OH262416   1.229   0.500   5.264 -0.7353  0.2771 -0.0627
13642TIP3    H162417   1.309   0.552   5.267 -0.8782  0.4295  1.3943
13642TIP3    H262418   1.162   0.562   5.236 -0.1724 -0.0826 -2.2421
13643TIP3   OH262419   4.535   4.258  11.374  0.4615  0.1970 -0.3210
13643TIP3    H162420   4.439   4.266  11.368  0.4186 -0.2632 -0.2472
13643TIP3    H262421   4.561   4.331  11.430 -0.0571 -0.8712  1.3573
13644TIP3   OH262422   3.993   3.026   1.099 -0.3811  0.1766  0.0068
13644TIP3    H162423   3.982   2.987   1.012  0.3995 -1.0817  0.4530
13644TIP3    H262424   3.908   3.013   1.142 -0.5945  0.3069 -0.3731
13645TIP3   OH262425   2.752   2.147   4.060  0.1743 -1.0232 -0.4113
13645TIP3    H162426   2.766   2.064   4.105  0.3521 -1.2752 -0.9347
13645TIP3    H262427   2.835   2.165   4.015  0.0922 -0.6300 -0.4077
13646TIP3   OH262428   2.225   4.153  15.866  0.3675 -0.0776  0.4241
13646TIP3    H162429   2.206   4.114  15.781 -0.6716 -0.8038  0.9678
13646TIP3    H262430   2.155   4.121  15.923  1.4612 -0.1934  1.7326
13647TIP3   OH262431   5.884   1.171  13.607  0.2875 -0.2329 -0.0050
13647TIP3    H162432   5.818   1.179  13.538  0.2492  0.7365  0.1405
13647TIP3    H262433   5.841   1.119  13.675 -0.3901  0.5652  0.1796
13648TIP3   OH262434   2.496   4.593   0.917 -0.1782  0.7635  0.2156
13648TIP3    H162435   2.450   4.566   0.996  0.6673 -2.0630 -0.1978
13648TIP3    H262436   2.588   4.597   0.943  0.3233 -1.7971 -0.9354
13649TIP3   OH262437   5.516   2.392   3.894 -0.0553  0.4342  0.2977
13649TIP3    H162438   5.519   2.475   3.847  3.1986 -0.0021 -0.4616
13649TIP3    H262439   5.577   2.403   3.967  0.4584 -1.2265  0.1664
13650TIP3   OH262440   3.738   6.632  13.099 -0.2864 -0.0858  0.2870
13650TIP3    H162441   3.740   6.659  13.008  1.1429  1.4779  0.7689
13650TIP3    H262442   3.646   6.609  13.115 -0.9456  1.6083 -0.9684
13651TIP3   OH262443   0.463   3.610   1.106  0.1740  0.4877 -0.1776
13651TIP3    H162444   0.505   3.578   1.185  0.1341 -1.8336 -1.0641
13651TIP3    H262445   0.411   3.685   1.135  0.0738 -0.3904  2.0035
13652TIP3   OH262446   2.451   4.973  13.639 -0.1169  0.1313  0.7074
13652TIP3    H162447   2.434   4.888  13.680  0.5871  0.4053  1.5751
13652TIP3    H262448   2.407   5.037  13.695  0.8881  0.5112  1.0860
13653TIP3   OH262449   0.079   0.948   4.146  0.3641  0.0201  0.0109
13653TIP3    H162450   0.116   0.876   4.198 -0.3501 -0.1397  0.3102
13653TIP3    H262451   0.086   0.918   4.056 -0.6754 -0.7975  0.1828
13654TIP3   OH262452   0.920   0.702  15.271 -0.0527  0.0560 -0.1091
13654TIP3    H162453   0.999   0.750  15.296  0.8774 -2.2030  1.5223
13654TIP3    H262454   0.951   0.614  15.250 -2.1794 -1.0472  1.1419
13655TIP3   OH262455   5.259   3.283  17.099  0.0949  0.6058  0.5921
13655TIP3    H162456   5.277   3.373  17.073  1.2417  0.3440  0.4899
13655TIP3    H262457   5.343   3.247  17.126 -0.3799 -0.3880  0.8017
13656TIP3   OH262458   3.295   0.184   4.293  0.2638 -0.2509 -0.1943
13656TIP3    H162459   3.251   0.118   4.348 -1.4260  0.8820 -0.1335
13656TIP3    H262460   3.351   0.133   4.235  0.0055 -1.6554  0.7427
13657TIP3   OH262461   6.001   3.664  14.778  0.8087 -0.2854 -0.0449
13657TIP3    H162462   5.935   3.652  14.846  1.1109  0.4480  0.3830
13657TIP3    H262463   6.028   3.576  14.755 -0.2808 -0.5951 -0.1879
13658TIP3   OH262464   0.364   1.801   5.816 -0.0313  0.1993 -0.5335
13658TIP3    H162465   0.283   1.756   5.792 -0.0635 -0.4590  0.7742
13658TIP3    H262466   0.337   1.872   5.874  0.3444 -0.0878 -0.0054
13659TIP3   OH262467   6.694   3.704  13.884 -0.1950 -0.0982 -0.7412
13659TIP3    H162468   6.713   3.785  13.931  0.5935 -0.8548  0.3122
13659TIP3    H262469   6.664   3.644  13.953 -0.2205 -0.8592 -1.4113
13660TIP3   OH262470   5.279   0.713  13.889  0.5418 -0.0461  0.5646
13660TIP3    H162471   5.320   0.745  13.809  0.2981  0.0989  0.4993
13660TIP3    H262472   5.284   0.617  13.881  2.2351 -0.0405  1.2562
13661TIP3   OH262473   0.287   5.454   2.387  0.5290  0.7613 -0.1294
13661TIP3    H162474   0.320   5.517   2.451 -0.0634  0.8157  0.1262
13661TIP3    H262475   0.322   5.484   2.303 -0.6589  2.0719 -0.1705
13662TIP3   OH262476   3.824   1.970  17.290 -0.4145 -0.3692 -0.2291
13662TIP3    H162477   3.747   2.015  17.326 -1.2481 -0.6020 -1.6891
13662TIP3    H262478   3.794   1.933  17.207  1.7205  0.9368 -1.6292
13663TIP3   OH262479   6.318   2.749  13.681 -0.8857  0.5460 -0.3729
13663TIP3    H162480   6.270   2.770  13.600 -1.0404  0.0470 -0.4105
13663TIP3    H262481   6.385   2.817  13.687 -0.1604 -0.0611 -1.5148
13664TIP3   OH262482   2.157   3.691  13.347 -0.1103 -0.0098  0.3254
13664TIP3    H162483   2.123   3.730  13.267 -0.0013 -0.7252 -0.0723
13664TIP3    H262484   2.252   3.703  13.343 -0.0616 -0.4381  0.1319
13665TIP3   OH262485   6.340   1.067  17.006  0.6076 -0.0764  0.5322
13665TIP3    H162486   6.310   0.998  17.064  1.8175  0.8635  2.3296
13665TIP3    H262487   6.307   1.148  17.045  2.3596  0.6579  0.5316
13666TIP3   OH262488   4.138   5.244  15.033 -0.8076 -0.7242  0.1245
13666TIP3    H162489   4.201   5.196  15.087  0.9245 -0.3202 -1.4862
13666TIP3    H262490   4.154   5.336  15.055  0.9259 -0.4486 -2.0568
13667TIP3   OH262491   2.191   3.151  12.281  0.2208  0.0919 -0.3577
13667TIP3    H162492   2.284   3.165  12.266  0.3920  0.0056  0.5847
13667TIP3    H262493   2.174   3.062  12.251  0.7822 -0.4701  0.9455
13668TIP3   OH262494   5.026   6.780  13.065 -0.2890  0.2567 -0.4910
13668TIP3    H162495   5.050   6.865  13.028  0.0934  0.5255  0.3527
13668TIP3    H262496   4.931   6.774  13.053 -0.2524  0.6112 -0.9442
13669TIP3   OH262497   4.941   1.508   0.691  0.5394 -0.3049  0.4482
13669TIP3    H162498   4.908   1.472   0.609 -0.3605 -0.4930  0.8919
13669TIP3    H262499   4.939   1.435   0.753  1.4975 -0.2451  0.5719
13670TIP3   OH262500   1.526   1.821  14.079 -0.1555 -0.0835  0.0353
13670TIP3    H162501   1.547   1.913  14.060  0.3204 -0.8703 -3.4916
13670TIP3    H262502   1.588   1.797  14.148  1.0989  1.6795 -0.4431
13671TIP3   OH262503   2.193   1.293   2.788  0.6521 -0.2016 -0.2339
13671TIP3    H162504   2.225   1.204   2.804 -0.4292 -0.4187  0.7567
13671TIP3    H262505   2.178   1.297   2.694 -1.0002 -1.6515 -0.0607
13672TIP3   OH262506   3.524   4.962  11.355  0.1528 -0.1919  0.6594
13672TIP3    H162507   3.580   4.934  11.282  0.3410 -1.7429  1.3739
13672TIP3    H262508   3.508   5.055  11.338  0.9443 -0.3033 -0.8637
13673TIP3   OH262509   2.085   3.415   1.838  0.5284 -0.0319 -0.0525
13673TIP3    H162510   2.139   3.379   1.908  0.8541 -1.3517 -0.9556
13673TIP3    H262511   2.113   3.506   1.829  1.0823 -0.1086  0.9380
13674TIP3   OH262512   1.116   5.992  15.807 -0.1865 -0.3639 -0.9284
13674TIP3    H162513   1.205   5.977  15.775  0.9625  1.0612  1.4493
13674TIP3    H262514   1.099   6.084  15.788  0.3577  0.3954  2.0119
13675TIP3   OH262515   5.266   0.447  13.048 -0.3101 -0.6640  0.1353
13675TIP3    H162516   5.330   0.517  13.060  1.4331 -2.0126 -1.0700
13675TIP3    H262517   5.251   0.445  12.953 -3.6203  0.9102  0.5623
13676TIP3   OH262518   4.863   2.399   1.944  0.2432  0.5911  0.4394
13676TIP3    H162519   4.800   2.329   1.928  0.5220  0.6502 -1.0157
13676TIP3    H262520   4.843   2.465   1.878  0.8388  1.2953  0.9572
13677TIP3   OH262521   5.361   4.098   0.590 -0.0167 -0.1140 -0.4280
13677TIP3    H162522   5.398   4.182   0.564  0.3690 -0.2754 -0.3951
13677TIP3    H262523   5.398   4.035   0.529  1.1187 -0.5304  0.6718
13678TIP3   OH262524   3.326   6.525   3.932 -0.2473 -0.1167  0.3119
13678TIP3    H162525   3.351   6.433   3.937 -0.0522 -0.1285 -0.8638
13678TIP3    H262526   3.235   6.527   3.959 -0.6661 -0.8433 -1.0200
13679TIP3   OH262527   2.426   4.161  16.604  0.3519  0.1441  0.3295
13679TIP3    H162528   2.438   4.144  16.511 -0.3527  1.5818 -0.0334
13679TIP3    H262529   2.332   4.147  16.619  0.2189  1.2170  0.5401
13680TIP3   OH262530   4.310   0.583  17.010 -0.0730  0.0730  0.1997
13680TIP3    H162531   4.355   0.514  17.058 -1.9349 -1.0875  0.3370
13680TIP3    H262532   4.270   0.637  17.078  0.2299  0.4952  0.0458
13681TIP3   OH262533   2.812   6.694   0.609 -0.0774 -0.1224 -0.1715
13681TIP3    H162534   2.734   6.695   0.663  0.1245 -0.4280  0.1272
13681TIP3    H262535   2.781   6.670   0.522 -0.1973 -1.0627  0.1284
13682TIP3   OH262536   2.996   0.386  16.248  0.0003  0.4023 -1.0201
13682TIP3    H162537   3.055   0.312  16.235  0.1000  0.4357 -0.7582
13682TIP3    H262538   2.981   0.389  16.343 -0.2033  0.5641 -1.0578
13683TIP3   OH262539   2.156   1.127   5.316  0.1616 -0.0757 -0.3259
13683TIP3    H162540   2.119   1.062   5.256  0.6281  1.0300 -1.8501
13683TIP3    H262541   2.244   1.096   5.334 -0.8664 -1.8477  2.0090
13684TIP3   OH262542   3.339   3.359  17.213  0.7572  0.4122  0.2495
13684TIP3    H162543   3.372   3.283  17.261  0.1923 -0.4366 -0.6968
13684TIP3    H262544   3.321   3.326  17.125  0.7418  1.7044 -0.2425
13685TIP3   OH262545   1.782   6.436  14.980 -0.0819 -0.2001  0.0910
13685TIP3    H162546   1.779   6.518  15.029 -1.3331  0.1247 -0.5083
13685TIP3    H262547   1.847   6.451  14.911  1.7765 -0.7032  1.7069
13686TIP3   OH262548   2.959   1.005  14.654  0.4392  0.0867 -0.3433
13686TIP3    H162549   2.985   1.066  14.723 -1.0032  1.6027 -1.1294
13686TIP3    H262550   2.917   0.933  14.701  0.5708  0.5127  0.4399
13687TIP3   OH262551   5.856   3.673   6.359  0.3546  0.4684 -0.0623
13687TIP3    H162552   5.900   3.645   6.439  0.5125 -1.6057 -0.8294
13687TIP3    H262553   5.787   3.607   6.345 -0.8337  1.8123 -0.6660
13688TIP3   OH262554   1.442   3.924   3.164  0.1027  0.4926  0.3937
13688TIP3    H162555   1.418   4.015   3.180 -1.6302  0.1028  0.0976
13688TIP3    H262556   1.531   3.928   3.129 -0.1335  2.0962 -0.0301
13689TIP3   OH262557   3.330   0.921  11.647 -0.1873  0.0127  0.6623
13689TIP3    H162558   3.379   0.908  11.727  0.8420 -0.5934 -0.0608
13689TIP3    H262559   3.339   0.839  11.598 -2.4070 -0.3449  0.7613
13690TIP3   OH262560   0.665   1.102   0.134 -0.7340 -0.1010 -0.1587
13690TIP3    H162561   0.644   1.069   0.047 -1.7526  0.5772 -0.1762
13690TIP3    H262562   0.621   1.041   0.194 -0.4568 -0.2760 -0.1350
13691TIP3   OH262563   4.856   5.497   1.247  0.2759 -0.1265  0.4443
13691TIP3    H162564   4.927   5.521   1.306  0.1176 -0.0113  0.5894
13691TIP3    H262565   4.815   5.422   1.289  1.6182 -1.5236 -0.6885
13692TIP3   OH262566   2.734   0.690   0.740 -0.3830  0.0985 -0.2317
13692TIP3    H162567   2.775   0.771   0.770 -0.7511  0.3743 -0.4834
13692TIP3    H262568   2.808   0.636   0.710 -0.0641  0.0473  0.6200
13693TIP3   OH262569   6.546   2.461   5.854  0.1679 -0.1535 -0.1432
13693TIP3    H162570   6.530   2.474   5.947  0.5117  1.1796 -0.2715
13693TIP3    H262571   6.629   2.504   5.837 -0.7807  1.2024 -1.4432
13694TIP3   OH262572   0.992   0.161   4.483 -0.6345 -0.1944 -0.1075
13694TIP3    H162573   1.031   0.075   4.471 -1.6348 -1.0385  2.3607
13694TIP3    H262574   0.900   0.143   4.502 -1.1474  1.4976 -0.9007
13695TIP3   OH262575   2.521   1.589  16.711 -0.1265 -0.6093  0.9377
13695TIP3    H162576   2.436   1.574  16.751 -0.2569 -2.1831  0.0827
13695TIP3    H262577   2.579   1.525  16.751  0.3601 -0.4213  0.5429
13696TIP3   OH262578   4.536   1.729   6.147  0.8869  0.3557 -0.2172
13696TIP3    H162579   4.529   1.648   6.197 -1.2559  0.8806  0.3995
13696TIP3    H262580   4.530   1.798   6.212 -2.6012  1.0546 -1.1869
13697TIP3   OH262581   2.348   1.722  10.914  0.3619 -0.0181  0.0199
13697TIP3    H162582   2.350   1.779  10.991 -2.9362  0.0010  0.1801
13697TIP3    H262583   2.296   1.646  10.941  1.0572 -1.0881 -1.5194
13698TIP3   OH262584   0.218   3.955  16.816 -0.3299 -0.1463  0.4099
13698TIP3    H162585   0.215   3.923  16.906 -0.4606 -0.8859  0.1433
13698TIP3    H262586   0.261   4.041  16.822 -0.3700 -0.1817  1.1769
13699TIP3   OH262587   0.093   5.915   4.739  0.1946 -0.4265  0.4142
13699TIP3    H162588   0.121   6.006   4.728 -2.9976  0.7625  1.4510
13699TIP3    H262589   0.069   5.887   4.650  0.7977 -0.1311  0.1533
13700TIP3   OH262590   3.028   4.262   1.430 -0.4638 -0.2715 -0.0181
13700TIP3    H162591   3.074   4.299   1.505 -0.6203 -0.7936  0.3414
13700TIP3    H262592   2.940   4.244   1.463 -0.3515 -1.0709 -0.1461
13701TIP3   OH262593   5.795   2.927   0.788 -0.0895 -0.2816  0.2782
13701TIP3    H162594   5.871   2.974   0.822  0.8177 -0.3872 -1.5244
13701TIP3    H262595   5.830   2.842   0.761 -0.9958 -0.6136  0.1362
13702TIP3   OH262596   4.344   2.755   5.672  0.0226 -0.1990 -0.2819
13702TIP3    H162597   4.351   2.814   5.597  0.8302  0.8048  0.5602
13702TIP3    H262598   4.293   2.681   5.640 -0.4605  0.6623 -1.5463
13703TIP3   OH262599   0.958   1.850   4.165 -0.1598 -0.5834 -0.4040
13703TIP3    H162600   0.959   1.856   4.260 -0.8271  0.4194 -0.4469
13703TIP3    H262601   0.887   1.790   4.145 -1.0456  0.4144 -0.3057
13704TIP3   OH262602   0.522   2.417   6.360  0.2457  0.5577  0.2228
13704TIP3    H162603   0.511   2.330   6.397  1.3444  0.0030 -0.7299
13704TIP3    H262604   0.434   2.455   6.362 -0.0903 -0.2501  1.4117
13705TIP3   OH262605   3.598   6.196   4.204  0.1566  0.1903 -0.1084
13705TIP3    H162606   3.673   6.254   4.190 -0.9082  1.7796  0.6119
13705TIP3    H262607   3.529   6.254   4.236 -1.2673 -1.3177 -0.4019
13706TIP3   OH262608   2.413   6.611   2.010  0.1908 -0.4372 -0.6535
13706TIP3    H162609   2.479   6.631   2.076  0.3132 -0.9194 -0.6294
13706TIP3    H262610   2.443   6.528   1.971 -0.5135 -0.7685 -0.4897
13707TIP3   OH262611   5.981   0.250  13.756 -0.0784 -0.5984 -0.0409
13707TIP3    H162612   6.050   0.305  13.720 -1.6814  0.9864 -0.8203
13707TIP3    H262613   5.925   0.229  13.681 -0.7352 -1.3810  0.6569
13708TIP3   OH262614   4.622   4.090   1.047  0.2109 -0.3120  0.2900
13708TIP3    H162615   4.695   4.136   1.089 -0.1836  0.2046  0.4156
13708TIP3    H262616   4.577   4.044   1.118  0.2400 -0.3951  0.2554
13709TIP3   OH262617   6.196   1.259  14.731 -0.3384 -0.1742 -0.2489
13709TIP3    H162618   6.114   1.260  14.780 -1.4134 -0.2233 -1.9719
13709TIP3    H262619   6.246   1.187  14.769 -1.7699 -1.1660 -0.1864
13710TIP3   OH262620   6.641   6.304  17.156  0.1235  0.1457 -0.0239
13710TIP3    H162621   6.712   6.316  17.093 -1.2646 -2.4092 -2.1836
13710TIP3    H262622   6.674   6.238  17.217 -0.1622 -0.5690 -0.6444
13711TIP3   OH262623   4.380   5.418  13.567 -0.2943  0.0464 -0.6942
13711TIP3    H162624   4.302   5.365  13.584  0.1326 -1.4206 -3.0776
13711TIP3    H262625   4.347   5.495  13.520 -0.3805 -0.3376 -1.2726
13712TIP3   OH262626   2.173   4.443   1.830 -1.0551  0.2178 -0.7468
13712TIP3    H162627   2.155   4.525   1.875  0.3875  0.6120 -0.8539
13712TIP3    H262628   2.266   4.449   1.807 -0.6787 -1.8846  0.1542
13713TIP3   OH262629   4.007   4.540  12.851  0.2746 -0.1569  0.7062
13713TIP3    H162630   4.047   4.491  12.922  1.1161  0.8283  0.9202
13713TIP3    H262631   3.992   4.627  12.887  1.6488  0.6546 -0.6106
13714TIP3   OH262632   5.444   6.228   3.756  0.5498  0.1221 -0.5523
13714TIP3    H162633   5.387   6.300   3.784  1.4617  0.7207 -0.1915
13714TIP3    H262634   5.426   6.217   3.663  0.1277  0.5563 -0.5226
13715TIP3   OH262635   5.344   5.249  16.022  0.1760  0.4859  0.0289
13715TIP3    H162636   5.386   5.296  16.094  0.2647 -1.3873  1.2209
13715TIP3    H262637   5.413   5.191  15.988 -0.1849  0.5650 -0.8419
13716TIP3   OH262638   3.749   4.351  16.707 -0.2353 -0.2048  0.1406
13716TIP3    H162639   3.827   4.323  16.659  0.4848  0.9453  0.6320
13716TIP3    H262640   3.768   4.331  16.798 -0.9891 -0.9668  0.1411
13717TIP3   OH262641   0.645   3.825   5.659  0.2395  0.2534 -0.2182
13717TIP3    H162642   0.640   3.750   5.600  0.5328 -0.7893  1.0602
13717TIP3    H262643   0.727   3.813   5.707 -0.0688  0.9879  0.5204
13718TIP3   OH262644   5.153   3.927   2.701 -0.3276 -0.0339  0.0796
13718TIP3    H162645   5.153   3.916   2.606  2.2320 -0.0271  0.0498
13718TIP3    H262646   5.072   3.974   2.720 -0.1560  1.2733 -2.2735
13719TIP3   OH262647   1.609   6.616   1.746  0.1061  1.0141 -0.7281
13719TIP3    H162648   1.543   6.596   1.680 -0.6494  1.2451 -0.0507
13719TIP3    H262649   1.561   6.618   1.829  1.1735 -0.0053 -0.0671
13720TIP3   OH262650   3.838   4.102  13.742  0.3411  0.5173  0.0747
13720TIP3    H162651   3.791   4.047  13.805 -0.0770  1.6632  0.7951
13720TIP3    H262652   3.779   4.109  13.667  0.3604  0.0503  0.0167
13721TIP3   OH262653   1.402   6.205  13.229  0.5906  0.0198 -0.1577
13721TIP3    H162654   1.341   6.179  13.298 -0.7755  0.2082 -1.2531
13721TIP3    H262655   1.485   6.220  13.274 -0.1246 -0.4194  1.3478
13722TIP3   OH262656   5.673   1.524   5.298 -0.1058  0.2634 -0.8595
13722TIP3    H162657   5.752   1.558   5.340  0.4876 -0.3128 -1.4890
13722TIP3    H262658   5.621   1.602   5.279  0.5052  0.6845 -0.8250
13723TIP3   OH262659   5.029   5.385   1.534  0.1119  0.7432 -0.0447
13723TIP3    H162660   4.971   5.337   1.475 -0.2012 -0.1763  0.9848
13723TIP3    H262661   5.102   5.325   1.549  0.6788  1.3688 -0.2847
13724TIP3   OH262662   5.667   0.519   1.431 -0.4631  0.0987  0.3170
13724TIP3    H162663   5.754   0.527   1.471  0.3447  0.6648 -1.4637
13724TIP3    H262664   5.665   0.591   1.367 -2.2529  0.0861  0.3565
13725TIP3   OH262665   0.470   6.331   4.650 -0.2645  0.5187 -0.3196
13725TIP3    H162666   0.449   6.313   4.741  0.8572 -1.1057 -0.3524
13725TIP3    H262667   0.387   6.355   4.610 -0.7726  1.1998  1.0986
13726TIP3   OH262668   2.003   2.155   1.107 -0.2110  0.6410  0.6366
13726TIP3    H162669   2.006   2.141   1.201 -0.5758  2.6551  0.9781
13726TIP3    H262670   2.093   2.175   1.083 -0.3940  1.7480  0.8446
13727TIP3   OH262671   0.145   1.912   2.973 -0.6567 -0.0257  0.0515
13727TIP3    H162672   0.053   1.884   2.974 -0.6496 -0.2806 -2.6261
13727TIP3    H262673   0.162   1.932   2.881  1.6444  1.1604  0.7147
13728TIP3   OH262674   3.893   3.871  16.164 -0.4045 -0.3062 -0.2221
13728TIP3    H162675   3.944   3.794  16.190  1.2896  1.2514  1.0822
13728TIP3    H262676   3.807   3.835  16.142 -0.0646 -2.3989  1.7121
13729TIP3   OH262677   3.324   5.718   0.477  0.0592 -0.1318 -0.1733
13729TIP3    H162678   3.280   5.707   0.392  0.3341 -0.7653 -0.2359
13729TIP3    H262679   3.348   5.810   0.479  0.1388 -0.1306 -0.8330
13730TIP3   OH262680   2.494   1.211  16.180 -0.0462 -0.0452 -0.0820
13730TIP3    H162681   2.581   1.239  16.153  0.5550 -1.0578  0.7528
13730TIP3    H262682   2.499   1.115  16.183 -0.8617 -0.0782  1.0279
13731TIP3   OH262683   2.149   5.062  17.214 -0.2093 -0.6995 -0.0061
13731TIP3    H162684   2.154   5.075  17.119 -0.4275  1.1600  0.2033
13731TIP3    H262685   2.217   4.998  17.233  0.4555 -0.4052 -1.3087
13732TIP3   OH262686   0.352   5.168   5.825  0.1426 -0.0349 -0.3398
13732TIP3    H162687   0.323   5.175   5.734  0.6332  0.0550 -0.4949
13732TIP3    H262688   0.414   5.240   5.835  0.2535 -0.1796 -0.0012
13733TIP3   OH262689   5.540   3.527   1.168  0.5782  0.3669 -0.1104
13733TIP3    H162690   5.614   3.586   1.172  0.2428  0.7079  1.9251
13733TIP3    H262691   5.464   3.583   1.152  0.5177  0.2624 -0.1942
13734TIP3   OH262692   5.580   3.199   5.721 -0.5043  0.0723  0.0625
13734TIP3    H162693   5.619   3.215   5.636 -0.4261  1.6382  0.3759
13734TIP3    H262694   5.632   3.128   5.759  1.7786  1.8511  0.3152
13735TIP3   OH262695   5.763   4.674   4.027  0.2784  0.1110 -0.0079
13735TIP3    H162696   5.696   4.608   4.007  0.6203 -1.1015  2.6854
13735TIP3    H262697   5.721   4.758   4.004 -0.9204 -0.8512 -1.4727
13736TIP3   OH262698   0.142   3.253  15.665 -0.4454  0.0478  0.3663
13736TIP3    H162699   0.217   3.312  15.670 -0.5414  0.3964 -1.8972
13736TIP3    H262700   0.093   3.271  15.745 -0.9924  3.8395 -0.6922
13737TIP3   OH262701   6.607   0.897   1.686  0.0670 -0.2512 -0.6222
13737TIP3    H162702   6.587   0.806   1.666 -4.6314  0.2017  1.4736
13737TIP3    H262703   6.562   0.948   1.619 -0.6885  0.6515  0.5528
13738TIP3   OH262704   3.436   4.508   3.655 -0.0206  0.3617 -0.0250
13738TIP3    H162705   3.526   4.497   3.687  0.4217  0.3551 -1.2333
13738TIP3    H262706   3.408   4.420   3.631 -0.6630  0.2414  1.1462
13739TIP3   OH262707   1.588   4.493  17.109 -0.2614 -0.2985  0.1539
13739TIP3    H162708   1.497   4.474  17.085 -0.0591 -0.3877 -0.5609
13739TIP3    H262709   1.606   4.434  17.183 -0.6277 -0.6346 -0.0185
13740TIP3   OH262710   0.193   4.121  13.090 -0.4735  0.2157  0.4462
13740TIP3    H162711   0.101   4.112  13.115 -0.1489 -0.4298  1.4173
13740TIP3    H262712   0.228   4.032  13.092  0.0265  0.3749 -0.5242
13741TIP3   OH262713   2.313   6.761   2.551  0.2081  0.0425 -0.3220
13741TIP3    H162714   2.390   6.712   2.522 -0.4590 -0.1520 -1.7906
13741TIP3    H262715   2.267   6.784   2.470 -0.9596  0.6816  0.5096
13742TIP3   OH262716   3.423   4.077  11.798  0.5081 -0.1519  0.1654
13742TIP3    H162717   3.465   4.050  11.879  0.8372 -0.5544 -0.1431
13742TIP3    H262718   3.347   4.019  11.789  0.4582 -0.0923  0.1975
13743TIP3   OH262719   0.901   0.051  14.412 -0.2410 -0.8240 -0.4396
13743TIP3    H162720   0.949   0.109  14.353  1.0399 -1.0403  0.3675
13743TIP3    H262721   0.808   0.070  14.394  0.1222 -0.6306 -2.2339
13744TIP3   OH262722   0.165   4.830  11.746 -0.5029  0.0959  0.3361
13744TIP3    H162723   0.212   4.878  11.814 -0.2984  0.1528  0.1539
13744TIP3    H262724   0.102   4.893  11.711  0.0840  0.3763 -0.2229
13745TIP3   OH262725   3.542   6.467   5.074  0.0665 -0.0567  0.5890
13745TIP3    H162726   3.562   6.399   5.010  0.7475  0.4214  0.2918
13745TIP3    H262727   3.619   6.524   5.073 -0.1528  0.2541  1.4362
13746TIP3   OH262728   2.320   0.061   4.464  0.1439  0.6573 -0.5908
13746TIP3    H162729   2.284   0.010   4.391  0.3195 -1.3931  0.7211
13746TIP3    H262730   2.248   0.067   4.527  0.8053  0.0690  0.2364
13747TIP3   OH262731   1.585   6.386  12.658 -0.5340  0.6281  0.0433
13747TIP3    H162732   1.680   6.380  12.649 -0.6319  0.0732 -0.6516
13747TIP3    H262733   1.551   6.345  12.578 -1.3872 -1.2584  1.3578
13748TIP3   OH262734   2.724   6.625   6.089  0.3520  0.0411  0.2814
13748TIP3    H162735   2.801   6.674   6.116  0.7138 -0.0987 -0.5076
13748TIP3    H262736   2.661   6.692   6.062  0.7507  0.0758 -0.5461
13749TIP3   OH262737   4.728   0.870   5.658 -0.8256  0.1474  0.3395
13749TIP3    H162738   4.802   0.915   5.618 -1.9476  1.2574 -0.5250
13749TIP3    H262739   4.717   0.790   5.606 -0.0554 -0.1825  0.6690
13750TIP3   OH262740   0.069   4.896   0.855  0.4490 -0.1792  0.2902
13750TIP3    H162741   0.009   4.897   0.780 -1.0118 -1.0981  1.4108
13750TIP3    H262742   0.132   4.827   0.835 -0.2142 -0.7408  0.1011
13751TIP3   OH262743   3.810   0.550   5.269  0.0414 -0.3001 -0.2806
13751TIP3    H162744   3.854   0.473   5.305 -1.0902 -0.9436 -0.2362
13751TIP3    H262745   3.824   0.618   5.334  2.2818 -0.0331 -0.9757
13752TIP3   OH262746   4.738   0.713  12.600  0.6927  0.3366 -0.8124
13752TIP3    H162747   4.703   0.715  12.511 -0.1364  0.7957 -0.4792
13752TIP3    H262748   4.672   0.757  12.653 -0.2839 -2.6782  0.5812
13753TIP3   OH262749   2.949   4.039  12.481  0.6793  0.3046 -0.7190
13753TIP3    H162750   3.025   4.040  12.539  0.7651 -1.3336 -0.7831
13753TIP3    H262751   2.979   3.991  12.404  0.0677  1.0635 -1.4477
13754TIP3   OH262752   2.650   2.224   4.815 -0.5995  0.5622 -0.0499
13754TIP3    H162753   2.711   2.169   4.766 -2.5433 -1.5506 -0.1805
13754TIP3    H262754   2.624   2.170   4.889 -3.0644  1.0628 -0.5269
13755TIP3   OH262755   0.530   0.819   6.085  0.2213  0.6068  0.0686
13755TIP3    H162756   0.449   0.810   6.135  0.3168  2.8021  0.7028
13755TIP3    H262757   0.600   0.814   6.150  0.5926 -1.0202 -0.4449
13756TIP3   OH262758   0.150   5.108   0.664  0.5153  0.3797 -0.1124
13756TIP3    H162759   0.215   5.176   0.684  0.1402  0.8974 -0.6570
13756TIP3    H262760   0.199   5.026   0.673  1.1703  0.7510 -0.2102
13757TIP3   OH262761   6.676   6.429  12.326 -0.2472 -0.3076 -0.0126
13757TIP3    H162762   6.581   6.436  12.336 -0.2749 -1.2155  0.4531
13757TIP3    H262763   6.694   6.335  12.333  0.6836 -0.1404 -0.0788
13758TIP3   OH262764   4.723   3.070  13.200  0.1899  0.4505 -0.0309
13758TIP3    H162765   4.665   3.121  13.143  0.5742  1.2740  0.3199
13758TIP3    H262766   4.726   2.983  13.158  0.2652  0.9696 -1.1341
13759TIP3   OH262767   1.300   1.058   5.075  0.0083  0.4646  0.0287
13759TIP3    H162768   1.217   1.014   5.059 -0.4769  1.4218 -0.1635
13759TIP3    H262769   1.329   1.025   5.160 -0.4395 -0.0685 -0.0218
13760TIP3   OH262770   4.950   0.552  15.813  0.1473 -0.1208 -0.3109
13760TIP3    H162771   4.867   0.513  15.787 -0.2295  0.2429  0.3236
13760TIP3    H262772   5.017   0.501  15.767 -0.5684  1.6487 -3.4179
13761TIP3   OH262773   2.510   4.223  10.373  0.0041  0.3081  0.2251
13761TIP3    H162774   2.552   4.209  10.458  0.0836 -0.3740  0.0779
13761TIP3    H262775   2.582   4.219  10.310 -0.2142 -0.4077  0.0171
13762TIP3   OH262776   3.833   6.301   1.720 -0.7918 -0.4392  0.3776
13762TIP3    H162777   3.927   6.289   1.702 -1.1891 -2.1235 -0.7037
13762TIP3    H262778   3.806   6.370   1.660  0.0146  0.9419  1.5773
13763TIP3   OH262779   4.577   0.987   6.608 -0.1396 -0.7013  0.9148
13763TIP3    H162780   4.637   0.918   6.637 -0.9678 -0.4541  3.3498
13763TIP3    H262781   4.513   0.941   6.554  1.0003 -1.3217  0.0578
13764TIP3   OH262782   2.096   0.793   5.096  0.8128 -0.1450 -0.1878
13764TIP3    H162783   2.052   0.713   5.125  1.3047 -0.5085 -0.4367
13764TIP3    H262784   2.189   0.770   5.094  1.0228  0.6455  0.4225
13765TIP3   OH262785   6.126   5.660  16.909 -0.7013  0.2347 -1.2504
13765TIP3    H162786   6.144   5.570  16.936 -3.4719 -0.4613 -1.5735
13765TIP3    H262787   6.133   5.659  16.813 -2.7581 -0.1558 -1.4176
13766TIP3   OH262788   0.895   1.179   1.591  0.2628 -0.1556  0.1902
13766TIP3    H162789   0.987   1.182   1.565 -0.3085 -1.5776 -2.1668
13766TIP3    H262790   0.875   1.268   1.619  1.6044  0.8808 -2.0072
13767TIP3   OH262791   0.650   0.999  15.388 -0.1093  0.2894  0.5674
13767TIP3    H162792   0.701   1.079  15.379 -1.4084  1.1107  0.2806
13767TIP3    H262793   0.586   1.004  15.317  0.5827 -1.6146 -0.2389
13768TIP3   OH262794   0.554   5.040   1.074 -0.2965 -0.6936 -0.0923
13768TIP3    H162795   0.635   5.045   1.024 -0.8550  0.0194 -0.9435
13768TIP3    H262796   0.532   4.947   1.076  0.5884 -0.8993  0.2298
13769TIP3   OH262797   3.683   6.617  14.706  0.5367  0.4980  0.1849
13769TIP3    H162798   3.742   6.692  14.696 -0.5782  1.5184  1.1618
13769TIP3    H262799   3.622   6.643  14.775 -0.9890 -0.5869 -0.7213
13770TIP3   OH262800   1.615   5.280  11.756  0.0519  0.4836 -0.4418
13770TIP3    H162801   1.654   5.234  11.683  0.8234 -0.5298  0.5966
13770TIP3    H262802   1.530   5.237  11.770 -0.0387  0.5942 -0.6492
13771TIP3   OH262803   5.651   6.556   4.200 -0.2663 -0.4288 -0.1288
13771TIP3    H162804   5.683   6.493   4.135  0.1882 -0.6921  0.3457
13771TIP3    H262805   5.579   6.601   4.156  0.3430 -0.2734 -0.9877
13772TIP3   OH262806   3.834   1.376   3.802 -0.0523 -0.6552  0.9772
13772TIP3    H162807   3.757   1.363   3.857 -0.7577 -1.4886 -0.1697
13772TIP3    H262808   3.908   1.368   3.862 -0.6251 -5.0480  1.3011
13773TIP3   OH262809   0.635   1.371  17.046 -0.0201  0.3212  0.1315
13773TIP3    H162810   0.589   1.287  17.051  1.9206 -0.9891 -2.7870
13773TIP3    H262811   0.583   1.430  17.101 -0.6722 -3.0849  3.3639
13774TIP3   OH262812   3.890   1.152  10.846 -0.2604  0.2893 -0.1719
13774TIP3    H162813   3.840   1.233  10.857  0.6577  1.0716 -1.5884
13774TIP3    H262814   3.981   1.180  10.844  0.1717 -0.9752  1.0334
13775TIP3   OH262815   2.748   4.921  10.644  0.3508 -0.4524  0.3128
13775TIP3    H162816   2.752   5.016  10.661  1.0570 -0.5027  0.4683
13775TIP3    H262817   2.677   4.911  10.581 -1.0814 -0.0562  1.8628
13776TIP3   OH262818   1.875   6.656   1.667 -0.1826 -0.2074  0.3472
13776TIP3    H162819   1.789   6.675   1.705 -0.8424  1.9790 -2.1396
13776TIP3    H262820   1.858   6.589   1.601 -0.1383  0.8798 -0.7789
13777TIP3   OH262821   4.161   3.739  13.356  0.1559 -0.0628 -0.3262
13777TIP3    H162822   4.139   3.647  13.340  0.5421 -0.0628 -0.8877
13777TIP3    H262823   4.217   3.738  13.433 -0.1695 -0.2583 -0.0926
13778TIP3   OH262824   1.457   1.148  12.328  0.3337 -0.0760  0.3803
13778TIP3    H162825   1.530   1.087  12.331 -1.1357 -1.8460  1.3748
13778TIP3    H262826   1.497   1.234  12.314  2.4443 -1.2320 -0.8529
13779TIP3   OH262827   1.941   3.917  11.504 -0.2516  0.2151  0.2281
13779TIP3    H162828   1.929   3.826  11.530  0.7859  0.7945  2.9294
13779TIP3    H262829   1.957   3.914  11.410  0.0952 -2.4014  0.3498
13780TIP3   OH262830   6.314   4.585   1.848 -0.2477 -0.8167  0.0353
13780TIP3    H162831   6.219   4.601   1.844 -0.6520 -2.6635  1.5973
13780TIP3    H262832   6.352   4.653   1.791 -2.4585  0.2594 -0.2232
13781TIP3   OH262833   4.550   6.039  11.961  0.5367  0.4218 -0.6373
13781TIP3    H162834   4.492   6.110  11.934 -0.4034  1.0448  2.7548
13781TIP3    H262835   4.601   6.076  12.033  2.2959 -1.3871 -0.9120
13782TIP3   OH262836   4.155   2.134  15.362 -0.0416  0.7060  0.2320
13782TIP3    H162837   4.246   2.109  15.343 -0.8629 -1.7875 -0.6484
13782TIP3    H262838   4.117   2.150  15.276 -0.9301 -0.1299  0.4647
13783TIP3   OH262839   2.505   0.641   4.601 -0.0264 -0.1905 -0.5030
13783TIP3    H162840   2.511   0.577   4.672  0.4654  1.6336  1.1329
13783TIP3    H262841   2.439   0.604   4.542 -1.1807 -1.2688  1.4013
13784TIP3   OH262842   0.136   2.986   2.812 -0.3639 -0.5875  0.5241
13784TIP3    H162843   0.186   2.994   2.731  0.2066 -1.5730  0.7705
13784TIP3    H262844   0.071   2.918   2.795 -1.4426  0.4771  0.3057
13785TIP3   OH262845   3.861   4.372  13.824 -0.8012  0.5116  0.0868
13785TIP3    H162846   3.950   4.379  13.787 -1.8152  0.7633 -2.4554
13785TIP3    H262847   3.831   4.286  13.796 -1.2220  0.2784  1.2708
13786TIP3   OH262848   3.726   0.244   2.086 -0.2764 -0.4469 -0.5142
13786TIP3    H162849   3.819   0.233   2.066 -0.0172 -0.6913  0.8011
13786TIP3    H262850   3.705   0.170   2.143 -0.8422  0.6186  0.6698
13787TIP3   OH262851   1.972   5.020  14.531 -0.0557  0.2602  0.1144
13787TIP3    H162852   2.013   4.948  14.578  0.3072  0.6675  0.4164
13787TIP3    H262853   2.027   5.096  14.549 -1.5289  1.0500  1.4292
13788TIP3   OH262854   5.524   6.260   1.126 -0.2096  0.0316 -0.7450
13788TIP3    H162855   5.443   6.277   1.175 -0.1004 -0.7524 -0.2943
13788TIP3    H262856   5.554   6.347   1.100  0.7723  0.6358  2.2338
13789TIP3   OH262857   6.749   5.943  14.489  0.0274  0.0514  0.0617
13789TIP3    H162858   6.659   5.913  14.505  0.2436 -0.1440  0.9367
13789TIP3    H262859   6.786   5.878  14.429 -0.2756 -0.1077  0.0464
13790TIP3   OH262860   3.729   6.247  14.546  0.3034  0.3105 -0.0083
13790TIP3    H162861   3.800   6.257  14.481  1.8197  2.2141  1.8612
13790TIP3    H262862   3.716   6.153  14.553  3.3903 -0.1449  0.3370
13791TIP3   OH262863   1.460   4.796  14.879 -0.1808 -0.1996 -0.3610
13791TIP3    H162864   1.528   4.730  14.868  0.5685  0.6662 -1.0485
13791TIP3    H262865   1.416   4.772  14.960  1.7038 -0.1291  0.7302
13792TIP3   OH262866   1.393   2.094   4.540  0.3930  0.0123  0.1434
13792TIP3    H162867   1.464   2.158   4.534 -0.4795  1.0526  0.7844
13792TIP3    H262868   1.368   2.095   4.632 -0.8536  0.0895 -0.1912
13793TIP3   OH262869   6.536   5.837  16.316  0.5813  0.0313 -0.1746
13793TIP3    H162870   6.475   5.815  16.245  0.9129 -0.0677 -0.4274
13793TIP3    H262871   6.481   5.839  16.394  0.3968 -0.8902 -0.2741
13794TIP3   OH262872   2.011   3.928  13.505  0.2054  0.3097 -0.0479
13794TIP3    H162873   2.105   3.927  13.483  0.0230  0.1911 -0.8293
13794TIP3    H262874   1.985   4.020  13.495 -0.1760  0.0399 -1.6248
13795TIP3   OH262875   2.669   5.573   1.888  0.0747 -0.1880 -0.4369
13795TIP3    H162876   2.695   5.533   1.972  0.1182 -0.7263 -0.7038
13795TIP3    H262877   2.602   5.637   1.912 -0.2864 -0.7071 -0.0424
13796TIP3   OH262878   4.652   2.894   4.443 -0.1132 -0.6366 -0.6844
13796TIP3    H162879   4.561   2.908   4.470 -0.1862  0.4142 -1.4395
13796TIP3    H262880   4.699   2.884   4.525 -1.0054 -1.8386 -0.3035
13797TIP3   OH262881   4.948   0.226  13.523  0.5162 -0.2609  0.2501
13797TIP3    H162882   4.869   0.221  13.470  0.7700  1.8978 -0.3907
13797TIP3    H262883   5.006   0.159  13.487 -0.6646 -1.2295  0.1376
13798TIP3   OH262884   4.144   6.138   5.846  0.1652  0.2687 -0.5212
13798TIP3    H162885   4.056   6.118   5.877  0.9526 -0.7472  1.1744
13798TIP3    H262886   4.173   6.211   5.901  0.7958 -0.1647 -0.2638
13799TIP3   OH262887   0.758   0.128  14.988 -0.1829 -0.3989  0.0805
13799TIP3    H162888   0.667   0.130  14.962 -0.5373  2.5337  1.4032
13799TIP3    H262889   0.756   0.134  15.084  1.4021  0.1466  0.0987
13800TIP3   OH262890   3.157   3.725  12.845 -0.4327 -0.1333 -0.1374
13800TIP3    H162891   3.174   3.724  12.939 -2.1668 -1.5891  0.1745
13800TIP3    H262892   3.101   3.801  12.831  2.1270  1.7819 -0.4576
13801TIP3   OH262893   1.068   6.293   1.877 -0.8509  0.3616 -0.1802
13801TIP3    H162894   1.056   6.371   1.929 -1.2543  0.3700 -0.2855
13801TIP3    H262895   1.032   6.222   1.930 -1.5758  0.4186 -0.5835
13802TIP3   OH262896   5.471   3.658   3.373 -0.3710 -0.0991 -0.2221
13802TIP3    H162897   5.451   3.566   3.358  0.0383 -0.1716 -0.3170
13802TIP3    H262898   5.566   3.662   3.377 -0.4460 -0.1061  2.3982
13803TIP3   OH262899   5.368   3.461   3.911  0.2345  0.5576  0.0792
13803TIP3    H162900   5.356   3.543   3.959 -0.0897 -0.5260  1.8958
13803TIP3    H262901   5.378   3.488   3.820  1.3682  2.6943  0.8019
13804TIP3   OH262902   5.123   3.219   2.744  0.1609 -0.6326 -0.1744
13804TIP3    H162903   5.128   3.233   2.650  0.4186  0.2116 -0.0311
13804TIP3    H262904   5.100   3.126   2.753 -0.2346 -0.6235 -1.0712
13805TIP3   OH262905   6.535   5.719   0.937 -0.3759 -0.1725 -0.0974
13805TIP3    H162906   6.569   5.632   0.915 -0.2513  0.1694 -1.2837
13805TIP3    H262907   6.613   5.771   0.957 -0.1032  0.7227 -3.2119
13806TIP3   OH262908   5.908   1.938   2.756  0.2711 -0.2016 -0.2206
13806TIP3    H162909   5.904   1.882   2.679  2.0252 -0.9789  0.2331
13806TIP3    H262910   5.882   1.881   2.828 -1.2516  0.4958 -0.1856
13807TIP3   OH262911   6.225   5.521   3.394 -0.5883 -0.4949 -0.2305
13807TIP3    H162912   6.171   5.526   3.315 -0.6249  0.1861 -0.1609
13807TIP3    H262913   6.162   5.514   3.466 -0.5557 -1.0516 -0.2550
13808TIP3   OH262914   2.312   6.240   5.727  0.1812  0.2941  0.2094
13808TIP3    H162915   2.262   6.279   5.654 -0.8836 -2.2301 -0.4734
13808TIP3    H262916   2.342   6.315   5.778  0.4162  2.1241 -2.4780
13809TIP3   OH262917   0.635   6.053  10.632  0.1457 -0.3027  0.0288
13809TIP3    H162918   0.661   5.961  10.624 -1.4346 -0.6814 -0.9447
13809TIP3    H262919   0.545   6.055  10.601  0.8163  1.9378 -1.8848
13810TIP3   OH262920   0.565   1.170   3.666  0.6537 -0.2672 -0.4420
13810TIP3    H162921   0.499   1.117   3.711  0.0452 -0.0906 -1.1181
13810TIP3    H262922   0.526   1.258   3.662  1.7300  0.2934  0.8467
13811TIP3   OH262923   4.199   3.276  12.538 -0.4509 -0.5954  0.3508
13811TIP3    H162924   4.206   3.206  12.603  1.3501 -0.6935  0.0824
13811TIP3    H262925   4.150   3.236  12.466 -2.5477 -0.4482  1.6500
13812TIP3   OH262926   4.594   4.940   5.965  0.0170 -0.0140 -0.1234
13812TIP3    H162927   4.569   4.974   6.052 -0.4524  1.1708 -0.7129
13812TIP3    H262928   4.516   4.892   5.936 -1.1732  2.5327 -1.3692
13813TIP3   OH262929   0.724   4.719   1.257 -0.0483 -0.2897 -0.5182
13813TIP3    H162930   0.730   4.803   1.303  0.0868 -1.2896  1.3369
13813TIP3    H262931   0.665   4.667   1.311  3.2630 -2.8917  0.7723
13814TIP3   OH262932   2.010   4.506   6.144  0.9359  0.1431 -0.2012
13814TIP3    H162933   1.952   4.437   6.177  2.2422 -0.3577  1.1180
13814TIP3    H262934   1.958   4.586   6.151  0.0394 -0.4465 -0.0203
13815TIP3   OH262935   4.059   4.432  11.582 -1.0353 -0.4062 -0.3330
13815TIP3    H162936   3.996   4.504  11.590 -2.5235 -1.6173 -0.8494
13815TIP3    H262937   4.023   4.377  11.513  0.1824 -1.5524 -0.0635
13816TIP3   OH262938   6.688   2.490   1.355  0.5575 -0.2739 -0.3378
13816TIP3    H162939   6.634   2.524   1.284  2.0984  1.2417 -0.8100
13816TIP3    H262940   6.683   2.395   1.346 -2.1216 -0.1821 -0.2796
13817TIP3   OH262941   0.833   5.050  15.781 -0.0588  0.4652 -0.3601
13817TIP3    H162942   0.920   5.012  15.798  0.0217  0.5952 -0.4817
13817TIP3    H262943   0.777   5.012  15.848  0.0135  0.0921 -0.5081
13818TIP3   OH262944   3.838   3.828  12.706 -0.1051  0.5459 -0.5372
13818TIP3    H162945   3.768   3.786  12.756  0.6802 -0.3702 -0.1976
13818TIP3    H262946   3.913   3.829  12.766  0.5029  0.5071 -1.2888
13819TIP3   OH262947   5.253   1.808  15.539  0.2168 -0.0392  0.2987
13819TIP3    H162948   5.322   1.813  15.606 -1.0420  0.2860  1.5901
13819TIP3    H262949   5.185   1.755  15.579 -0.4094 -0.1347 -0.8799
13820TIP3   OH262950   3.777   4.319  15.356  0.2813  0.4580 -0.0874
13820TIP3    H162951   3.847   4.328  15.420  0.4555  0.5094 -0.2831
13820TIP3    H262952   3.776   4.226  15.334  0.4880  0.5045 -0.3048
13821TIP3   OH262953   3.205   1.648  16.505 -0.1280  0.3185 -0.1772
13821TIP3    H162954   3.200   1.571  16.449  0.8181  0.2500 -0.1748
13821TIP3    H262955   3.256   1.712  16.456  0.6090  0.2997  0.5525
13822TIP3   OH262956   3.123   2.882  15.982 -0.5024  0.1057 -0.1248
13822TIP3    H162957   3.192   2.819  16.003 -0.7240  0.4768  1.7853
13822TIP3    H262958   3.158   2.933  15.909  0.9536 -0.1817  0.3580
13823TIP3   OH262959   3.080   4.948   0.046 -0.1738 -0.5172  0.0462
13823TIP3    H162960   3.005   4.997   0.078  0.4391  0.3860  0.1190
13823TIP3    H262961   3.106   4.993  -0.034 -0.3479 -1.4509 -0.5468
13824TIP3   OH262962   5.065   5.835   4.596  0.3486  0.2378 -0.2545
13824TIP3    H162963   4.998   5.819   4.663 -0.7982  1.8551 -0.9934
13824TIP3    H262964   5.124   5.760   4.604 -1.7863 -1.4578  0.1180
13825TIP3   OH262965   0.109   1.683   3.644  0.2849  0.5239 -0.2856
13825TIP3    H162966   0.026   1.635   3.641  1.2951 -1.2730 -0.4131
13825TIP3    H262967   0.112   1.721   3.732 -0.8049  0.8474 -0.3836
13826TIP3   OH262968   0.326   3.709  15.063 -0.0830 -0.8158 -0.0287
13826TIP3    H162969   0.401   3.769  15.064  0.9209 -2.0511  2.2852
13826TIP3    H262970   0.355   3.634  15.115 -2.3227 -2.0640 -0.5521
13827TIP3   OH262971   0.005   2.732  15.499 -0.4842  0.8603 -0.1043
13827TIP3    H162972   0.060   2.740  15.577 -1.7321  1.9856  0.6939
13827TIP3    H262973   0.066   2.741  15.426  0.4859  1.4155  0.7530
13828TIP3   OH262974   4.250   5.675  16.236  0.1422  0.2778 -0.2936
13828TIP3    H162975   4.244   5.713  16.148  0.6808 -0.2342 -0.5614
13828TIP3    H262976   4.239   5.749  16.295  1.0717  0.8424 -0.8002
13829TIP3   OH262977   0.510   6.649   6.321  0.9434  0.4459 -0.1134
13829TIP3    H162978   0.435   6.609   6.365  0.4605 -0.1765 -1.4577
13829TIP3    H262979   0.583   6.591   6.341  0.5311 -0.3615 -0.9051
13830TIP3   OH262980   1.996   4.422  11.734  0.4209 -0.0196  0.1041
13830TIP3    H162981   2.053   4.356  11.774  1.4617  0.6791 -0.1939
13830TIP3    H262982   2.046   4.455  11.659 -0.7076  0.0592 -0.6341
13831TIP3   OH262983   3.068   3.166   6.502 -0.9062 -0.0084 -0.0798
13831TIP3    H162984   3.089   3.147   6.593 -0.4189 -1.4899 -0.4949
13831TIP3    H262985   3.031   3.084   6.468  0.5942 -0.0348 -1.7134
13832TIP3   OH262986   1.278   2.412  10.961 -0.3859 -0.1930  0.0289
13832TIP3    H162987   1.306   2.381  10.875 -1.6231 -2.7106  0.4866
13832TIP3    H262988   1.335   2.366  11.023 -0.9828 -0.1215  0.6338
13833TIP3   OH262989   6.527   4.413  12.769 -0.1768 -0.4534 -0.9287
13833TIP3    H162990   6.579   4.484  12.730  0.1000  0.0159  0.2869
13833TIP3    H262991   6.522   4.347  12.700 -0.6733  0.8643 -2.1903
13834TIP3   OH262992   0.969   5.006   6.248 -0.4334  0.0534 -0.4623
13834TIP3    H162993   0.906   5.065   6.206 -1.1440 -0.3123  0.0917
13834TIP3    H262994   0.979   5.041   6.337  2.5161  1.9592 -1.4766
13835TIP3   OH262995   0.014   3.017   0.853  0.5872 -0.3976 -0.1478
13835TIP3    H162996  -0.026   3.039   0.769  1.2145  0.4601 -0.2214
13835TIP3    H262997  -0.000   3.094   0.908  0.0196 -1.0250  0.6011
13836TIP3   OH262998   6.409   6.527  12.286  0.0666 -0.1638  0.2962
13836TIP3    H162999   6.418   6.435  12.263 -0.8288 -0.2879  0.3850
13836TIP3    H263000   6.393   6.572  12.203  1.0097 -0.0208  0.1961
13837TIP3   OH263001   0.569   0.714  11.703  0.1685 -0.0241  0.1521
13837TIP3    H163002   0.514   0.674  11.770 -0.7275  0.7941 -0.0877
13837TIP3    H263003   0.564   0.653  11.629  0.5393 -0.5405  0.5507
13838TIP3   OH263004   0.545   3.448   0.899 -0.3324 -0.7486 -0.0929
13838TIP3    H163005   0.555   3.506   0.824 -0.6854 -0.1274  0.3305
13838TIP3    H263006   0.505   3.503   0.967 -1.1605 -1.6213  0.1439
13839TIP3   OH263007   6.798   2.115  13.269 -0.8758  0.1155  0.2237
13839TIP3    H163008   6.761   2.160  13.345 -0.7559 -0.5715  0.6879
13839TIP3    H263009   6.770   2.169  13.194  2.5917  3.2530  1.0181
13840TIP3   OH263010   0.599   3.735   2.634 -0.0512  0.2010  0.1177
13840TIP3    H163011   0.635   3.697   2.714 -0.1795  1.8033  0.9528
13840TIP3    H263012   0.628   3.675   2.564 -0.2446 -1.3934  1.3842
13841TIP3   OH263013   3.769   3.596  11.608  0.4581  1.0080 -0.0518
13841TIP3    H163014   3.733   3.547  11.682  0.7956 -1.8168 -1.7137
13841TIP3    H263015   3.844   3.643  11.646 -0.3975  0.9691  1.7471
13842TIP3   OH263016   1.424   0.493   3.657 -0.4578  0.8933 -0.3568
13842TIP3    H163017   1.359   0.554   3.623 -0.6682  1.1275  0.4506
13842TIP3    H263018   1.504   0.544   3.665  0.5084  0.0149 -3.6257
13843TIP3   OH263019   2.353   0.264  14.144 -0.1951 -0.7883  0.2626
13843TIP3    H163020   2.406   0.275  14.223 -2.3681  1.7944  1.4745
13843TIP3    H263021   2.320   0.174  14.149 -0.0252 -0.7643  2.1293
13844TIP3   OH263022   3.985   2.363  15.716 -0.3001 -0.0709  0.0978
13844TIP3    H163023   3.911   2.325  15.668 -0.2864  1.4826 -1.1535
13844TIP3    H263024   4.056   2.369  15.652  0.5329 -0.3695  0.9721
13845TIP3   OH263025   4.160   1.811   5.965 -0.0643 -0.3340  0.1566
13845TIP3    H163026   4.164   1.775   6.053  0.8309 -2.7440 -0.7991
13845TIP3    H263027   4.192   1.739   5.909 -1.2249  0.9043 -2.1713
13846TIP3   OH263028   3.913   5.664  16.003 -0.1227 -0.1499 -0.6908
13846TIP3    H163029   3.999   5.622  15.994 -0.8929 -2.1649  0.8539
13846TIP3    H263030   3.894   5.699  15.917  2.3333  0.4777 -1.0190
13847TIP3   OH263031   4.663   2.525  16.239 -0.0102  0.1465 -0.0372
13847TIP3    H163032   4.714   2.488  16.167  0.0479 -0.2352  0.1993
13847TIP3    H263033   4.724   2.530  16.312 -0.3578 -0.4872  0.3014
13848TIP3   OH263034   6.607   2.120   2.271  0.3089  0.3620 -0.1903
13848TIP3    H163035   6.662   2.143   2.346  1.9904 -1.9021 -0.6625
13848TIP3    H263036   6.608   2.198   2.215  1.4821  1.0164  0.7341
13849TIP3   OH263037   6.424   5.622   4.917 -0.0105 -0.4668  0.5011
13849TIP3    H163038   6.485   5.676   4.867 -0.5557 -1.1634 -0.9168
13849TIP3    H263039   6.477   5.551   4.952  0.0815 -0.8055 -0.3290
13850TIP3   OH263040   2.151   4.496  13.697 -0.3468 -0.0836  0.4776
13850TIP3    H163041   2.080   4.488  13.633 -0.0609 -2.1473  0.3737
13850TIP3    H263042   2.128   4.433  13.765  1.6306 -1.1428  0.1997
13851TIP3   OH263043   1.049   5.649   4.031  0.4577 -0.0841  0.0815
13851TIP3    H163044   0.990   5.623   3.960 -0.6818  0.4900  0.8207
13851TIP3    H263045   1.028   5.740   4.048  2.6258  0.6028 -0.6792
13852TIP3   OH263046   3.378   4.269   1.457 -0.3215  0.3740  0.1100
13852TIP3    H163047   3.350   4.318   1.380  0.2121  0.4318 -0.0510
13852TIP3    H263048   3.298   4.253   1.506 -0.8534 -0.9799 -1.2017
13853TIP3   OH263049   2.319   2.840  11.431  0.4873  0.4076 -0.3967
13853TIP3    H163050   2.249   2.890  11.474  1.9788  0.8910  1.5258
13853TIP3    H263051   2.289   2.749  11.437 -0.8902  0.7695 -1.3666
13854TIP3   OH263052   0.844   3.796  11.119  0.0861 -0.1717  0.7546
13854TIP3    H163053   0.754   3.814  11.091  0.4747 -1.1840 -1.2149
13854TIP3    H263054   0.883   3.749  11.045  1.5888 -1.6469  2.4527
13855TIP3   OH263055   3.240   5.707  14.717  0.4042  0.1202  0.1400
13855TIP3    H163056   3.246   5.754  14.635  2.6565 -2.2399 -1.1222
13855TIP3    H263057   3.206   5.620  14.692 -0.8163  0.0300  1.9888
13856TIP3   OH263058   3.156   0.990  16.454 -0.6358 -0.1946 -0.5215
13856TIP3    H163059   3.207   1.048  16.397 -0.3618  0.7252  0.6566
13856TIP3    H263060   3.087   1.045  16.489 -1.6366 -1.1036 -1.0226
13857TIP3   OH263061   6.229   0.154   4.969 -0.4848  0.5930  0.3691
13857TIP3    H163062   6.254   0.132   4.880 -2.2287  0.0098  0.0136
13857TIP3    H263063   6.226   0.249   4.971  2.0712  0.7042  0.5262
13858TIP3   OH263064   2.213   2.581   5.289 -0.1931 -0.2396  0.0173
13858TIP3    H163065   2.190   2.672   5.268 -1.1438 -0.5075 -0.1315
13858TIP3    H263066   2.195   2.533   5.209 -0.0901 -0.6274  0.2278
13859TIP3   OH263067   3.982   1.192  15.137 -0.1143  0.4267 -0.0209
13859TIP3    H163068   4.048   1.169  15.071  0.4735 -1.0556  1.0690
13859TIP3    H263069   4.032   1.220  15.213 -0.7372 -0.4112  0.7074
13860TIP3   OH263070   5.426   4.202  11.176  0.0032 -0.0732  0.1408
13860TIP3    H163071   5.413   4.146  11.253 -1.9742 -1.3265 -1.0699
13860TIP3    H263072   5.518   4.230  11.183  0.1493 -0.9808  2.3974
13861TIP3   OH263073   0.628   2.292  12.526  0.4560  0.3422 -0.6360
13861TIP3    H163074   0.546   2.280  12.477 -0.4438 -0.2009  0.9630
13861TIP3    H263075   0.691   2.319  12.460 -0.6462 -0.7097 -2.1623
13862TIP3   OH263076   5.498   5.476   2.167  0.4743  0.3037  0.2216
13862TIP3    H163077   5.475   5.539   2.236  0.2684  0.2000  0.2476
13862TIP3    H263078   5.539   5.404   2.214 -1.1544 -0.5151  0.4270
13863TIP3   OH263079   5.418   1.604   1.825 -0.0353 -0.5128 -0.3045
13863TIP3    H163080   5.481   1.541   1.861 -0.2076  0.3857  1.6638
13863TIP3    H263081   5.470   1.683   1.810 -0.3831 -0.2550 -0.1436
13864TIP3   OH263082   3.604   0.958   4.110  0.2502  0.9178  0.6856
13864TIP3    H163083   3.612   0.970   4.015  0.1703 -0.5335  0.4886
13864TIP3    H263084   3.512   0.933   4.123  0.1458  1.5490  1.2021
13865TIP3   OH263085   2.138   5.499   2.801  0.4631  0.8480 -0.5541
13865TIP3    H163086   2.120   5.446   2.723 -0.5624  0.3427  0.0178
13865TIP3    H263087   2.068   5.565   2.801 -1.8607 -1.4944  2.0085
13866TIP3   OH263088   3.573   4.901  15.216 -0.7528  0.4985 -0.0897
13866TIP3    H163089   3.485   4.866  15.201 -0.6364 -0.4320  1.3189
13866TIP3    H263090   3.625   4.866  15.144 -0.9765 -1.0463  0.4886
13867TIP3   OH263091   4.126   0.409   3.152 -0.1932 -0.2500  0.2697
13867TIP3    H163092   4.099   0.421   3.243  0.1967 -0.2751  0.3925
13867TIP3    H263093   4.078   0.475   3.103 -1.5290 -1.2078  0.2812
13868TIP3   OH263094   4.336   6.351  12.618 -0.3092  0.2930 -0.2425
13868TIP3    H163095   4.287   6.271  12.599 -0.6551  0.2206  0.8880
13868TIP3    H263096   4.356   6.388  12.533 -4.1442  1.4495 -0.7216
13869TIP3   OH263097   1.920   5.095  11.129  0.3079 -0.2018 -0.0978
13869TIP3    H163098   1.952   5.123  11.215  2.1738 -1.2932 -0.4285
13869TIP3    H263099   1.985   5.032  11.098 -0.3855  0.1403 -2.3058
13870TIP3   OH263100   3.686   1.614   5.464 -0.2379 -0.1090  0.1040
13870TIP3    H163101   3.594   1.605   5.441 -0.6245 -0.6453  1.7939
13870TIP3    H263102   3.688   1.687   5.527  0.3494 -0.6757  0.7556
13871TIP3   OH263103   0.304   4.010  12.163 -0.0471 -0.1918 -0.1906
13871TIP3    H163104   0.264   4.074  12.223  0.7086  1.1427 -1.0880
13871TIP3    H263105   0.262   3.927  12.186 -0.3608  0.4464  1.6370
13872TIP3   OH263106   4.784   3.025  14.407 -0.0306  0.0426  0.2474
13872TIP3    H163107   4.716   3.067  14.459 -2.1861 -0.0398 -2.3887
13872TIP3    H263108   4.742   2.945  14.374  2.5093 -1.8501  1.4285
13873TIP3   OH263109   3.106   6.503  16.258 -0.5992  0.6141  0.1033
13873TIP3    H163110   3.021   6.545  16.246 -0.6528  0.2415 -0.8643
13873TIP3    H263111   3.163   6.545  16.193 -0.2609  0.2672  0.1761
13874TIP3   OH263112   6.369   4.859  14.352 -0.0690 -0.5853  0.2848
13874TIP3    H163113   6.396   4.864  14.443  1.6296 -2.2540 -0.0982
13874TIP3    H263114   6.434   4.910  14.305 -0.0645 -0.9934 -0.1586
13875TIP3   OH263115   2.422   2.831   5.351 -0.3308 -0.4337 -0.0896
13875TIP3    H163116   2.508   2.789   5.355 -0.3473 -0.5534 -0.9168
13875TIP3    H263117   2.441   2.925   5.348 -0.2919 -0.3774  1.6616
13876TIP3   OH263118   6.707   1.920  12.315 -0.0409 -0.5904 -0.0362
13876TIP3    H163119   6.725   1.833  12.277 -1.0146 -0.7682 -0.0953
13876TIP3    H263120   6.739   1.981  12.248  1.7472 -0.8826  0.5181
13877TIP3   OH263121   5.453   2.852  12.702 -0.0430  0.4116 -0.1053
13877TIP3    H163122   5.514   2.792  12.660  0.3113  1.0992 -0.5996
13877TIP3    H263123   5.508   2.924  12.733 -0.4266  0.3681  0.6975
13878TIP3   OH263124   5.885   0.430   3.775 -0.3279 -0.1386 -0.6500
13878TIP3    H163125   5.858   0.353   3.825 -2.1917 -0.8371 -2.6671
13878TIP3    H263126   5.852   0.504   3.826  0.8459 -0.6794  0.9303
13879TIP3   OH263127   1.995   4.752  17.176 -0.4606  0.0491 -0.4320
13879TIP3    H163128   1.986   4.818  17.108  2.0474  0.8891  0.0035
13879TIP3    H263129   2.070   4.699  17.148 -1.0486 -1.2247  0.3600
13880TIP3   OH263130   6.111   2.591  15.287 -0.4231 -0.3906 -0.3555
13880TIP3    H163131   6.094   2.566  15.378  3.0173 -1.8749 -0.0609
13880TIP3    H263132   6.066   2.524  15.235 -0.0041 -1.1971  0.3070
13881TIP3   OH263133   4.281   5.280   5.374  0.2128  0.7992 -0.3101
13881TIP3    H163134   4.319   5.365   5.395  0.6347  1.3915 -3.2613
13881TIP3    H263135   4.345   5.239   5.315 -0.7363 -0.8962 -0.1952
13882TIP3   OH263136   2.693   6.515  15.991  0.5892  0.1985  0.1013
13882TIP3    H163137   2.605   6.489  16.018  0.5027  0.9896  0.5776
13882TIP3    H263138   2.707   6.470  15.907 -0.5525  0.6503 -0.3348
13883TIP3   OH263139   5.601   3.875   4.313  0.6861  0.2931  0.8189
13883TIP3    H163140   5.622   3.892   4.222  2.5955  0.9356  1.3593
13883TIP3    H263141   5.565   3.958   4.345  1.2263  0.4719  0.9759
13884TIP3   OH263142   1.609   4.278  13.674 -1.2113  0.0643  0.1646
13884TIP3    H163143   1.649   4.268  13.588 -0.2935 -2.0396  0.7884
13884TIP3    H263144   1.603   4.373  13.687  0.4454  0.4175 -1.3887
13885TIP3   OH263145   3.080   5.485   4.499  0.1197 -0.1421  0.1189
13885TIP3    H163146   2.998   5.485   4.549  0.8378  0.0421  1.3134
13885TIP3    H263147   3.113   5.575   4.508 -0.1887  0.1374 -1.4337
13886TIP3   OH263148   2.842   0.806  11.069  0.3575  0.5457 -0.1958
13886TIP3    H163149   2.776   0.874  11.054  0.5452  0.6072 -0.7545
13886TIP3    H263150   2.792   0.726  11.081  0.1632  0.6650 -0.2156
13887TIP3   OH263151   6.522   4.009   5.047 -0.0277 -0.1758  0.4962
13887TIP3    H163152   6.587   3.974   5.109  0.1532  1.5698  1.3413
13887TIP3    H263153   6.480   3.932   5.010  1.4857 -1.3133  1.0686
13888TIP3   OH263154   5.718   1.156  13.395 -0.0033  0.4319  0.0176
13888TIP3    H163155   5.696   1.246  13.369  0.8607  0.9997  1.1774
13888TIP3    H263156   5.768   1.121  13.322 -1.5584  0.3967 -1.0530
13889TIP3   OH263157   3.784   1.131   0.477  0.3354  0.5290 -0.0368
13889TIP3    H163158   3.711   1.096   0.426  0.3593  1.7553 -0.9411
13889TIP3    H263159   3.742   1.177   0.549  0.2078  1.1371 -0.4923
13890TIP3   OH263160   4.066   0.910  16.881 -0.4668 -0.5227 -0.1661
13890TIP3    H163161   4.121   0.832  16.877  0.1878 -0.0051 -1.4674
13890TIP3    H263162   4.103   0.961  16.954  1.6311  0.4147 -1.8069
13891TIP3   OH263163   0.890   5.516  13.070 -0.5124  0.4039  0.2537
13891TIP3    H163164   0.864   5.424  13.058 -0.4967  0.3551  0.5897
13891TIP3    H263165   0.835   5.547  13.143  0.0118  0.4458  0.6353
13892TIP3   OH263166   4.446   1.366  16.598 -0.1936 -0.0456  0.1793
13892TIP3    H163167   4.389   1.302  16.555  0.1335 -0.5058  0.4237
13892TIP3    H263168   4.535   1.334  16.582  0.2215  2.7432 -3.5017
13893TIP3   OH263169   3.866   6.350   2.119 -0.2736  0.2219 -0.1018
13893TIP3    H163170   3.940   6.378   2.064 -0.6797  0.7389 -0.3927
13893TIP3    H263171   3.815   6.430   2.133 -0.3828  0.0137  0.7103
13894TIP3   OH263172   3.157   5.430   4.021 -0.5125  0.0113  0.2037
13894TIP3    H163173   3.113   5.500   3.972 -0.1658  0.3312  0.3451
13894TIP3    H263174   3.244   5.466   4.042 -0.2436 -0.5506  0.0736
13895TIP3   OH263175   0.514   6.435  16.834 -0.0540 -0.2898 -0.1732
13895TIP3    H163176   0.607   6.415  16.820 -0.3689 -0.7739 -1.7537
13895TIP3    H263177   0.495   6.403  16.921  1.5546  0.8957  0.6499
13896TIP3   OH263178   5.190   1.772   3.051  0.0193 -0.1359 -0.6032
13896TIP3    H163179   5.197   1.779   2.956 -1.3271 -1.2193 -0.8045
13896TIP3    H263180   5.120   1.832   3.075  0.1046 -0.1384 -0.3445
13897TIP3   OH263181   0.599   0.280  14.172 -0.2323 -0.0369  0.4646
13897TIP3    H163182   0.655   0.209  14.141  0.9501  1.0300  0.1152
13897TIP3    H263183   0.551   0.309  14.094  0.0641  0.2261  0.3734
13898TIP3   OH263184   2.216   5.991   6.122  0.3003 -0.2905  0.4767
13898TIP3    H163185   2.153   6.034   6.180 -0.0407 -0.2144  0.0456
13898TIP3    H263186   2.208   5.898   6.143  2.3995  0.0006  2.7773
13899TIP3   OH263187   2.428   4.100  11.335  0.3791 -0.3765 -0.4142
13899TIP3    H163188   2.416   4.194  11.322 -1.1782 -0.6359 -0.9173
13899TIP3    H263189   2.351   4.073  11.384  1.1328 -1.2832  0.2795
13900TIP3   OH263190   5.699   0.554  15.950 -0.1280 -0.0470 -0.3082
13900TIP3    H163191   5.640   0.525  15.880 -0.8579 -1.4846  0.8872
13900TIP3    H263192   5.640   0.584  16.020  0.5566 -1.0306  0.7005
13901TIP3   OH263193   1.015   6.152   2.844 -0.5429  0.0263  0.1427
13901TIP3    H163194   1.027   6.195   2.759 -1.2621  2.0816  1.0373
13901TIP3    H263195   1.002   6.060   2.823  1.9363  0.0677 -1.8011
13902TIP3   OH263196   4.050   2.527   3.561 -0.1052 -0.7968  0.4665
13902TIP3    H163197   3.996   2.489   3.631  2.0275 -2.6455  1.1500
13902TIP3    H263198   4.019   2.484   3.482 -0.3052 -1.1331  0.7253
13903TIP3   OH263199   0.757   6.260  16.330  0.6759  0.0621 -0.3927
13903TIP3    H163200   0.744   6.273  16.424 -0.0256 -1.0903 -0.3120
13903TIP3    H263201   0.776   6.347  16.296  0.7896  0.5142  0.7945
13904TIP3   OH263202   5.953   5.531   5.418 -0.0549  0.0375  0.2920
13904TIP3    H163203   5.902   5.581   5.354 -0.1607 -0.5023 -0.0511
13904TIP3    H263204   5.931   5.569   5.503 -0.6960  0.0836  0.1024
13905TIP3   OH263205   0.218   3.329   1.070  0.5902  1.1340 -0.2864
13905TIP3    H163206   0.133   3.298   1.040 -0.6512  3.5846  0.5709
13905TIP3    H263207   0.281   3.283   1.015 -1.2110 -1.6002 -0.1447
13906TIP3   OH263208   6.083   0.866  15.691 -0.6301  0.1905  0.1463
13906TIP3    H163209   6.116   0.954  15.673 -0.6325  0.2396  0.3847
13906TIP3    H263210   6.019   0.850  15.622  0.7966 -0.3871 -1.0599
13907TIP3   OH263211   2.547   5.123  13.297  0.8271 -0.5318  0.1499
13907TIP3    H163212   2.476   5.061  13.312  1.4864 -0.8996  1.8724
13907TIP3    H263213   2.606   5.110  13.372  2.2767  0.3447 -0.8270
13908TIP3   OH263214   6.641   0.941  16.756 -0.1524  0.0716  0.3783
13908TIP3    H163215   6.624   0.857  16.714  0.5726 -1.5332  3.2157
13908TIP3    H263216   6.560   0.962  16.802  0.3487 -0.1109  1.3641
13909TIP3   OH263217   0.233   0.043   0.663  0.3514  1.0123  0.5904
13909TIP3    H163218   0.195   0.026   0.577 -0.7993 -0.9547  1.4753
13909TIP3    H263219   0.234   0.139   0.670 -1.8987  1.1505 -0.5714
13910TIP3   OH263220   5.791   6.211  15.312  0.4429 -0.2188 -0.4566
13910TIP3    H163221   5.876   6.172  15.291 -0.0941 -1.4110 -0.4150
13910TIP3    H263222   5.755   6.155  15.380  0.2422  1.1102  0.5405
13911TIP3   OH263223   5.062   0.659  10.393 -0.1165 -0.2805 -0.2038
13911TIP3    H163224   5.147   0.623  10.367  0.2192  0.6013 -0.3577
13911TIP3    H263225   5.054   0.741  10.343 -1.5375 -0.8844 -0.9914
13912TIP3   OH263226   4.629   0.496  11.584  0.1901 -0.2367  0.2000
13912TIP3    H163227   4.588   0.413  11.609  1.2411 -0.0134  2.9010
13912TIP3    H263228   4.720   0.488  11.615  0.9456  1.0254 -1.6137
13913TIP3   OH263229   2.391   4.601   4.169  0.1766  0.6776 -0.1050
13913TIP3    H163230   2.426   4.562   4.089  0.9706  0.3447  0.4005
13913TIP3    H263231   2.468   4.634   4.215 -0.2307  0.4676  0.7369
13914TIP3   OH263232   5.415   0.992   6.001 -0.5547 -0.0017  0.2277
13914TIP3    H163233   5.463   0.921   6.042  0.5415  0.2579 -0.5683
13914TIP3    H263234   5.385   1.046   6.074  0.1938 -0.2844  0.7514
13915TIP3   OH263235   3.728   2.391  12.903  0.4411  0.2860  0.0195
13915TIP3    H163236   3.685   2.319  12.857  1.1317  1.7482 -3.0143
13915TIP3    H263237   3.815   2.357  12.925 -0.8236 -1.3694  2.8517
13916TIP3   OH263238   5.105   5.571  12.605 -0.1933  0.3025 -0.1404
13916TIP3    H163239   5.188   5.617  12.597  0.8414 -1.4808  0.0631
13916TIP3    H263240   5.064   5.580  12.519  1.2350 -0.7131 -0.9480
13917TIP3   OH263241   0.882   5.883   2.277  0.6826 -0.4117  0.8727
13917TIP3    H163242   0.974   5.896   2.254 -0.1646  2.5487 -1.0788
13917TIP3    H263243   0.839   5.861   2.195 -0.4067 -1.7675  1.7694
13918TIP3   OH263244   6.430   6.814   1.904 -0.1401  0.4998  0.7836
13918TIP3    H163245   6.338   6.789   1.902  0.1070 -0.5210  1.8492
13918TIP3    H263246   6.450   6.828   1.996  0.4236  2.0730  0.4369
13919TIP3   OH263247   4.212   6.222  14.401 -0.0176 -0.2865  0.1189
13919TIP3    H163248   4.290   6.221  14.456 -1.3413 -0.7413  2.0293
13919TIP3    H263249   4.200   6.130  14.375  0.9054  0.0101 -1.3696
13920TIP3   OH263250   4.583   2.067   3.276  0.3347 -0.0719 -0.2354
13920TIP3    H163251   4.495   2.041   3.251 -0.3439  2.7383 -0.9653
13920TIP3    H263252   4.627   2.089   3.194  0.6118  1.7395  0.3739
13921TIP3   OH263253   6.420   0.848   0.302 -0.5333 -0.1089  0.0310
13921TIP3    H163254   6.358   0.839   0.375 -1.4226  1.6880 -0.4503
13921TIP3    H263255   6.420   0.763   0.259 -0.3310 -1.0548  1.8638
13922TIP3   OH263256   3.360   2.225  13.675  0.2918 -0.1003  0.2244
13922TIP3    H163257   3.448   2.262  13.677  1.0482 -1.8456 -0.1816
13922TIP3    H263258   3.373   2.130  13.667 -1.6335 -0.2630 -1.5263
13923TIP3   OH263259   1.711   2.243   2.472  0.0392  0.1780 -0.3381
13923TIP3    H163260   1.717   2.254   2.377 -1.5676  0.3546 -0.4359
13923TIP3    H263261   1.675   2.155   2.483 -0.6012  0.4881  0.0789
13924TIP3   OH263262   1.740   6.055   4.049  0.4554  0.1483  0.0336
13924TIP3    H163263   1.687   6.096   4.117  0.3467 -0.7825  0.5138
13924TIP3    H263264   1.701   6.085   3.967 -0.4438 -0.0530  0.3814
13925TIP3   OH263265   5.713   2.822  14.682  0.3812 -0.7589  0.5511
13925TIP3    H163266   5.735   2.872  14.761 -0.8786  1.3130 -0.3635
13925TIP3    H263267   5.724   2.884  14.610 -1.4115 -1.7270 -0.6041
13926TIP3   OH263268   3.729   4.623  12.170  0.3177  0.0029  0.0912
13926TIP3    H163269   3.688   4.655  12.251  0.8417  2.6563 -0.6609
13926TIP3    H263270   3.738   4.529  12.184 -1.6270  0.0887  2.2295
13927TIP3   OH263271   0.511   4.350   1.207 -0.5373  0.4519  0.3746
13927TIP3    H163272   0.590   4.300   1.189 -0.9179 -0.4361  1.1837
13927TIP3    H263273   0.481   4.378   1.121  0.4705  0.5221  0.0347
13928TIP3   OH263274   5.517   3.743  15.060  0.1420  0.4325  0.5240
13928TIP3    H163275   5.579   3.778  14.996 -0.8305  1.5965  0.2001
13928TIP3    H263276   5.516   3.807  15.130 -1.0051  0.6361  0.3337
13929TIP3   OH263277   6.514   6.286   4.547  0.0216 -0.6765 -0.6887
13929TIP3    H163278   6.445   6.331   4.499  1.8721  1.8278 -1.1129
13929TIP3    H263279   6.595   6.317   4.508  1.4800 -1.2952  1.7045
13930TIP3   OH263280   3.006   0.853   5.261  0.4130 -0.3511 -0.1474
13930TIP3    H163281   2.924   0.804   5.266  0.0247  0.3026  0.0063
13930TIP3    H263282   3.009   0.884   5.170  0.1262  0.2370  0.0409
13931TIP3   OH263283   1.240   6.492  17.160  0.7623  0.0947  0.1203
13931TIP3    H163284   1.194   6.563  17.115 -0.6790 -0.8423  0.0651
13931TIP3    H263285   1.234   6.515  17.253 -0.2111 -0.2218  0.1436
13932TIP3   OH263286   1.393   0.424  14.357  0.4749  0.2885 -0.7802
13932TIP3    H163287   1.342   0.474  14.293  1.1267 -0.4103 -1.8607
13932TIP3    H263288   1.472   0.475  14.371  0.5871  0.1612 -0.9545
13933TIP3   OH263289   4.171   6.047  10.612 -0.9586 -0.2648 -0.1564
13933TIP3    H163290   4.142   6.081  10.697  0.0097  2.0436 -0.7305
13933TIP3    H263291   4.124   6.100  10.548  2.9497  2.2715 -1.0972
13934TIP3   OH263292   1.675   2.211  15.208  0.3295 -0.0547  0.1491
13934TIP3    H163293   1.641   2.218  15.119  0.4667  0.2918  0.1260
13934TIP3    H263294   1.631   2.282  15.256 -0.4157 -0.7838  0.5667
13935TIP3   OH263295   2.032   2.250  15.485 -0.0613  0.4222 -0.6007
13935TIP3    H163296   2.020   2.177  15.546 -2.8498  1.6214  0.3813
13935TIP3    H263297   2.087   2.312  15.532 -1.7338  1.0890  0.5583
13936TIP3   OH263298   0.987   3.699  15.488 -0.0025  0.2494  0.5457
13936TIP3    H163299   1.043   3.758  15.439  0.6752  0.0974  1.1295
13936TIP3    H263300   0.999   3.725  15.580 -1.5058  0.7545  0.6266
13937TIP3   OH263301   4.440   3.320  12.410  0.1333  0.2048  0.2614
13937TIP3    H163302   4.500   3.338  12.482  0.4682 -1.0601  0.3139
13937TIP3    H263303   4.358   3.362  12.436  0.3157 -0.0486  1.2646
13938TIP3   OH263304   5.296   6.624  14.293  0.0819 -0.5092 -0.3912
13938TIP3    H163305   5.370   6.621  14.354  0.5900 -0.1779 -0.9865
13938TIP3    H263306   5.309   6.705  14.244 -0.4783 -0.6393 -0.7487
13939TIP3   OH263307   1.570   3.949   2.268  0.1838 -0.8903 -0.3073
13939TIP3    H163308   1.643   3.990   2.314  1.3527 -1.2942 -1.7671
13939TIP3    H263309   1.583   3.855   2.280 -0.3525 -0.9519 -0.1865
13940TIP3   OH263310   4.911   5.558   1.695 -0.0713  0.3983  0.4059
13940TIP3    H163311   4.955   5.643   1.700 -0.1002  0.6112 -2.2258
13940TIP3    H263312   4.968   5.504   1.642 -1.3000 -0.4161 -0.1155
13941TIP3   OH263313   4.020   3.858  13.040 -0.1145 -0.1455 -0.7782
13941TIP3    H163314   4.011   3.941  12.994  0.1415  0.4944  0.2941
13941TIP3    H263315   3.956   3.863  13.111 -0.0192 -0.8122 -0.6462
13942TIP3   OH263316   6.743   0.018  16.820 -0.2441 -0.2383 -0.1034
13942TIP3    H163317   6.735   0.088  16.885 -1.0224 -0.2420 -0.1881
13942TIP3    H263318   6.762   0.063  16.738 -0.8310 -0.1197 -0.1735
13943TIP3   OH263319   4.372   2.717  15.402  0.0004 -0.6443  0.0711
13943TIP3    H163320   4.398   2.679  15.487  1.4784 -0.2675 -0.1973
13943TIP3    H263321   4.369   2.811  15.418 -3.4273 -0.7876  0.6712
13944TIP3   OH263322   0.739   4.714  11.179 -0.2937  0.5228  0.1216
13944TIP3    H163323   0.802   4.787  11.176 -0.3207  0.7731  3.4263
13944TIP3    H263324   0.662   4.751  11.223  0.1061 -1.7230  2.8574
13945TIP3   OH263325   2.099   0.211  17.021 -0.1661  0.8120  0.0183
13945TIP3    H163326   2.013   0.230  16.984 -0.7397 -0.1561  0.8257
13945TIP3    H263327   2.151   0.183  16.946 -0.8574  0.4113 -0.3220
13946TIP3   OH263328   4.038   4.124   5.705  0.2353  0.3776 -0.1518
13946TIP3    H163329   3.965   4.135   5.766 -0.8900 -0.0185 -1.4075
13946TIP3    H263330   4.029   4.196   5.643  1.0867  0.4920 -0.1545
13947TIP3   OH263331   5.198   0.013  16.885 -0.1630  0.0524  0.0148
13947TIP3    H163332   5.278   0.043  16.841 -1.4309  0.0003 -2.4236
13947TIP3    H263333   5.145   0.092  16.896 -0.6901 -0.2449 -0.3548
13948TIP3   OH263334   1.640   1.601  15.906  0.1299 -0.4340 -0.1082
13948TIP3    H163335   1.616   1.549  15.829 -1.4152  0.7338 -0.4376
13948TIP3    H263336   1.564   1.592  15.965  0.5280  0.1727  0.5013
13949TIP3   OH263337   0.173   4.011   1.089  0.5050 -0.4699  0.3805
13949TIP3    H163338   0.115   4.059   1.029 -0.1836  0.3299  1.6388
13949TIP3    H263339   0.261   4.026   1.055  0.1823  0.6214 -0.0089
13950TIP3   OH263340   4.672   5.484   0.954 -0.2298  0.4965 -0.4688
13950TIP3    H163341   4.706   5.403   0.917  0.7167  1.2094 -1.1923
13950TIP3    H263342   4.621   5.524   0.883 -0.0796  0.8916 -0.3576
13951TIP3   OH263343   2.973   2.466   1.763  0.3222  0.2567  0.4101
13951TIP3    H163344   2.939   2.555   1.776  1.3136  1.0592 -2.1397
13951TIP3    H263345   2.897   2.410   1.773 -0.6041  1.5212  0.6065
13952TIP3   OH263346   3.438   5.564  11.494 -0.2762 -0.0885  0.4799
13952TIP3    H163347   3.525   5.525  11.506 -0.3768 -0.1693  0.9599
13952TIP3    H263348   3.378   5.490  11.500 -0.3509 -0.0838 -0.2193
13953TIP3   OH263349   6.177   4.718   3.866  0.3852 -0.3783 -0.7175
13953TIP3    H163350   6.139   4.660   3.933  0.7206  0.2072 -0.0152
13953TIP3    H263351   6.118   4.793   3.863  0.4267 -0.3574 -1.0130
13954TIP3   OH263352   5.450   0.889  13.332 -0.2466  0.0362  0.4236
13954TIP3    H163353   5.538   0.852  13.343 -0.5639 -0.3727  1.5982
13954TIP3    H263354   5.465   0.971  13.285  0.6175 -0.7738 -0.7461
13955TIP3   OH263355   4.552   2.861   1.439  0.2616  0.0812 -0.3402
13955TIP3    H163356   4.469   2.814   1.441  0.9662 -1.2147 -1.1169
13955TIP3    H263357   4.545   2.925   1.510 -0.5949 -1.4140  0.9550
13956TIP3   OH263358   5.918   1.262   1.375 -0.3299 -0.0161 -0.3195
13956TIP3    H163359   5.912   1.302   1.462 -0.9019  0.2523 -0.4776
13956TIP3    H263360   5.864   1.183   1.382  0.5371 -0.5981 -0.1027
13957TIP3   OH263361   2.312   3.060   1.153  0.0740 -0.5131 -0.2072
13957TIP3    H163362   2.336   3.130   1.093  0.5880 -0.7712 -0.3057
13957TIP3    H263363   2.343   2.980   1.110  0.7106 -0.6747  0.5369
13958TIP3   OH263364   3.578   0.786  12.747 -0.6012  0.0182 -0.0787
13958TIP3    H163365   3.537   0.765  12.830 -1.4453  1.5855 -0.0802
13958TIP3    H263366   3.569   0.706  12.695  0.2479 -1.0808  1.4417
13959TIP3   OH263367   4.028   4.572   5.034 -0.2130 -0.3939 -0.0072
13959TIP3    H163368   4.121   4.581   5.052 -0.1354 -0.4589 -0.3916
13959TIP3    H263369   4.020   4.492   4.982 -0.4325 -0.1418 -0.3655
13960TIP3   OH263370   6.512   2.117   1.049  0.5831  0.4142 -0.1181
13960TIP3    H163371   6.549   2.204   1.031  1.2357  0.7056  2.4874
13960TIP3    H263372   6.589   2.062   1.063  0.1565 -0.5328 -1.4319
13961TIP3   OH263373   5.707   3.275   3.595 -0.2366  0.4620  0.2178
13961TIP3    H163374   5.670   3.194   3.558 -0.9437  1.2612 -0.8596
13961TIP3    H263375   5.723   3.254   3.687  0.3923 -1.1800 -0.2327
13962TIP3   OH263376   2.995   0.968  13.313 -0.3027 -0.5728 -0.3860
13962TIP3    H163377   2.982   1.030  13.241  1.5797 -1.3986 -1.4895
13962TIP3    H263378   2.931   0.994  13.379 -0.4766  1.6804 -1.3882
13963TIP3   OH263379   2.704   3.523  16.083 -0.5376 -0.1879 -0.0912
13963TIP3    H163380   2.739   3.541  15.996 -0.2443 -1.0129 -0.1445
13963TIP3    H263381   2.778   3.536  16.142  0.2568 -3.2580 -0.3327
13964TIP3   OH263382   1.847   1.389   6.217 -0.3845  0.0640 -0.5334
13964TIP3    H163383   1.931   1.345   6.202 -0.0849  0.7450 -0.8677
13964TIP3    H263384   1.871   1.476   6.249 -0.8763  1.1984 -3.0629
13965TIP3   OH263385   6.187   4.557   0.555  0.0317 -0.1907  0.4620
13965TIP3    H163386   6.238   4.635   0.577 -0.6836  0.3392  0.2641
13965TIP3    H263387   6.108   4.591   0.512 -0.7291 -0.9571  1.2281
13966TIP3   OH263388   2.793   0.787  14.787 -0.2100  0.1665  0.1756
13966TIP3    H163389   2.710   0.794  14.740 -0.2181 -0.6478  0.0622
13966TIP3    H263390   2.770   0.747  14.871  0.0988 -0.3347  0.0268
13967TIP3   OH263391   0.930   0.807  13.013  0.5517  0.0596  0.2553
13967TIP3    H163392   0.984   0.880  12.983  0.4643 -0.3745 -0.9925
13967TIP3    H263393   0.878   0.844  13.085  0.3713  1.2856 -0.4802
13968TIP3   OH263394   4.279   5.498   3.797  0.0662 -0.7209  0.6657
13968TIP3    H163395   4.318   5.584   3.812 -1.0957 -0.4114  2.0641
13968TIP3    H263396   4.190   5.506   3.833 -1.2329 -1.4698 -2.2617
13969TIP3   OH263397   2.685   5.610  13.209  0.2974  0.0295 -0.1349
13969TIP3    H163398   2.642   5.690  13.241  1.1365  0.8901 -1.1254
13969TIP3    H263399   2.653   5.599  13.120 -0.3079 -1.1254  0.2052
13970TIP3   OH263400   5.453   6.084  13.428  0.1587  0.6128 -0.5536
13970TIP3    H163401   5.435   6.168  13.471  0.7755  0.5971 -0.2650
13970TIP3    H263402   5.371   6.036  13.434  0.0889  0.8175  0.1400
13971TIP3   OH263403   5.457   5.487  16.828  0.4272  0.2327 -0.3756
13971TIP3    H163404   5.466   5.576  16.794  0.8020  1.2892  2.3618
13971TIP3    H263405   5.546   5.462  16.852 -0.1162  0.4266  1.9520
13972TIP3   OH263406   2.354   5.574   1.224 -0.1859  0.1281 -0.4504
13972TIP3    H163407   2.410   5.572   1.147 -2.3016  0.8289 -2.0367
13972TIP3    H263408   2.407   5.619   1.290  1.4392  0.0079 -1.6361
13973TIP3   OH263409   6.218   4.480  13.284  0.1072  0.0967  0.7457
13973TIP3    H163410   6.175   4.565  13.290 -1.2765 -0.5397  0.0434
13973TIP3    H263411   6.218   4.446  13.373 -1.0512  0.0097  0.7107
13974TIP3   OH263412   2.259   4.324   2.656  0.4123 -0.0561  0.0283
13974TIP3    H163413   2.193   4.391   2.641  0.3794 -0.4006 -1.4010
13974TIP3    H263414   2.329   4.346   2.594  0.6577 -0.9908 -0.0229
13975TIP3   OH263415   4.031   4.290   6.015 -0.0114  0.2510  0.3656
13975TIP3    H163416   3.998   4.276   6.104  0.7924  2.5068  1.0434
13975TIP3    H263417   3.968   4.348   5.974 -1.2665 -2.1045 -1.1366
13976TIP3   OH263418   3.316   1.117  11.097  0.3570  0.1079  0.3942
13976TIP3    H163419   3.253   1.089  11.031  0.7340  2.0496 -0.8254
13976TIP3    H263420   3.310   1.213  11.097  1.8135  0.2202  1.7420
13977TIP3   OH263421   2.754   5.752   5.508 -0.0209 -0.1605  0.1485
13977TIP3    H163422   2.683   5.688   5.495 -0.7071  0.5454  0.3801
13977TIP3    H263423   2.760   5.797   5.423  2.5449 -2.5793 -1.0522
13978TIP3   OH263424   2.738   2.990   3.609 -0.2979  0.4054 -0.3662
13978TIP3    H163425   2.700   2.946   3.685  3.9577 -0.6452  1.2648
13978TIP3    H263426   2.736   3.083   3.632 -2.0974  0.4164 -0.4662
13979TIP3   OH263427   4.211   1.324   5.356 -0.2477  0.1936 -0.2053
13979TIP3    H163428   4.148   1.393   5.379 -0.9166 -0.5550  0.2266
13979TIP3    H263429   4.236   1.286   5.441  1.4112  1.0290 -0.3078
13980TIP3   OH263430   5.321   1.213   1.196  0.0701  0.6020  0.0627
13980TIP3    H163431   5.385   1.263   1.146  0.0362  0.1269 -0.4563
13980TIP3    H263432   5.238   1.230   1.153  0.2069 -0.6872 -0.7194
13981TIP3   OH263433   0.582   3.169  11.145 -0.2402 -0.2405  0.5918
13981TIP3    H163434   0.542   3.126  11.069 -1.1043  1.0078  0.3299
13981TIP3    H263435   0.661   3.210  11.110 -0.2495 -0.2857  0.5163
13982TIP3   OH263436   1.432   2.612  16.481 -0.6266 -0.4034  0.0010
13982TIP3    H163437   1.505   2.598  16.542  1.1215 -1.2850 -2.2153
13982TIP3    H263438   1.353   2.599  16.534  0.8237 -0.1535  2.2857
13983TIP3   OH263439   6.564   2.082   4.384 -0.3419  0.2026 -0.1911
13983TIP3    H163440   6.538   2.083   4.476  0.2902  1.4162 -0.0068
13983TIP3    H263441   6.656   2.056   4.385 -0.0621  1.1423 -0.3826
13984TIP3   OH263442   0.665   6.812   4.994 -0.0514 -0.1481  0.7584
13984TIP3    H163443   0.700   6.794   5.081 -1.4339 -0.1218  1.3287
13984TIP3    H263444   0.651   6.907   4.992  0.2479 -0.1090  0.4036
13985TIP3   OH263445   2.528   2.839  14.591  0.1329 -0.1153 -0.1085
13985TIP3    H163446   2.623   2.843  14.603 -0.1112  0.2094  1.8813
13985TIP3    H263447   2.514   2.859  14.499  1.9619  0.5769 -0.2439
13986TIP3   OH263448   3.473   3.575  11.529 -0.2307 -0.2350 -0.0659
13986TIP3    H163449   3.568   3.579  11.539 -0.2261 -0.7096  0.0881
13986TIP3    H263450   3.447   3.666  11.518  0.3580 -0.1935 -1.2222
13987TIP3   OH263451   3.329   0.728   2.429  0.0305 -0.5934 -0.1088
13987TIP3    H163452   3.290   0.642   2.443  0.0816 -0.4373  1.0077
13987TIP3    H263453   3.255   0.788   2.424  0.0515 -0.5167  0.4583
13988TIP3   OH263454   2.454   5.431   2.255  0.1729  0.4844 -0.4813
13988TIP3    H163455   2.509   5.505   2.283  2.4117 -1.5524  0.6976
13988TIP3    H263456   2.510   5.381   2.196 -0.9989 -0.7717 -0.5465
13989TIP3   OH263457   2.328   2.741   4.707  0.2254  0.3025  0.0846
13989TIP3    H163458   2.400   2.730   4.769  0.0944  1.7476  0.5118
13989TIP3    H263459   2.296   2.652   4.691  2.0998 -0.3486 -0.1081
13990TIP3   OH263460   6.040   4.278  14.232 -0.2624 -0.1735  0.1515
13990TIP3    H163461   5.975   4.345  14.252  0.7868  0.7954  0.3671
13990TIP3    H263462   6.047   4.227  14.312  1.5464  1.6862  1.2280
13991TIP3   OH263463   4.837   0.330  12.894  0.0500 -0.0465  0.4160
13991TIP3    H163464   4.834   0.368  12.806 -0.2500 -1.0397 -0.0022
13991TIP3    H263465   4.872   0.401  12.949 -0.0974  0.6968 -0.4332
13992TIP3   OH263466   2.354   0.120  13.322  0.5792 -0.2686 -0.3977
13992TIP3    H163467   2.418   0.048  13.317  0.2257 -0.6132  0.0892
13992TIP3    H263468   2.352   0.144  13.414  1.1980  0.8248 -0.6600
13993TIP3   OH263469   4.270   2.645  11.946  0.5135 -0.1777  0.1522
13993TIP3    H163470   4.217   2.601  12.012  1.0203 -1.1157 -0.0587
13993TIP3    H263471   4.274   2.583  11.873  1.0184  0.3221 -0.2509
13994TIP3   OH263472   3.803   6.581   5.082 -0.3178  0.7201  0.3021
13994TIP3    H163473   3.897   6.595   5.083  0.0359 -1.4717  0.0483
13994TIP3    H263474   3.787   6.523   5.008 -1.5540 -0.7553  1.6563
13995TIP3   OH263475   0.732   5.427  14.188  0.1807  0.2101  0.6469
13995TIP3    H163476   0.789   5.432  14.112  0.2689 -1.6568  0.5566
13995TIP3    H263477   0.643   5.427  14.151  0.2350 -1.3253  0.4763
13996TIP3   OH263478   5.748   1.339   3.651 -0.2971 -0.4326  0.7135
13996TIP3    H163479   5.717   1.289   3.576 -2.0073  0.3771  0.8760
13996TIP3    H263480   5.723   1.286   3.727  1.1437 -1.0933  0.7464
13997TIP3   OH263481   2.714   5.784  15.228  0.6508  0.1876 -0.1354
13997TIP3    H163482   2.640   5.843  15.212  0.7917 -0.2874 -2.9244
13997TIP3    H263483   2.791   5.835  15.202  1.0370 -0.2753  0.0947
13998TIP3   OH263484   5.797   6.321   5.694 -0.0121 -0.5334 -0.2050
13998TIP3    H163485   5.878   6.295   5.650  1.0150 -0.9164  1.8742
13998TIP3    H263486   5.727   6.284   5.640  1.2608 -2.5160 -0.5281
13999TIP3   OH263487   5.684   3.984   0.168  0.3065 -0.4042 -0.2507
13999TIP3    H163488   5.658   3.942   0.086 -0.0389 -0.3076 -0.1874
13999TIP3    H263489   5.703   4.075   0.144 -1.9772  0.2124  0.1846
14000TIP3   OH263490   1.409   4.727  13.538  0.4224  0.1203  0.0086
14000TIP3    H163491   1.363   4.701  13.618  2.6873  0.0898  1.3487
14000TIP3    H263492   1.439   4.816  13.555 -0.5384  0.7425 -1.4909
14001TIP3   OH263493   2.826   2.887  11.993  0.3897 -0.2491 -0.1100
14001TIP3    H163494   2.801   2.979  11.981  0.2663 -0.1984  0.4947
14001TIP3    H263495   2.797   2.866  12.082  0.3317 -0.9025 -0.2783
14002TIP3   OH263496   4.548   2.754  14.397  0.4352  0.5204  0.2741
14002TIP3    H163497   4.571   2.788  14.310  1.7467  1.1222  0.8349
14002TIP3    H263498   4.627   2.711  14.427 -0.4867 -1.0036  0.5776
14003TIP3   OH263499   4.491   1.174  17.049  0.0470  0.1522 -0.7663
14003TIP3    H163500   4.436   1.249  17.072 -0.1808 -0.0400 -0.6945
14003TIP3    H263501   4.431   1.111  17.009  0.1891 -0.1171 -0.5555
14004TIP3   OH263502   3.464   1.154   0.559  0.4136 -0.1956  0.4232
14004TIP3    H163503   3.434   1.215   0.627  2.8679 -0.1999  1.5685
14004TIP3    H263504   3.493   1.210   0.487 -0.9751 -0.1571 -0.1281
14005TIP3   OH263505   1.559   1.174   2.325 -0.1617 -0.5633  0.0452
14005TIP3    H163506   1.591   1.251   2.372 -1.5134  1.0768 -1.6553
14005TIP3    H263507   1.595   1.100   2.373  1.2680  1.1276  1.6491
14006TIP3   OH263508   1.596   5.776   1.893 -0.1515  0.0879  0.2339
14006TIP3    H163509   1.505   5.797   1.875 -0.0342 -0.1264 -0.6263
14006TIP3    H263510   1.595   5.738   1.981 -0.9671 -0.4112  0.0168
14007TIP3   OH263511   0.267   2.840  12.837 -0.0489 -0.3464 -0.1046
14007TIP3    H163512   0.257   2.824  12.931 -2.8076  0.0595 -0.2978
14007TIP3    H263513   0.180   2.864  12.807  0.2497 -2.7712 -3.2328
14008TIP3   OH263514   6.398   3.820  14.888 -0.4411 -0.0331  0.8524
14008TIP3    H163515   6.424   3.821  14.981  0.3723 -0.6058  0.6365
14008TIP3    H263516   6.334   3.749  14.882  0.7018 -1.0660  0.6717
14009TIP3   OH263517   5.539   6.785  14.302  0.9155  0.2363 -0.1764
14009TIP3    H163518   5.524   6.813  14.392 -1.5564  1.6425 -0.9842
14009TIP3    H263519   5.585   6.859  14.261  0.0656  0.5140 -0.6396
14010TIP3   OH263520   4.566   1.213   3.583 -0.3432 -0.0317 -0.3387
14010TIP3    H163521   4.554   1.157   3.507 -0.0811 -1.6570  0.7959
14010TIP3    H263522   4.576   1.301   3.546  0.2826 -0.8519 -2.2026
14011TIP3   OH263523   4.506   2.856   3.910  0.0261 -0.0218  0.4386
14011TIP3    H163524   4.435   2.837   3.848 -0.9020  0.2169  1.4198
14011TIP3    H263525   4.468   2.842   3.996  0.8190  1.2797  1.0180
14012TIP3   OH263526   3.328   0.084   3.749  0.7837 -0.7605 -0.5631
14012TIP3    H163527   3.372   0.012   3.704  1.2977 -1.8224  1.5498
14012TIP3    H263528   3.242   0.048   3.773  1.2497 -0.8699  0.9794
14013TIP3   OH263529   0.627   3.881  15.775  0.4520  0.4167  0.0006
14013TIP3    H163530   0.690   3.828  15.824  0.6853 -0.5947 -1.3894
14013TIP3    H263531   0.550   3.884  15.832  0.9916 -0.1106  0.7766
14014TIP3   OH263532   4.998   2.095   6.384 -0.3524 -0.1745 -0.4259
14014TIP3    H163533   4.908   2.090   6.353 -0.2502  1.5577 -1.0317
14014TIP3    H263534   4.993   2.078   6.478 -1.0689 -1.9955 -0.7801
14015TIP3   OH263535   0.229   6.531  10.904 -0.5348 -1.0349  0.5650
14015TIP3    H163536   0.220   6.459  10.842  1.1894 -0.8619  0.0886
14015TIP3    H263537   0.139   6.561  10.919 -1.0497 -1.6666 -1.1389
14016TIP3   OH263538   1.769   2.813  17.216  0.2359  0.3432 -0.1713
14016TIP3    H163539   1.831   2.885  17.227 -1.0464  1.3463  0.6862
14016TIP3    H263540   1.749   2.784  17.305 -0.3990 -0.0750 -0.4449
14017TIP3   OH263541   6.239   5.246   1.327  0.3557 -0.3800  0.3940
14017TIP3    H163542   6.303   5.178   1.350 -0.9629 -1.9499 -0.4761
14017TIP3    H263543   6.180   5.250   1.402  1.0441  0.5735  0.8974
14018TIP3   OH263544   5.429   2.169  16.418 -0.0816  0.3730 -0.3783
14018TIP3    H163545   5.347   2.189  16.463 -1.5828  0.0841 -2.8847
14018TIP3    H263546   5.443   2.244  16.360  0.7276 -0.2050 -0.9397
14019TIP3   OH263547   2.922   1.670   4.113  0.1976 -0.3296 -0.0555
14019TIP3    H163548   2.862   1.597   4.096 -1.2627  1.2561 -1.8518
14019TIP3    H263549   2.992   1.658   4.049  0.7238 -0.9741  0.6309
14020TIP3   OH263550   2.088   5.668  12.864 -0.4315 -0.3614  0.1231
14020TIP3    H163551   2.017   5.711  12.817 -0.7820 -2.4781 -1.3413
14020TIP3    H263552   2.128   5.609  12.800  1.5840 -0.4276  1.3888
14021TIP3   OH263553   4.153   1.327  10.769 -0.5461 -0.4019 -0.2959
14021TIP3    H163554   4.211   1.403  10.767  0.2358 -1.0177 -2.0271
14021TIP3    H263555   4.098   1.341  10.846 -0.3921  1.8935 -0.5637
14022TIP3   OH263556   5.236   6.439   0.335 -0.1896 -0.0064 -0.3346
14022TIP3    H163557   5.239   6.380   0.411  0.5793 -1.1950 -1.2509
14022TIP3    H263558   5.268   6.385   0.262  0.3881  1.5120 -1.2325
14023TIP3   OH263559   5.992   5.427  15.511 -0.3575  0.3660  0.3146
14023TIP3    H163560   5.995   5.491  15.582 -1.2710  0.9057 -0.1197
14023TIP3    H263561   5.905   5.388  15.517 -0.4488  0.4234 -0.5041
14024TIP3   OH263562   4.262   4.041   2.426 -0.2332 -0.0852 -0.0477
14024TIP3    H163563   4.276   4.136   2.433  1.1917 -0.3411  0.7816
14024TIP3    H263564   4.181   4.025   2.474  0.9177  0.3785  2.1049
14025TIP3   OH263565   3.862   3.715   1.450 -0.1925  0.1155  0.1571
14025TIP3    H163566   3.879   3.795   1.499  0.5791  1.0048 -1.5377
14025TIP3    H263567   3.767   3.703   1.454 -0.3919  1.5216 -0.2054
14026TIP3   OH263568   4.591   4.876   5.407 -0.1189  0.2096  0.7523
14026TIP3    H163569   4.592   4.934   5.483  0.3895  0.0100  0.8987
14026TIP3    H263570   4.589   4.936   5.332  0.0564  0.4180  0.9103
14027TIP3   OH263571   1.887   4.008  16.268  0.1678  0.2356  0.1375
14027TIP3    H163572   1.889   3.964  16.353  0.1483 -2.1582 -1.0813
14027TIP3    H263573   1.799   4.043  16.261 -0.1325 -0.4080  0.6840
14028TIP3   OH263574   6.269   5.988   3.402  0.5727 -0.1072  0.4993
14028TIP3    H163575   6.208   5.915   3.407 -0.0854  0.3119 -1.0486
14028TIP3    H263576   6.220   6.063   3.438  0.4304  0.0649 -0.0463
14029TIP3   OH263577   3.621   1.771  16.492 -1.0125 -0.0677 -0.1052
14029TIP3    H163578   3.590   1.760  16.402 -1.8355  1.3646 -0.0122
14029TIP3    H263579   3.604   1.863  16.513 -1.9562 -0.6728  1.9412
14030TIP3   OH263580   4.436   6.496   2.547  0.3738 -0.0983  0.0040
14030TIP3    H163581   4.406   6.456   2.466  0.7009 -1.8595  0.7376
14030TIP3    H263582   4.371   6.470   2.613  0.0963  1.3315  0.3270
14031TIP3   OH263583   3.457   2.320  16.371  0.3983  0.2707 -0.5863
14031TIP3    H163584   3.376   2.334  16.420  0.6342  0.0001 -0.1151
14031TIP3    H263585   3.515   2.391  16.400  0.6728 -0.1161 -0.1776
14032TIP3   OH263586   5.575   6.122   1.770 -0.2664  0.5944  0.1626
14032TIP3    H163587   5.641   6.085   1.830  0.6909  1.2584 -0.4837
14032TIP3    H263588   5.493   6.079   1.796  0.7033 -1.4875 -0.1196
14033TIP3   OH263589   4.170   6.318  17.001  0.3372 -0.2583  0.2451
14033TIP3    H163590   4.158   6.298  16.908  0.7145 -0.0082  0.1436
14033TIP3    H263591   4.243   6.379  17.003 -0.4872  0.7258  0.6050
14034TIP3   OH263592   6.571   4.489  13.365  0.2689  0.1321  0.4659
14034TIP3    H163593   6.560   4.553  13.295 -0.1676 -0.0564  0.3634
14034TIP3    H263594   6.656   4.512  13.404  0.6104  0.1203 -0.2462
14035TIP3   OH263595   3.342   2.179  14.425  0.5597  0.2657 -0.6190
14035TIP3    H163596   3.316   2.093  14.392  0.8103  0.5846 -1.6654
14035TIP3    H263597   3.369   2.228  14.347 -2.6777  2.4195 -0.4715
14036TIP3   OH263598   4.929   2.321  14.156  0.4521  0.0140 -0.6771
14036TIP3    H163599   4.918   2.392  14.092  0.6021  0.9823  0.3479
14036TIP3    H263600   4.853   2.265  14.142  0.5094  0.1906 -1.7384
14037TIP3   OH263601   5.903   6.120  14.856 -0.2955  0.9010 -0.3960
14037TIP3    H163602   5.924   6.030  14.881 -0.5585  0.5265 -1.4858
14037TIP3    H263603   5.823   6.141  14.904 -0.4604  0.4107 -0.4517
14038TIP3   OH263604   2.247   2.589   0.568  0.1350  0.5452 -0.5869
14038TIP3    H163605   2.276   2.501   0.544  0.4519  0.4215  0.2423
14038TIP3    H263606   2.152   2.580   0.580  0.5188 -0.2940  2.0944
14039TIP3   OH263607   2.937   6.254   5.550 -0.2330 -0.0219 -0.9970
14039TIP3    H163608   2.934   6.257   5.455  0.2371  2.5635 -0.9658
14039TIP3    H263609   2.891   6.333   5.578  1.1811  0.1701  0.8765
14040TIP3   OH263610   1.574   3.225   3.657 -0.6504 -0.7232 -0.0843
14040TIP3    H163611   1.650   3.277   3.633  0.0045 -3.1828 -3.7644
14040TIP3    H263612   1.569   3.232   3.753  3.4614  0.4510  0.1335
14041TIP3   OH263613   4.246   2.059   5.874  0.7639  0.5606 -0.5880
14041TIP3    H163614   4.305   2.026   5.807  2.1486 -0.8467  1.2480
14041TIP3    H263615   4.221   1.981   5.925 -1.6692  1.3262 -0.5532
14042TIP3   OH263616   2.839   4.770   1.265  0.7949 -0.2751  0.1645
14042TIP3    H163617   2.849   4.851   1.315  1.0609 -1.3733  1.9290
14042TIP3    H263618   2.753   4.735   1.291 -0.2208  0.4281 -2.0939
14043TIP3   OH263619   0.071   2.418  15.135 -0.1620  0.1280  0.8830
14043TIP3    H163620   0.119   2.386  15.212 -0.0906  3.1906  2.1800
14043TIP3    H263621  -0.021   2.414  15.161 -0.2749 -0.6553  0.3857
14044TIP3   OH263622   4.527   4.965  15.384 -0.4003  0.5348  0.0605
14044TIP3    H163623   4.467   4.946  15.456  1.0047 -1.8496  0.6634
14044TIP3    H263624   4.506   4.899  15.318  1.4434 -0.2775  0.2450
14045TIP3   OH263625   2.390   6.166   5.322 -0.0409  0.1881  0.3548
14045TIP3    H163626   2.329   6.114   5.374  0.5256 -0.1306  0.7101
14045TIP3    H263627   2.340   6.193   5.245 -1.2749  1.7168  1.6641
14046TIP3   OH263628   2.904   6.190  16.502 -1.2603 -0.4702 -0.5543
14046TIP3    H163629   2.852   6.270  16.506 -1.5533 -0.6402 -0.8422
14046TIP3    H263630   2.865   6.133  16.568 -1.4540 -0.6058 -0.7838
14047TIP3   OH263631   3.118   1.874   0.649 -0.0193  0.0369 -0.0008
14047TIP3    H163632   3.138   1.893   0.740 -1.4258 -1.4492  0.6330
14047TIP3    H263633   3.104   1.960   0.609  1.9702  0.7754  0.8309
14048TIP3   OH263634   2.248   1.176  14.069 -0.6608  0.7845 -0.4116
14048TIP3    H163635   2.188   1.248  14.089  1.1852  2.5141 -0.8655
14048TIP3    H263636   2.196   1.097  14.080 -2.8029  2.2034 -0.0846
14049TIP3   OH263637   3.805   6.733  16.790  0.3269 -0.2073  0.1551
14049TIP3    H163638   3.841   6.674  16.856  0.3192 -0.0250  0.3199
14049TIP3    H263639   3.781   6.675  16.717  2.2763 -0.1779 -0.5405
14050TIP3   OH263640   2.385   2.233   3.167 -0.2992  0.3428 -0.0467
14050TIP3    H163641   2.301   2.246   3.210  0.4642 -0.4473  1.7330
14050TIP3    H263642   2.392   2.138   3.156  0.6777  0.3350  0.5096
14051TIP3   OH263643   5.126   1.287  11.297 -0.0837  0.0210  0.8243
14051TIP3    H163644   5.076   1.225  11.349  0.6380 -1.0187  0.2913
14051TIP3    H263645   5.065   1.315  11.229 -0.3910 -0.1433  1.0276
14052TIP3   OH263646   4.523   4.749   4.050  0.0991 -0.1228  0.0411
14052TIP3    H163647   4.540   4.723   3.960 -1.0700 -0.7049 -0.0241
14052TIP3    H263648   4.428   4.762   4.054  0.1654  0.0811  1.1334
14053TIP3   OH263649   2.558   1.146   0.915  0.2455 -0.3395 -0.6671
14053TIP3    H163650   2.532   1.169   0.825 -2.1201  1.4752  0.4036
14053TIP3    H263651   2.649   1.174   0.922  0.2959 -0.0418 -2.3574
14054TIP3   OH263652   6.095   6.537  16.503  0.7250  0.7386 -0.4271
14054TIP3    H163653   6.156   6.599  16.544  0.4837  0.6234  0.1075
14054TIP3    H263654   6.048   6.497  16.576 -0.2871  1.1198 -0.8580
14055TIP3   OH263655   1.412   3.680  16.112  0.5175  0.1691 -0.7788
14055TIP3    H163656   1.500   3.648  16.091 -0.1320 -1.9298 -0.4209
14055TIP3    H263657   1.419   3.714  16.201  0.6405 -1.3741 -0.1824
14056TIP3   OH263658   2.499   5.293  14.275  0.2212 -0.1785  0.5101
14056TIP3    H163659   2.499   5.245  14.358  1.4836 -2.3051 -0.6828
14056TIP3    H263660   2.414   5.274  14.235 -0.0087  0.0808  0.8718
14057TIP3   OH263661   4.515   6.025   5.094  0.4849  0.8082 -0.5855
14057TIP3    H163662   4.491   6.090   5.159  2.8208  1.6488 -0.4943
14057TIP3    H263663   4.438   5.970   5.084 -1.0355  2.7405  0.3771
14058TIP3   OH263664   3.097   3.638  15.239  0.6370 -0.1943  0.0808
14058TIP3    H163665   3.127   3.656  15.150  0.8700 -1.5910 -0.1297
14058TIP3    H263666   3.168   3.671  15.295  0.6025  0.4574 -0.2491
14059TIP3   OH263667   6.316   5.027  14.736 -0.1532  0.0272 -0.0847
14059TIP3    H163668   6.252   4.971  14.691 -0.0356 -1.0411  1.0356
14059TIP3    H263669   6.304   5.113  14.697 -1.0906 -0.5424 -1.0983
14060TIP3   OH263670   3.365   1.918  14.344 -0.3193  0.2494 -0.1922
14060TIP3    H163671   3.282   1.870  14.350  0.7932 -1.5137  1.7694
14060TIP3    H263672   3.382   1.923  14.250 -1.7664 -0.9426 -0.5496
14061TIP3   OH263673   2.193   1.236   3.856  0.3550  0.2788 -0.1574
14061TIP3    H163674   2.255   1.296   3.897  0.3847 -0.6553  1.2186
14061TIP3    H263675   2.198   1.255   3.763  3.0257 -0.0741 -0.1036
14062TIP3   OH263676   4.926   1.119  12.017 -0.6578  0.4663  0.1828
14062TIP3    H163677   4.839   1.080  12.013 -1.0207  0.8514  2.9875
14062TIP3    H263678   4.975   1.077  11.947 -2.1993 -2.0616  0.5587
14063TIP3   OH263679   2.359   6.680  14.473  0.0759  0.0363 -0.0972
14063TIP3    H163680   2.300   6.610  14.501 -1.3001  0.7461 -1.1673
14063TIP3    H263681   2.390   6.652  14.387  1.0239 -0.1475  0.2948
14064TIP3   OH263682   4.858   2.681   1.999  0.0396 -0.3650  0.8234
14064TIP3    H163683   4.948   2.683   1.965  0.0137 -0.8660  0.7306
14064TIP3    H263684   4.821   2.765   1.971  0.0233 -0.7635 -0.3901
14065TIP3   OH263685   6.524   2.160   1.698 -0.7567 -0.3939 -0.0654
14065TIP3    H163686   6.510   2.078   1.651 -2.3684  1.1579 -2.3538
14065TIP3    H263687   6.493   2.141   1.787  1.9492 -3.2257  0.3639
14066TIP3   OH263688   0.734   4.668  12.957 -0.4210  0.6802 -0.3101
14066TIP3    H163689   0.727   4.669  12.861 -2.0958  0.5735 -0.2007
14066TIP3    H263690   0.645   4.650  12.987 -0.0423  1.4373  1.2846
14067TIP3   OH263691   5.401   4.358  15.009 -0.6237  0.0703  0.0380
14067TIP3    H163692   5.492   4.349  15.035 -0.6346 -0.2143 -0.0231
14067TIP3    H263693   5.389   4.294  14.938 -0.9984 -0.2420  0.3792
14068TIP3   OH263694   4.055   1.549  13.034  0.1064  0.2998 -0.4606
14068TIP3    H163695   4.019   1.628  12.995  0.3096 -0.2141 -1.7212
14068TIP3    H263696   4.027   1.552  13.125 -0.9560  1.1869 -0.8047
14069TIP3   OH263697   4.942   6.654   5.728  0.2176 -0.3958  0.5533
14069TIP3    H163698   4.849   6.673   5.740  0.3225  0.6243 -0.2188
14069TIP3    H263699   4.987   6.728   5.768  0.6691 -0.1301 -0.4367
14070TIP3   OH263700   0.117   0.718  16.971 -0.2180 -0.2739 -0.2639
14070TIP3    H163701   0.104   0.809  16.943  2.3336 -0.2312 -1.4381
14070TIP3    H263702   0.210   0.714  16.995  0.1799 -3.0681 -2.0919
14071TIP3   OH263703   3.369   3.015  17.173  0.8858 -0.0598 -0.1604
14071TIP3    H163704   3.432   3.008  17.102  0.1024  2.5479 -1.1714
14071TIP3    H263705   3.414   3.065  17.241  0.8553 -0.5984  0.2580
14072TIP3   OH263706   3.137   4.752   0.999 -0.6538 -0.2770 -0.0827
14072TIP3    H163707   3.230   4.740   0.980 -1.1615 -0.6899 -2.4740
14072TIP3    H263708   3.101   4.663   0.997 -1.3252 -0.0001 -0.3770
14073TIP3   OH263709   1.106   4.733   4.197 -0.1054 -0.0967  0.3101
14073TIP3    H163710   1.054   4.760   4.121  0.2436  0.8421  0.4018
14073TIP3    H263711   1.042   4.695   4.257 -0.1082 -2.7353 -1.2879
14074TIP3   OH263712   2.596   2.095  15.824  0.1290  0.2872  0.4598
14074TIP3    H163713   2.628   2.137  15.903  1.4374  0.7061 -0.2878
14074TIP3    H263714   2.664   2.033  15.800 -0.8672 -0.8159  0.3975
14075TIP3   OH263715   5.176   2.806  14.637  0.8083 -0.1140 -0.5074
14075TIP3    H163716   5.253   2.794  14.693  0.5802 -0.2291 -0.2208
14075TIP3    H263717   5.203   2.873  14.574  0.9651  0.2317 -0.0765
14076TIP3   OH263718   1.561   3.269   3.951  0.3102 -0.2692  0.0795
14076TIP3    H163719   1.595   3.358   3.962  1.5022 -0.5575 -1.1452
14076TIP3    H263720   1.466   3.281   3.945  0.5325  1.0776 -1.3296
14077TIP3   OH263721   3.538   5.605  16.616 -0.2517  0.5228 -0.1177
14077TIP3    H163722   3.559   5.518  16.649  0.7464  1.2069  1.0753
14077TIP3    H263723   3.623   5.647  16.603 -0.7610  1.7398  0.4412
14078TIP3   OH263724   6.474   4.547   6.525 -0.1280  0.1166  0.3476
14078TIP3    H163725   6.508   4.472   6.574 -0.2536 -0.3532 -0.2756
14078TIP3    H263726   6.513   4.623   6.567  2.0545 -0.4257 -0.6198
14079TIP3   OH263727   2.405   0.484   6.416  0.0950  0.1368  0.2040
14079TIP3    H163728   2.483   0.530   6.446  1.0879 -0.5838 -1.2133
14079TIP3    H263729   2.416   0.476   6.321 -1.6647 -0.0406 -0.0038
14080TIP3   OH263730   3.116   1.690  11.625  0.4448  0.0150  1.1569
14080TIP3    H163731   3.051   1.682  11.695  0.4716 -1.1233  1.0555
14080TIP3    H263732   3.136   1.600  11.600  0.0081  0.4143 -0.7201
14081TIP3   OH263733   3.274   0.198   1.350 -0.1975  0.3905  0.1752
14081TIP3    H163734   3.247   0.253   1.276 -0.9607  0.9667  0.8755
14081TIP3    H263735   3.320   0.259   1.409 -1.1251  0.3003  0.9973
14082TIP3   OH263736   6.585   0.127   1.424 -0.3345 -0.0597  0.4823
14082TIP3    H163737   6.512   0.121   1.485  0.9469 -0.8229  1.9972
14082TIP3    H263738   6.630   0.209   1.449  0.0082 -0.2084  0.3606
14083TIP3   OH263739   1.239   5.130   6.403 -0.0610  0.1578 -0.7421
14083TIP3    H163740   1.322   5.085   6.417 -0.9300 -1.6539 -1.2493
14083TIP3    H263741   1.173   5.067   6.434 -1.1958  1.9714  0.6008
14084TIP3   OH263742   0.757   4.474  15.737  0.0457 -0.6135  0.6597
14084TIP3    H163743   0.778   4.550  15.792 -4.0419  1.9702 -1.1146
14084TIP3    H263744   0.686   4.429  15.784  1.2178 -2.3552  0.8030
14085TIP3   OH263745   4.000   0.917   2.106  0.5076 -0.8352 -0.1071
14085TIP3    H163746   3.996   1.013   2.113  0.9699 -0.8489  0.3797
14085TIP3    H263747   3.983   0.886   2.195 -2.7044 -1.3043 -0.8502
14086TIP3   OH263748   3.719   3.169   3.366  0.2249 -0.3317  0.2704
14086TIP3    H163749   3.773   3.228   3.418 -0.3631  1.4798 -1.1330
14086TIP3    H263750   3.636   3.216   3.355 -1.3706 -2.6883  1.6518
14087TIP3   OH263751   6.259   2.690  12.164 -0.4596  0.0897  0.0769
14087TIP3    H163752   6.235   2.598  12.158  1.2532 -0.4059  0.6643
14087TIP3    H263753   6.264   2.708  12.257 -0.5167  0.7208 -0.0358
14088TIP3   OH263754   4.942   5.138   4.329  0.6883  0.2569 -0.0389
14088TIP3    H163755   5.027   5.104   4.300  0.9167  0.8422 -0.0673
14088TIP3    H263756   4.878   5.080   4.289  1.0378  0.5046 -0.9647
14089TIP3   OH263757   5.789   4.925   5.370  0.0595 -0.1629 -0.2338
14089TIP3    H163758   5.862   4.928   5.309 -0.6601 -0.3269 -1.1225
14089TIP3    H263759   5.809   4.992   5.436  1.1960 -0.4908 -0.2344
14090TIP3   OH263760   2.580   2.655   0.392 -0.0443 -0.2128  0.0832
14090TIP3    H163761   2.495   2.679   0.355 -0.2145 -2.5576 -1.1621
14090TIP3    H263762   2.564   2.573   0.439  1.4165 -0.4196  0.2683
14091TIP3   OH263763   6.753   3.602  16.041  0.3415  0.0224  0.2896
14091TIP3    H163764   6.695   3.679  16.043  0.4586  0.1023  1.7289
14091TIP3    H263765   6.715   3.545  15.975  1.5372  2.3010 -2.4332
14092TIP3   OH263766   6.119   1.631   5.655 -0.3505  0.0588  0.4572
14092TIP3    H163767   6.127   1.726   5.668 -0.6901  0.0426  0.7851
14092TIP3    H263768   6.207   1.597   5.673  0.4200  0.5907 -2.0986
14093TIP3   OH263769   1.412   0.118   5.178  0.3495  0.0071 -0.3792
14093TIP3    H163770   1.400   0.152   5.090 -0.0566 -0.0043 -0.3275
14093TIP3    H263771   1.468   0.041   5.167  0.4638  0.1226 -0.6023
14094TIP3   OH263772   1.688   6.102   0.024  0.2569 -0.1414  0.1240
14094TIP3    H163773   1.660   6.037  -0.040 -0.4903 -0.5676  0.8698
14094TIP3    H263774   1.632   6.087   0.100  0.1153  1.3379  0.3306
14095TIP3   OH263775   0.280   2.234   4.700 -0.1518 -0.0089 -0.2388
14095TIP3    H163776   0.255   2.316   4.742 -1.2377 -0.3135 -0.2804
14095TIP3    H263777   0.197   2.188   4.686  0.3104 -0.4393 -1.6049
14096TIP3   OH263778   1.372   0.971  13.711 -0.2464  0.3100  0.5582
14096TIP3    H163779   1.360   0.882  13.746 -1.4639  1.1932  2.4731
14096TIP3    H263780   1.352   1.028  13.785  2.5166  2.1708 -0.0975
14097TIP3   OH263781   0.356   4.504  14.251 -0.9756 -0.2666  0.2904
14097TIP3    H163782   0.402   4.571  14.301 -0.1297 -1.6529  1.4289
14097TIP3    H263783   0.284   4.478  14.308 -0.6522 -1.0819  0.3321
14098TIP3   OH263784   2.104   2.526  11.889  0.3184 -0.3008  0.0645
14098TIP3    H163785   2.036   2.492  11.831 -0.5721  0.1615  0.8182
14098TIP3    H263786   2.062   2.529  11.975  1.1504  0.4246  0.4461
14099TIP3   OH263787   1.204   1.491  14.332  0.1782  0.0990 -0.3741
14099TIP3    H163788   1.190   1.516  14.241  1.8596  0.0153 -0.6696
14099TIP3    H263789   1.124   1.444  14.357 -1.4610  2.5070 -0.9423
14100TIP3   OH263790   0.387   4.856  15.543  0.0563  0.0043 -0.0272
14100TIP3    H163791   0.441   4.922  15.500  0.6948 -0.3515  0.2236
14100TIP3    H263792   0.449   4.800  15.589 -0.5762  0.0416  0.8913
14101TIP3   OH263793   0.660   5.799   3.590 -0.3240  0.2045 -0.0347
14101TIP3    H163794   0.679   5.742   3.665  0.2070  0.8601  0.3280
14101TIP3    H263795   0.629   5.880   3.629 -2.1207 -0.2013 -0.5832
14102TIP3   OH263796   6.603   5.056   3.144 -0.0461 -0.1352 -0.5352
14102TIP3    H163797   6.684   5.010   3.120  0.6166  0.7375 -0.0471
14102TIP3    H263798   6.615   5.144   3.108 -1.1014 -0.2176 -1.0805
14103TIP3   OH263799   1.207   6.695   6.359  0.5597  0.0956  0.0304
14103TIP3    H163800   1.292   6.662   6.386  0.1752  0.5643  1.8943
14103TIP3    H263801   1.213   6.790   6.372 -0.4648  0.0618  0.8771
14104TIP3   OH263802   3.520   2.070  16.260 -0.3892 -0.1281  0.8125
14104TIP3    H163803   3.536   2.162  16.281  0.3158  0.2615 -1.3110
14104TIP3    H263804   3.444   2.072  16.201  0.0449 -0.8403  0.2188
14105TIP3   OH263805   3.914   4.697   3.014  0.2454 -1.0129  0.2271
14105TIP3    H163806   4.007   4.707   2.995  0.0379  2.0840  0.6321
14105TIP3    H263807   3.908   4.698   3.110 -0.1456 -1.8487  0.2150
14106TIP3   OH263808   5.242   6.295   0.918 -0.4079  0.4494 -0.0934
14106TIP3    H163809   5.170   6.303   0.980  0.7663  0.0409  1.3796
14106TIP3    H263810   5.263   6.385   0.893 -0.8893  0.6204  0.1196
14107TIP3   OH263811   3.971   4.206   5.179 -0.3891  0.9144  0.9668
14107TIP3    H163812   3.928   4.273   5.127  0.6534  1.7664  1.1759
14107TIP3    H263813   3.984   4.133   5.119 -0.4479  1.3555  0.4143
14108TIP3   OH263814   5.407   0.069  11.313 -0.2207  0.2229  0.4160
14108TIP3    H163815   5.502   0.064  11.303 -0.2335  0.3633  0.2396
14108TIP3    H263816   5.386  -0.004  11.372  0.1943  1.2289  1.8138
14109TIP3   OH263817   4.373   5.774  10.711  0.2583  0.1172  0.0560
14109TIP3    H163818   4.295   5.776  10.655 -0.4453  3.9131  1.0504
14109TIP3    H263819   4.446   5.794  10.652  0.1304 -0.5161 -0.3264
14110TIP3   OH263820   1.874   1.811   5.248 -0.4238 -0.0456 -0.0061
14110TIP3    H163821   1.788   1.853   5.253  0.0671  0.9438  0.4472
14110TIP3    H263822   1.907   1.814   5.338  0.2598 -0.0285 -0.2564
14111TIP3   OH263823   3.024   4.784   1.897 -0.3473  0.1687 -0.2984
14111TIP3    H163824   3.094   4.849   1.905 -0.8531  0.9408 -2.0027
14111TIP3    H263825   2.957   4.813   1.959 -0.3813  1.0533 -0.7342
14112TIP3   OH263826   3.389   3.883  16.991  0.7482  0.5582 -0.3855
14112TIP3    H163827   3.414   3.868  17.082 -0.1052  0.5327 -0.1530
14112TIP3    H263828   3.406   3.800  16.946  1.7456  0.7579 -0.3805
14113TIP3   OH263829   2.368   6.126  14.982 -0.1434  0.6004 -0.1833
14113TIP3    H163830   2.435   6.077  14.934 -0.6975  0.1107 -0.4723
14113TIP3    H263831   2.349   6.202  14.926  0.4774  0.9730  0.1075
14114TIP3   OH263832   0.732   5.773  11.908  0.8384  0.3004 -0.6697
14114TIP3    H163833   0.662   5.838  11.907 -0.6691 -1.1732  1.9216
14114TIP3    H263834   0.767   5.778  11.997  0.3103 -2.7712 -0.2312
14115TIP3   OH263835   2.621   1.200   5.025  0.0756  0.3604 -0.1459
14115TIP3    H163836   2.673   1.236   5.097  1.0407 -0.0113 -0.6374
14115TIP3    H263837   2.686   1.183   4.956 -0.3366 -2.3428  0.0879
14116TIP3   OH263838   0.120   2.988   3.588 -0.1631 -0.0430 -0.5534
14116TIP3    H163839   0.179   2.986   3.663 -1.0762 -0.8954  0.1484
14116TIP3    H263840   0.177   3.009   3.513  1.0637 -1.0624  0.0739
14117TIP3   OH263841   1.936   5.272  13.395 -0.5778 -0.7430 -0.0951
14117TIP3    H163842   1.983   5.354  13.413 -0.8340 -0.4358 -0.7929
14117TIP3    H263843   1.939   5.224  13.478  0.8426 -0.6677 -0.0875
14118TIP3   OH263844   1.298   1.654  11.139  0.1732 -0.4625 -0.0554
14118TIP3    H163845   1.344   1.701  11.209 -1.3458 -0.6544  1.1120
14118TIP3    H263846   1.210   1.640  11.174 -0.8197 -0.0209 -2.2650
14119TIP3   OH263847   0.363   2.612   4.743 -0.2926 -0.2753  0.7395
14119TIP3    H163848   0.300   2.605   4.671  0.6465 -0.3362 -0.0852
14119TIP3    H263849   0.406   2.527   4.745  1.1383  0.4252  0.0131
14120TIP3   OH263850   3.501   6.597   2.796  0.5259  0.3580 -0.0841
14120TIP3    H163851   3.514   6.505   2.821  1.9873  0.2157 -1.2817
14120TIP3    H263852   3.406   6.608   2.792  0.3455 -1.2024 -0.2922
14121TIP3   OH263853   6.319   5.781   4.599 -0.3183 -0.6265 -0.1433
14121TIP3    H163854   6.232   5.797   4.564 -0.5108  1.0970  1.0674
14121TIP3    H263855   6.354   5.868   4.619  0.6486 -1.4238  1.7998
14122TIP3   OH263856   6.278   3.037   3.695 -0.3519  0.6682 -0.0872
14122TIP3    H163857   6.255   3.124   3.730 -0.8617 -0.2362  1.8766
14122TIP3    H263858   6.302   2.986   3.772  0.4844 -0.7840 -1.3025
14123TIP3   OH263859   0.946   0.390   5.063  0.3185  0.0385 -0.2162
14123TIP3    H163860   0.940   0.296   5.045 -1.9411 -0.1073  1.1346
14123TIP3    H263861   0.940   0.397   5.158  1.2832  1.5197 -0.2518
14124TIP3   OH263862   4.331   2.726   1.407 -0.2342  0.8198 -0.3300
14124TIP3    H163863   4.324   2.635   1.436 -0.5397  0.6513 -0.9166
14124TIP3    H263864   4.260   2.736   1.343 -0.2883  1.5068 -0.1653
14125TIP3   OH263865   1.490   3.537   3.251  0.0359  0.1962  0.1602
14125TIP3    H163866   1.450   3.486   3.321 -1.3823  3.1565  1.6075
14125TIP3    H263867   1.440   3.513   3.173  0.3081 -1.6423  0.5460
14126TIP3   OH263868   5.520   5.066  13.395 -0.1931 -0.6897 -0.2394
14126TIP3    H163869   5.508   5.160  13.410 -0.2644 -0.7723  0.2284
14126TIP3    H263870   5.479   5.050  13.310 -0.5803 -0.3773 -0.1133
14127TIP3   OH263871   2.846   1.323   0.297  0.7005 -0.3131 -0.0308
14127TIP3    H163872   2.803   1.239   0.284 -0.3737  0.3566 -0.8557
14127TIP3    H263873   2.876   1.321   0.388 -1.6201 -0.5393  0.7500
14128TIP3   OH263874   4.620   4.562  15.148 -0.3367 -0.1364 -0.3216
14128TIP3    H163875   4.588   4.537  15.061 -0.5097 -1.0638  0.0081
14128TIP3    H263876   4.715   4.572  15.137 -0.0103 -2.6159 -0.0790
14129TIP3   OH263877   4.132   6.173   2.598  0.0162 -0.0901  0.1927
14129TIP3    H163878   4.145   6.096   2.542 -0.8952 -0.4245  0.4352
14129TIP3    H263879   4.081   6.140   2.672  1.2283  0.3444  1.2446
14130TIP3   OH263880   0.474   0.062  15.018  0.3212 -0.0610  0.0515
14130TIP3    H163881   0.391   0.025  14.989  1.0117  0.0706 -2.2016
14130TIP3    H263882   0.461   0.080  15.111 -1.3803 -2.1777  0.2625
14131TIP3   OH263883   1.641   1.933   1.786  0.5824  0.3050  0.2177
14131TIP3    H163884   1.604   2.016   1.757 -0.4847 -0.1365  0.2887
14131TIP3    H263885   1.628   1.932   1.880 -1.1176 -0.7470 -0.0005
14132TIP3   OH263886   2.451   5.743  14.056  0.2458 -0.0357  0.8067
14132TIP3    H163887   2.464   5.818  14.114  0.5585  0.5105  0.0435
14132TIP3    H263888   2.416   5.781  13.975  0.3259 -0.7263  0.4440
14133TIP3   OH263889   0.595   6.383  13.275 -0.5799  0.2914  0.3600
14133TIP3    H163890   0.582   6.294  13.241  0.0666  0.4040 -0.1974
14133TIP3    H263891   0.585   6.374  13.369 -0.3887 -0.4044  0.3173
14134TIP3   OH263892   0.189   1.195  12.306  0.6444 -0.4115  0.9029
14134TIP3    H163893   0.202   1.144  12.226  0.1988 -1.7215  1.6488
14134TIP3    H263894   0.153   1.132  12.369 -0.5840  0.9912  1.6258
14135TIP3   OH263895   2.454   2.529   4.489  0.5931  0.3222  0.6366
14135TIP3    H163896   2.450   2.481   4.571  1.3675  3.3667  2.5099
14135TIP3    H263897   2.543   2.514   4.456 -0.1837 -2.1528 -0.5206
14136TIP3   OH263898   2.661   1.490   1.658  0.3472 -0.3968 -0.4796
14136TIP3    H163899   2.568   1.511   1.668  0.6374  0.1301  1.2362
14136TIP3    H263900   2.697   1.563   1.607  0.3505  0.7769  1.1744
14137TIP3   OH263901   1.953   2.082   2.197  0.5089  0.2079  0.0829
14137TIP3    H163902   1.925   2.153   2.255 -2.3945  0.0859 -1.0873
14137TIP3    H263903   1.961   2.123   2.111  2.5539 -0.0999  0.1115
14138TIP3   OH263904   1.045   1.469   2.133 -0.1422  0.5852  0.4845
14138TIP3    H163905   1.066   1.382   2.099 -1.6803 -0.0107  1.0071
14138TIP3    H263906   0.950   1.468   2.145  0.0470  1.6731  2.2870
14139TIP3   OH263907   6.261   5.614   4.307 -0.5343 -0.0455  0.1674
14139TIP3    H163908   6.206   5.537   4.315  0.1085 -0.7146 -1.5912
14139TIP3    H263909   6.242   5.666   4.385 -3.7496 -0.2071 -0.4577
14140TIP3   OH263910   6.797   5.957   4.495 -0.4307  0.3849  0.1963
14140TIP3    H163911   6.709   5.969   4.531 -0.4181 -0.6482  0.6078
14140TIP3    H263912   6.810   6.030   4.435 -1.3586  0.8425  0.5538
14141TIP3   OH263913   1.658   5.095   2.720 -0.1038 -0.0460  0.0738
14141TIP3    H163914   1.587   5.043   2.683 -0.2359  0.9094 -1.0384
14141TIP3    H263915   1.620   5.135   2.798 -0.8038  0.4808 -0.5311
14142TIP3   OH263916   0.975   1.853  14.114  0.2321 -0.2638  0.2252
14142TIP3    H163917   1.064   1.822  14.130  0.3782 -0.4423 -0.9095
14142TIP3    H263918   0.985   1.920  14.046 -0.5295 -0.4543 -0.0768
14143TIP3   OH263919   2.849   0.064   2.492  0.0946  0.3605 -0.4480
14143TIP3    H163920   2.798   0.061   2.572  0.4632 -0.1489 -0.2335
14143TIP3    H263921   2.784   0.079   2.423 -0.0136  2.9005  0.1463
14144TIP3   OH263922   5.022   6.744  11.281  0.2338  0.3204 -0.0189
14144TIP3    H163923   4.953   6.711  11.224  2.7674  0.8890 -3.5483
14144TIP3    H263924   4.979   6.811  11.334 -2.4136 -0.9519 -0.4922
14145TIP3   OH263925   2.816   6.585  12.464 -0.1915  0.4643  0.5823
14145TIP3    H163926   2.804   6.671  12.421 -0.6139  0.3466  0.4574
14145TIP3    H263927   2.786   6.522  12.398 -0.7910  0.2775  1.0311
14146TIP3   OH263928   1.976   1.351  16.137  0.6538  0.4428 -0.1888
14146TIP3    H163929   1.949   1.399  16.059 -0.4803  1.1549  0.6193
14146TIP3    H263930   2.006   1.419  16.197  0.7034 -0.0165  0.3095
14147TIP3   OH263931   3.998   3.880  14.973  0.0202  0.0660 -0.3000
14147TIP3    H163932   4.018   3.788  14.956 -2.3310 -0.2625 -1.3548
14147TIP3    H263933   3.937   3.879  15.047  0.1817  0.8134 -0.1461
14148TIP3   OH263934   0.883   3.787   0.868  0.5021 -0.4901 -0.0044
14148TIP3    H163935   0.925   3.838   0.937  0.8353 -1.0891  0.2413
14148TIP3    H263936   0.797   3.764   0.903  0.5046 -0.4296  0.0410
14149TIP3   OH263937   4.937   0.176   2.371  0.5713 -0.0630  0.4746
14149TIP3    H163938   4.939   0.235   2.296  0.0356 -1.1925 -0.4276
14149TIP3    H263939   4.999   0.107   2.350 -0.8145 -1.2895  0.3118
14150TIP3   OH263940   3.228   3.904  15.698  0.2871  0.4139  0.5642
14150TIP3    H163941   3.323   3.913  15.710  0.5380 -1.1145 -0.1945
14150TIP3    H263942   3.192   3.925  15.784  1.5856 -2.7504  1.9742
14151TIP3   OH263943   3.299   4.872  15.195 -0.1750 -0.0935  0.0172
14151TIP3    H163944   3.292   4.853  15.289  1.1488  3.3724  0.9127
14151TIP3    H263945   3.226   4.932  15.178 -0.5786 -0.9284 -1.2655
14152TIP3   OH263946   0.630   3.862   0.255 -0.2149  0.6343 -0.7060
14152TIP3    H163947   0.555   3.916   0.277  1.2844  2.0215  1.1567
14152TIP3    H263948   0.673   3.908   0.184 -1.0051 -0.0675 -1.6512
14153TIP3   OH263949   4.917   5.891   3.575  0.1486  0.8012  0.4128
14153TIP3    H163950   4.975   5.958   3.612 -0.3909  0.5840  1.6647
14153TIP3    H263951   4.976   5.822   3.545  0.5195  0.1080  2.6238
14154TIP3   OH263952   6.539   2.418   1.602 -0.0209 -0.3998 -0.2206
14154TIP3    H163953   6.525   2.331   1.638 -1.3368 -0.6545 -1.2818
14154TIP3    H263954   6.596   2.404   1.526  0.2224 -0.2728 -0.0597
14155TIP3   OH263955   2.393   0.996   2.996 -0.0391  0.2466  0.1045
14155TIP3    H163956   2.329   1.059   3.031  0.3675 -0.1901  1.6588
14155TIP3    H263957   2.347   0.912   2.999  0.2138  0.1116  0.1681
14156TIP3   OH263958   2.338   3.712  12.312  0.3153 -0.0486 -0.1834
14156TIP3    H163959   2.260   3.759  12.284  0.4647 -0.6218 -1.5764
14156TIP3    H263960   2.315   3.678  12.399 -1.5839 -1.5728 -1.2391
14157TIP3   OH263961   4.622   6.019  16.808  0.3994 -0.2975 -0.3753
14157TIP3    H163962   4.538   5.987  16.841  0.9598 -0.2150  1.2076
14157TIP3    H263963   4.652   5.950  16.748 -0.2585 -0.8675 -0.0596
14158TIP3   OH263964   5.844   0.275   2.424  0.2797  0.1702  0.0610
14158TIP3    H163965   5.779   0.255   2.357  1.7588  0.6896 -1.5742
14158TIP3    H263966   5.872   0.189   2.457 -0.9670 -0.0631  0.5072
14159TIP3   OH263967   1.381   5.519  16.937  0.2655  0.6441  0.0364
14159TIP3    H163968   1.390   5.428  16.909  0.2296  1.1813 -1.7270
14159TIP3    H263969   1.305   5.518  16.995  0.6238 -0.5474  0.5164
14160TIP3   OH263970   4.609   5.828  10.550  0.3501 -0.0341 -0.3963
14160TIP3    H163971   4.669   5.861  10.617  0.3561 -2.4754  0.8854
14160TIP3    H263972   4.667   5.790  10.484  0.3285  1.8632 -1.5122
14161TIP3   OH263973   5.745   3.550   3.262  0.3588  0.2455 -0.0387
14161TIP3    H163974   5.773   3.461   3.281  0.0161  0.2885  0.7087
14161TIP3    H263975   5.681   3.541   3.192  0.5397 -0.0709 -0.1623
14162TIP3   OH263976   2.806   4.400   1.592  0.6705 -0.0198 -0.4936
14162TIP3    H163977   2.726   4.425   1.545  0.7759 -0.7797 -1.0983
14162TIP3    H263978   2.828   4.477   1.644 -0.0755  0.4426 -0.8428
14163TIP3   OH263979   3.442   3.689  13.894 -0.4453  0.1301 -0.0043
14163TIP3    H163980   3.456   3.779  13.924  1.4399 -0.0297 -0.3599
14163TIP3    H263981   3.489   3.635  13.958  1.6953 -0.3460 -1.8978
14164TIP3   OH263982   5.150   6.713   0.703 -0.0861 -0.2302  0.1126
14164TIP3    H163983   5.238   6.734   0.670 -0.0644 -0.8707 -0.2527
14164TIP3    H263984   5.126   6.788   0.756  0.0030  0.6861 -1.1290
14165TIP3   OH263985   2.735   5.918  12.926  0.0576 -0.5051 -0.2904
14165TIP3    H163986   2.749   5.952  13.015 -0.5128  3.5268 -1.6476
14165TIP3    H263987   2.823   5.907  12.891  0.2765 -1.7303  0.5930
14166TIP3   OH263988   3.193   6.298   4.053 -0.5968 -0.0374 -0.1527
14166TIP3    H163989   3.243   6.302   4.135 -0.0223 -0.1985 -0.4891
14166TIP3    H263990   3.250   6.250   3.993 -1.0075  0.1023 -0.6548
14167TIP3   OH263991   5.743   2.472  16.985  0.4343  0.6291  0.4342
14167TIP3    H163992   5.697   2.397  16.947  2.1206 -0.3389  0.2670
14167TIP3    H263993   5.800   2.435  17.053  2.7301  1.4839 -0.9473
14168TIP3   OH263994   3.521   3.292   2.347  0.2326  0.2673 -0.2728
14168TIP3    H163995   3.547   3.260   2.434  0.8817 -0.3888 -0.7055
14168TIP3    H263996   3.534   3.217   2.289 -2.4696 -0.0558 -0.5338
14169TIP3   OH263997   3.140   6.652   1.445 -0.1309 -0.3804  0.2916
14169TIP3    H163998   3.207   6.587   1.466 -0.5232 -1.0542 -0.5176
14169TIP3    H263999   3.166   6.686   1.359 -1.5086 -1.5521 -0.6051
14170TIP3   OH264000   3.175   1.450   1.749 -0.3414 -0.1760  0.4287
14170TIP3    H164001   3.205   1.447   1.839 -0.0854 -2.0490  0.2823
14170TIP3    H264002   3.081   1.432   1.754 -0.3071 -0.3904  0.3097
14171TIP3   OH264003   3.382   1.108   3.928 -0.4321 -0.5685  0.1752
14171TIP3    H164004   3.325   1.124   4.003  3.4177 -0.5503  3.2003
14171TIP3    H264005   3.391   1.193   3.885 -1.7904 -0.3625  0.2776
14172TIP3   OH264006   4.512   0.318   4.043 -0.0115  0.5076 -0.2069
14172TIP3    H164007   4.598   0.356   4.062  0.5251 -1.4014  1.4274
14172TIP3    H264008   4.465   0.386   3.996  1.5906  2.4540  0.9292
14173TIP3   OH264009   3.080   2.044  15.910 -0.2461 -0.2189  0.0293
14173TIP3    H164010   3.126   2.065  15.829 -0.1484 -1.7144 -0.3116
14173TIP3    H264011   2.988   2.034  15.884 -0.6289  1.6573  0.5247
14174TIP3   OH264012   5.766   6.758   6.539 -0.1619  0.1624  0.3040
14174TIP3    H164013   5.839   6.727   6.486  0.4705  0.3266  1.0843
14174TIP3    H264014   5.689   6.745   6.483  0.4332 -0.1993 -0.4359
14175TIP3   OH264015   6.316   0.581  16.549 -0.3312  0.1777 -0.6272
14175TIP3    H164016   6.248   0.647  16.534 -0.1189  0.9182  1.5643
14175TIP3    H264017   6.268   0.498  16.553 -1.4592  0.9496  3.3477
14176TIP3   OH264018   6.473   3.708  13.632 -0.8508 -0.2430  0.0619
14176TIP3    H164019   6.477   3.779  13.567 -3.1065  0.3419  0.5194
14176TIP3    H264020   6.388   3.719  13.674  0.6771 -0.3860  3.3908
14177TIP3   OH264021   2.373   1.815   1.840  0.0919 -0.0367  0.8627
14177TIP3    H164022   2.302   1.814   1.776  1.1240  1.2150 -0.3401
14177TIP3    H264023   2.403   1.724   1.845 -2.0012 -0.6932  1.8731
14178TIP3   OH264024   5.814   2.665   1.964  0.0735  0.1308 -0.0682
14178TIP3    H164025   5.900   2.705   1.958  0.2774 -0.2486  0.3015
14178TIP3    H264026   5.762   2.726   2.017  0.2809  0.0768  0.1959
14179TIP3   OH264027   6.115   5.112  12.043 -0.5196  0.4546 -0.5738
14179TIP3    H164028   6.193   5.062  12.018  0.5273  2.9941 -2.5662
14179TIP3    H264029   6.059   5.109  11.966 -0.6239  1.9524 -0.5720
14180TIP3   OH264030   4.375   1.627   2.358  0.2697 -0.0517  0.0371
14180TIP3    H164031   4.439   1.652   2.424 -1.6004  2.9233  0.8194
14180TIP3    H264032   4.406   1.669   2.277  0.8447 -1.0610 -0.2829
14181TIP3   OH264033   2.010   2.888  16.002 -0.2428  0.1925 -0.8703
14181TIP3    H164034   1.934   2.891  16.059  0.1106  0.8703 -0.4306
14181TIP3    H264035   2.067   2.821  16.040  1.8150  3.3836  1.9056
14182TIP3   OH264036   4.177   4.082   6.840 -0.1185  0.0023 -0.2258
14182TIP3    H164037   4.101   4.042   6.881 -0.8473  1.8006  0.2362
14182TIP3    H264038   4.143   4.162   6.800  1.2652  0.0952 -1.2432
14183TIP3   OH264039   4.323   4.168   3.453  0.1270 -0.1883  0.1126
14183TIP3    H164040   4.329   4.109   3.377 -1.1793  1.8621 -1.6393
14183TIP3    H264041   4.247   4.223   3.435 -0.7773 -0.2550  3.3940
14184TIP3   OH264042   0.542   0.916  11.881 -0.5364  0.1271  0.2729
14184TIP3    H164043   0.516   0.994  11.832 -0.0996  0.1332  0.0467
14184TIP3    H264044   0.565   0.852  11.814 -0.1377  0.0664  0.4678
14185TIP3   OH264045   6.390   0.874  15.934  0.0756  0.1323  0.1896
14185TIP3    H164046   6.341   0.852  16.013 -0.3606  1.5771  0.3398
14185TIP3    H264047   6.334   0.936  15.888 -0.0873 -1.3913 -1.7236
14186TIP3   OH264048   4.503   1.650   3.186 -0.0459 -0.7564  0.0888
14186TIP3    H164049   4.471   1.583   3.125  0.0012 -1.2871  0.6459
14186TIP3    H264050   4.437   1.719   3.183  0.0495 -0.6938 -0.7082
14187TIP3   OH264051   1.852   0.427  11.504 -0.1795 -0.2467 -0.0616
14187TIP3    H164052   1.777   0.448  11.559 -1.3110 -0.3840 -1.5335
14187TIP3    H264053   1.883   0.343  11.537 -1.9391 -1.1838 -0.7420
14188TIP3   OH264054   6.369   6.680  12.064 -0.1791  0.0286 -0.6236
14188TIP3    H164055   6.446   6.734  12.045  1.1667 -1.6577 -0.0671
14188TIP3    H264056   6.363   6.620  11.990  0.5978 -1.5747  0.6109
14189TIP3   OH264057   2.342   3.376   4.851 -0.1147 -0.4129 -0.1724
14189TIP3    H164058   2.335   3.468   4.825  1.6224 -0.4117 -0.6776
14189TIP3    H264059   2.290   3.329   4.786 -0.6465  0.1701 -0.1714
14190TIP3   OH264060   5.395   5.529   6.043 -0.2216  0.4921 -0.2227
14190TIP3    H164061   5.440   5.491   6.118 -0.7055 -1.0337 -0.6836
14190TIP3    H264062   5.379   5.620   6.067  2.2424  0.8108  0.3446
14191TIP3   OH264063   2.889   5.755  15.468  0.6092  0.2690 -0.6048
14191TIP3    H164064   2.824   5.791  15.528  0.7936  0.0265 -0.2545
14191TIP3    H264065   2.841   5.735  15.388  0.1305 -0.5054 -0.1221
14192TIP3   OH264066   3.779   6.479  12.001 -0.0299 -0.5063 -0.7736
14192TIP3    H164067   3.827   6.434  11.931  0.0232  0.4546 -1.3572
14192TIP3    H264068   3.738   6.408  12.050  1.7562 -1.3397 -0.4295
14193TIP3   OH264069   5.664   3.655  13.822 -0.1661  0.2952  0.0910
14193TIP3    H164070   5.642   3.617  13.908  0.3587  2.0301  1.0189
14193TIP3    H264071   5.580   3.662  13.777 -0.3812 -1.1249  0.2442
14194TIP3   OH264072   6.150   0.652   1.462  0.7060  0.0881 -0.8035
14194TIP3    H164073   6.194   0.685   1.384  1.4115  0.8086 -0.1097
14194TIP3    H264074   6.144   0.728   1.520  0.6617 -0.5674  0.0567
14195TIP3   OH264075   3.887   1.015  17.152 -0.3153 -1.0411  0.3178
14195TIP3    H164076   3.845   0.977  17.075  1.7261 -3.0826  0.1563
14195TIP3    H264077   3.932   1.092  17.117  2.1741 -2.9943 -0.9936
14196TIP3   OH264078   2.557   3.632  12.767 -0.1653  0.0634 -0.3213
14196TIP3    H164079   2.468   3.618  12.798 -0.7441  2.0213 -1.0031
14196TIP3    H264080   2.610   3.567  12.814 -1.7951 -0.4841  0.7975
14197TIP3   OH264081   6.602   0.167  16.382  0.1261 -0.3046  0.3875
14197TIP3    H164082   6.694   0.190  16.392 -0.0863  0.1307  1.4491
14197TIP3    H264083   6.562   0.190  16.466 -0.9316 -0.5697 -0.0272
14198TIP3   OH264084   0.405   1.515   5.773  0.6354  0.6974 -0.3357
14198TIP3    H164085   0.420   1.441   5.832 -0.0914  1.1480  0.4235
14198TIP3    H264086   0.317   1.502   5.738  0.9266  0.6226 -1.0580
14199TIP3   OH264087   2.546   2.417  12.211 -0.0614  0.6413 -0.2559
14199TIP3    H164088   2.541   2.504  12.171 -0.3500 -0.1126 -1.8746
14199TIP3    H264089   2.563   2.358  12.139  2.7526 -0.3906  1.1818
14200TIP3   OH264090   5.138   5.177  14.779 -0.0542 -0.0709 -0.4545
14200TIP3    H164091   5.091   5.131  14.710 -1.2719 -0.7447  0.7974
14200TIP3    H264092   5.071   5.200  14.843  1.1758 -0.2043  0.9159
14201TIP3   OH264093   3.170   1.715   2.047  0.0919  0.1643  0.3820
14201TIP3    H164094   3.210   1.634   2.015 -1.8249 -1.1604  1.2460
14201TIP3    H264095   3.157   1.769   1.969 -1.6492 -1.7354 -0.6825
14202TIP3   OH264096   1.744   1.676   1.142  0.4347 -0.6846 -0.1198
14202TIP3    H164097   1.699   1.633   1.070  1.4119 -2.2735  0.1971
14202TIP3    H264098   1.704   1.763   1.147  0.6435 -0.3805 -2.8349
14203TIP3   OH264099   0.831   0.673   3.523 -0.1216  0.0285  0.1422
14203TIP3    H164100   0.740   0.696   3.541 -0.2082 -0.5789  0.4637
14203TIP3    H264101   0.827   0.588   3.479  0.3090 -0.1417  0.4317
14204TIP3   OH264102   6.141   4.906   1.929 -0.1897 -0.2502  0.1846
14204TIP3    H164103   6.187   4.910   2.013 -0.8527 -0.1489  0.5504
14204TIP3    H264104   6.104   4.994   1.919  0.9664  0.1297 -0.8378
14205TIP3   OH264105   4.726   2.539  13.732 -0.5724  0.1381  0.0645
14205TIP3    H164106   4.686   2.456  13.759 -1.6806  0.7079  0.2290
14205TIP3    H264107   4.755   2.525  13.642  1.7585 -1.3026  1.0080
14206TIP3   OH264108   6.606   6.168   1.018  0.2204 -0.4770 -0.5145
14206TIP3    H164109   6.595   6.209   0.932  0.6689 -0.9230 -0.7909
14206TIP3    H264110   6.517   6.155   1.050  0.0810  2.3547  0.3721
14207TIP3   OH264111   3.323   5.916   2.517 -0.8433  0.3354  0.7850
14207TIP3    H164112   3.230   5.940   2.515 -0.8644  0.3198  1.5171
14207TIP3    H264113   3.368   5.990   2.476 -1.0476  0.9429  1.6642
14208TIP3   OH264114   1.686   6.609   3.212 -0.0914 -0.7664 -0.1003
14208TIP3    H164115   1.717   6.520   3.226 -2.0487 -1.3407  0.7522
14208TIP3    H264116   1.601   6.599   3.169 -0.1763  0.6921 -0.3244
14209TIP3   OH264117   0.748   0.721   0.539  0.0203  0.4576 -0.1365
14209TIP3    H164118   0.815   0.771   0.493 -0.1078 -0.5764 -1.4814
14209TIP3    H264119   0.721   0.654   0.476 -0.1842 -0.9772  1.4475
14210TIP3   OH264120   5.873   2.263   3.932 -0.3743 -0.0486 -0.7299
14210TIP3    H164121   5.796   2.226   3.890  0.9372 -2.2876 -1.2202
14210TIP3    H264122   5.871   2.229   4.021 -1.5421  2.3281  0.2129
14211TIP3   OH264123   4.555   2.507  15.766  0.0988  0.3966  0.3312
14211TIP3    H164124   4.484   2.448  15.792 -0.5349  1.4871  1.1291
14211TIP3    H264125   4.512   2.591  15.750  1.1145  0.8894  0.1328
14212TIP3   OH264126   3.763   6.084   0.922  0.2136  0.5650  0.3683
14212TIP3    H164127   3.722   6.081   1.009  1.7447 -1.8466  1.0300
14212TIP3    H264128   3.855   6.104   0.939  0.6741 -0.6484 -0.6242
14213TIP3   OH264129   3.828   2.228   0.359  0.1433 -0.1136 -0.6702
14213TIP3    H164130   3.759   2.174   0.396  0.2297  0.8553  0.9741
14213TIP3    H264131   3.899   2.223   0.423  1.3468 -0.5557 -2.0149
14214TIP3   OH264132   3.462   3.702   2.946  0.4238  0.7307 -0.1923
14214TIP3    H164133   3.543   3.718   2.994  0.5177  1.6276 -0.6423
14214TIP3    H264134   3.488   3.647   2.873  0.3601 -0.2497  0.5091
14215TIP3   OH264135   4.279   2.324  11.124  0.2191 -0.2423  0.1187
14215TIP3    H164136   4.240   2.245  11.088  3.2772 -1.2145 -1.2633
14215TIP3    H264137   4.246   2.395  11.068 -0.3744 -0.8765 -0.3413
14216TIP3   OH264138   5.706   0.058  14.962  0.1287  0.9279  0.1100
14216TIP3    H164139   5.693   0.001  14.886 -1.2471  2.5761 -0.9349
14216TIP3    H264140   5.793   0.096  14.949 -0.0653  1.1330 -0.6093
14217TIP3   OH264141   4.121   2.330   5.145 -0.2094 -0.1613 -0.0776
14217TIP3    H164142   4.035   2.368   5.127 -0.1427 -0.4929 -1.0934
14217TIP3    H264143   4.181   2.405   5.142 -0.2581 -0.1532 -0.7965
14218TIP3   OH264144   6.446   1.544  15.889  0.5180 -0.1518  0.4516
14218TIP3    H164145   6.406   1.469  15.933 -0.7596  0.4584  0.3404
14218TIP3    H264146   6.409   1.542  15.800  1.7561 -0.3622 -0.0710
14219TIP3   OH264147   4.114   3.394   3.286 -0.1314 -0.2874 -1.0202
14219TIP3    H164148   4.200   3.361   3.311  0.0506 -0.7808 -2.2707
14219TIP3    H264149   4.132   3.475   3.238 -0.5874  1.7958  2.2344
14220TIP3   OH264150   0.196   0.555  16.122  0.3314 -0.0275  0.0429
14220TIP3    H164151   0.129   0.498  16.083 -0.4074  0.7614  0.1324
14220TIP3    H264152   0.163   0.643  16.109  1.2508  0.3634  0.3078
14221TIP3   OH264153   2.188   4.301  14.268  0.0945 -0.0362 -0.1178
14221TIP3    H164154   2.257   4.238  14.247  1.8851 -0.1155  5.4130
14221TIP3    H264155   2.111   4.247  14.286  0.1846 -0.3145 -0.5690
14222TIP3   OH264156   2.456   6.786  11.324  0.1064 -0.3785  0.5378
14222TIP3    H164157   2.363   6.768  11.309 -0.4436  2.1204  0.6516
14222TIP3    H264158   2.476   6.744  11.407 -0.8051 -1.3261  0.2875
14223TIP3   OH264159   4.505   2.606  17.077 -0.2670 -0.1375 -0.0715
14223TIP3    H164160   4.547   2.569  17.155  2.5371  1.3255 -0.8122
14223TIP3    H264161   4.427   2.650  17.110  0.5854 -0.0178  1.8675
14224TIP3   OH264162   4.925   2.824   4.022  0.4406  0.0278 -0.5309
14224TIP3    H164163   5.001   2.875   4.049 -1.5084  3.0057 -0.4672
14224TIP3    H264164   4.858   2.842   4.089 -0.8407 -1.2867 -1.4175
14225TIP3   OH264165   3.683   5.892   5.979  0.4721  0.1557 -0.6028
14225TIP3    H164166   3.645   5.841   5.908  2.2174 -0.9258 -0.7789
14225TIP3    H264167   3.617   5.888   6.049  0.2903 -1.7516 -0.8648
14226TIP3   OH264168   1.465   4.630  13.903 -0.3295 -0.0290  0.3540
14226TIP3    H164169   1.523   4.599  13.834 -1.0515  0.6096 -0.5450
14226TIP3    H264170   1.389   4.665  13.857 -1.2325 -0.4530  1.5040
14227TIP3   OH264171   1.860   1.289  11.469  0.0170 -0.2977  0.0882
14227TIP3    H164172   1.841   1.205  11.428 -1.9182  0.5289 -0.7612
14227TIP3    H264173   1.950   1.309  11.443 -0.2578 -1.0745 -1.5095
14228TIP3   OH264174   0.200   0.052  13.455  0.3744 -0.0900  0.1247
14228TIP3    H164175   0.259   0.061  13.529 -0.6066 -0.4117  0.9574
14228TIP3    H264176   0.174   0.142  13.433  1.4964  0.0856 -0.5261
14229TIP3   OH264177   4.907   5.611  11.875 -0.0694  0.0908  0.2465
14229TIP3    H164178   4.900   5.585  11.967 -0.4207  0.1006  0.2216
14229TIP3    H264179   4.987   5.569  11.844 -0.7281 -1.1064  0.1538
14230TIP3   OH264180   2.092   3.942  10.953  0.1893  0.7838  0.0288
14230TIP3    H164181   2.025   3.990  10.903  1.7830  2.8147 -0.2314
14230TIP3    H264182   2.145   3.899  10.887  0.4661  0.9755  0.1267
14231TIP3   OH264183   0.599   0.958   2.123  0.1760  0.0832  0.0155
14231TIP3    H164184   0.684   0.963   2.078 -0.7624 -1.0488 -1.9752
14231TIP3    H264185   0.596   0.869   2.157  0.1712  0.4130  0.8767
14232TIP3   OH264186   4.625   3.823  14.921 -0.4294 -0.0841 -0.3580
14232TIP3    H164187   4.540   3.850  14.887 -0.0487  0.7121 -0.7248
14232TIP3    H264188   4.612   3.809  15.014 -0.9698 -0.0001 -0.4223
14233TIP3   OH264189   6.338   6.598  13.373  0.2313 -0.1410  0.2272
14233TIP3    H164190   6.326   6.605  13.468 -4.8110 -1.2595 -0.2092
14233TIP3    H264191   6.350   6.689  13.345 -1.5720  0.5776  1.6295
14234TIP3   OH264192   2.528   0.427   4.104  0.0838  0.1151 -0.1022
14234TIP3    H164193   2.557   0.348   4.058  2.6079  0.7782  0.2576
14234TIP3    H264194   2.498   0.396   4.189 -2.2007 -0.8182 -1.1978
14235TIP3   OH264195   2.995   5.377   4.271  0.5226  0.2717  1.1024
14235TIP3    H164196   2.998   5.436   4.196  0.7863  0.1898  1.0504
14235TIP3    H264197   3.043   5.422   4.340  3.1137 -1.0787  0.2265
14236TIP3   OH264198   4.105   0.977   4.255 -0.7542  0.2501 -0.5894
14236TIP3    H164199   4.045   1.034   4.303  1.6651  3.6323 -1.3760
14236TIP3    H264200   4.071   0.975   4.166 -0.1124  1.6324 -0.8813
14237TIP3   OH264201   3.759   0.272   5.124 -0.1965  0.4800  0.3853
14237TIP3    H164202   3.752   0.179   5.143  0.9499 -0.1028 -1.8259
14237TIP3    H264203   3.675   0.295   5.083 -0.1939  0.2424  0.2491
14238TIP3   OH264204   0.572   4.019   2.381 -0.0941 -0.8909  0.0444
14238TIP3    H164205   0.630   4.093   2.401 -2.4459  1.5112 -1.6639
14238TIP3    H264206   0.618   3.971   2.312  0.1382  0.7003 -0.9417
14239TIP3   OH264207   1.461   0.613   5.210 -0.6440 -0.3752  0.0490
14239TIP3    H164208   1.536   0.664   5.241 -0.7089 -0.3907  0.2353
14239TIP3    H264209   1.446   0.644   5.121  0.0567 -0.9157 -0.2565
14240TIP3   OH264210   5.977   5.421  11.819  0.2092  0.3023  0.2507
14240TIP3    H164211   6.053   5.391  11.770  0.5095  0.7878  0.4224
14240TIP3    H264212   5.914   5.349  11.813  0.3272  0.2697 -0.6699
14241TIP3   OH264213   3.019   4.705  15.856 -0.2388  0.5262  0.0749
14241TIP3    H164214   2.926   4.710  15.880  0.2242  0.0405  2.0360
14241TIP3    H264215   3.055   4.638  15.913  1.5465  1.4626  0.0825
14242TIP3   OH264216   5.287   3.056  12.955  0.2295  0.1635  0.4167
14242TIP3    H164217   5.308   3.114  12.882  1.5632 -0.7308  0.0869
14242TIP3    H264218   5.368   3.048  13.004 -0.6178  0.6240  1.9252
14243TIP3   OH264219   2.781   1.471  15.714  0.4595 -0.0922 -0.4689
14243TIP3    H164220   2.796   1.378  15.694  0.6272 -0.0629 -0.4795
14243TIP3    H264221   2.687   1.476  15.732  0.1410  0.0227 -2.0829
14244TIP3   OH264222   4.374   2.170   2.967 -0.0159 -0.0370 -0.6090
14244TIP3    H164223   4.299   2.120   2.936 -0.6375  0.5969 -0.1643
14244TIP3    H264224   4.430   2.181   2.890  0.2003 -1.5191 -0.6698
14245TIP3   OH264225   3.060   6.048   5.116  0.3627  0.4294  0.2164
14245TIP3    H164226   3.093   6.100   5.042 -0.9457  1.6767  0.4703
14245TIP3    H264227   3.107   6.082   5.192  0.9853 -0.1599  0.0909
14246TIP3   OH264228   0.485   2.664  10.902 -0.1947 -0.1607 -1.0626
14246TIP3    H164229   0.558   2.618  10.860  2.0287  2.2912  0.0107
14246TIP3    H264230   0.448   2.599  10.962  2.4600 -0.8238 -0.0332
14247TIP3   OH264231   5.353   4.837   1.959 -0.1614  0.1960  0.7013
14247TIP3    H164232   5.364   4.896   1.884 -0.4449  1.3912  1.5980
14247TIP3    H264233   5.404   4.878   2.029 -0.0730 -0.8134  1.2294
14248TIP3   OH264234   1.534   5.087   2.373  0.2684  0.4277 -0.2708
14248TIP3    H164235   1.574   5.117   2.292 -1.8035  1.3860 -0.9781
14248TIP3    H264236   1.445   5.121   2.370 -0.3000 -0.7736  1.7215
14249TIP3   OH264237   6.091   2.412  12.042 -0.1017 -0.0105  0.4410
14249TIP3    H164238   6.069   2.401  11.949 -0.9907  1.0046  0.5186
14249TIP3    H264239   6.041   2.344  12.087 -0.1323 -0.1244  0.2355
14250TIP3   OH264240   1.867   2.637  14.785 -0.3679 -0.2861 -0.2282
14250TIP3    H164241   1.912   2.691  14.850  3.1694 -1.6083 -1.4739
14250TIP3    H264242   1.845   2.698  14.714  0.3192  0.2063 -0.0241
14251TIP3   OH264243   5.086   6.745  12.273 -0.1396 -0.1197 -1.0741
14251TIP3    H164244   5.100   6.839  12.257 -1.1450 -0.0167 -1.3689
14251TIP3    H264245   5.152   6.702  12.218  0.9144  0.4333 -0.2570
14252TIP3   OH264246   1.075   3.220  13.648 -0.0468 -0.2149  0.1539
14252TIP3    H164247   1.149   3.234  13.707  0.4747  0.0489 -0.5433
14252TIP3    H264248   1.060   3.306  13.608  0.5548 -0.7050 -1.1586
14253TIP3   OH264249   5.304   4.797  14.661  0.1680 -0.5252 -0.5369
14253TIP3    H164250   5.349   4.712  14.654 -0.5889 -0.8885 -1.0384
14253TIP3    H264251   5.211   4.776  14.658 -0.0260  0.3481 -0.9755
14254TIP3   OH264252   5.824   4.657   6.478 -0.0536  0.2219  0.2226
14254TIP3    H164253   5.888   4.669   6.549 -0.7120 -3.0185  1.4433
14254TIP3    H264254   5.744   4.630   6.522 -1.3363  0.9718 -1.5759
14255TIP3   OH264255   2.381   1.490   2.868  0.5559 -0.6970 -0.4267
14255TIP3    H164256   2.416   1.441   2.942 -0.0037  0.0916  0.3773
14255TIP3    H264257   2.320   1.429   2.825 -0.2512 -0.6630  0.6572
14256TIP3   OH264258   5.315   1.356   4.092  0.1723 -0.6125  0.0547
14256TIP3    H164259   5.343   1.441   4.056  0.3532 -0.6965 -0.0029
14256TIP3    H264260   5.288   1.376   4.182  1.0988 -0.6521  0.3440
14257TIP3   OH264261   2.711   1.323  12.794 -0.1033  0.4312 -0.1051
14257TIP3    H164262   2.644   1.299  12.859  0.4638 -0.5632  0.1260
14257TIP3    H264263   2.665   1.319  12.710 -0.3648 -0.1415  0.0607
14258TIP3   OH264264   2.081   6.185   4.603 -0.3660 -0.0162 -0.0524
14258TIP3    H164265   2.075   6.199   4.697 -1.6220  0.9078 -0.2528
14258TIP3    H264266   2.028   6.106   4.587  0.6834 -0.7765  0.1256
14259TIP3   OH264267   3.970   4.400   4.840 -0.0530 -0.0663 -0.6147
14259TIP3    H164268   4.047   4.437   4.799  1.9436 -0.5584  2.4875
14259TIP3    H264269   3.948   4.324   4.787  2.2978 -0.5636 -0.9319
14260TIP3   OH264270   6.538   3.303  12.374 -0.5596 -0.1487 -0.1003
14260TIP3    H164271   6.632   3.316  12.367 -0.5545 -0.4592 -0.6376
14260TIP3    H264272   6.507   3.379  12.424 -0.0363 -0.0180  0.0310
14261TIP3   OH264273   1.742   0.056   3.123  0.5297 -0.0768 -0.3637
14261TIP3    H164274   1.706  -0.019   3.170  1.6947  0.3914  1.3245
14261TIP3    H264275   1.783   0.018   3.045 -0.1351 -1.0341 -0.2517
14262TIP3   OH264276   0.786   1.346   0.141  0.0865 -0.4546 -0.3360
14262TIP3    H164277   0.722   1.278   0.123 -0.3493 -0.4691  1.2082
14262TIP3    H264278   0.754   1.389   0.220  1.7111 -0.1379  0.1714
14263TIP3   OH264279   4.343   3.089   5.784  0.2507  0.1306  0.3255
14263TIP3    H164280   4.261   3.043   5.768  0.8863 -0.2671 -2.1377
14263TIP3    H264281   4.339   3.166   5.727  2.7043 -1.3594 -2.0373
14264TIP3   OH264282   2.806   4.690   6.373  0.2160  0.5307  0.3963
14264TIP3    H164283   2.824   4.684   6.279  0.0834 -0.8017  0.4478
14264TIP3    H264284   2.723   4.644   6.385  0.9518 -0.5653  1.3690
14265TIP3   OH264285   0.905   2.432   4.310 -0.2482 -0.3283  0.3272
14265TIP3    H164286   0.812   2.444   4.328 -0.8099 -1.9185 -1.3319
14265TIP3    H264287   0.931   2.359   4.367  0.0054  0.2030  0.8874
14266TIP3   OH264288   0.492   3.740  11.667 -0.7117  0.9302 -0.5075
14266TIP3    H164289   0.544   3.714  11.743  0.6654 -0.9361 -2.0201
14266TIP3    H264290   0.406   3.760  11.702 -0.9099 -2.5344  1.2360
14267TIP3   OH264291   0.885   1.891   5.071 -0.1568  0.0629  0.0076
14267TIP3    H164292   0.938   1.839   5.131 -0.2741  1.6032  1.4941
14267TIP3    H264293   0.796   1.856   5.079  0.4746 -2.1892 -2.1073
14268TIP3   OH264294   4.928   0.358   4.782  0.5404 -0.2191 -0.0578
14268TIP3    H164295   4.949   0.285   4.724 -0.6008 -1.5686  1.2016
14268TIP3    H264296   5.011   0.402   4.797  1.0555 -0.5987 -1.7116
14269TIP3   OH264297   5.515   1.367  15.252  0.0355 -0.1340 -0.1445
14269TIP3    H164298   5.559   1.316  15.185 -1.9265 -2.2560  0.1162
14269TIP3    H264299   5.545   1.329  15.335 -0.5199 -0.1036  0.0745
14270TIP3   OH264300   0.244   1.091   2.043  0.0210 -0.2558 -0.6041
14270TIP3    H164301   0.326   1.139   2.035  0.2752  0.0768  2.9848
14270TIP3    H264302   0.258   1.010   1.994  3.0849 -0.9119  1.2525
14271TIP3   OH264303   3.425   6.729  13.576 -0.4124  0.0303  0.1169
14271TIP3    H164304   3.377   6.670  13.517  1.1753 -0.5234 -0.6418
14271TIP3    H264305   3.514   6.731  13.541  0.5733 -0.3268  2.5190
14272TIP3   OH264306   0.920   2.543  16.853  0.7985 -0.5541  0.2822
14272TIP3    H164307   0.949   2.633  16.842 -1.1077  0.0103 -0.3067
14272TIP3    H264308   0.957   2.496  16.778  0.7994 -0.0032 -0.0656
14273TIP3   OH264309   3.479   1.473   2.668  0.2077  0.6296 -0.3902
14273TIP3    H164310   3.483   1.390   2.620  2.6819  0.6878 -0.3491
14273TIP3    H264311   3.396   1.513   2.640 -0.4090 -1.2599 -1.3696
14274TIP3   OH264312   3.460   5.219   5.934  0.4765  0.4357 -0.5966
14274TIP3    H164313   3.419   5.244   6.017 -1.2853 -2.0547 -0.6599
14274TIP3    H264314   3.538   5.170   5.959 -0.4817 -1.0091 -0.3509
14275TIP3   OH264315   0.676   3.602  14.831 -0.0899 -0.0881 -0.3179
14275TIP3    H164316   0.665   3.687  14.874 -1.0974 -0.1889 -0.3790
14275TIP3    H264317   0.587   3.572  14.812  0.1157 -2.2334  1.7849
14276TIP3   OH264318   0.607   6.249   4.078  0.3270  0.6110 -0.3091
14276TIP3    H164319   0.673   6.314   4.055  0.0487  0.8951 -0.2977
14276TIP3    H264320   0.618   6.237   4.173  0.8769  0.0910 -0.4335
14277TIP3   OH264321   0.239   2.209  15.191 -0.0722 -0.0956 -0.5880
14277TIP3    H164322   0.322   2.163  15.202  0.5878  1.0204 -0.8628
14277TIP3    H264323   0.173   2.140  15.197  0.7264 -0.6759  2.0144
14278TIP3   OH264324   1.979   3.743  14.195 -0.0130 -0.5000 -0.0986
14278TIP3    H164325   1.990   3.771  14.286 -1.9630  1.3417 -0.3997
14278TIP3    H264326   2.058   3.774  14.150  0.5587 -0.6651  0.7859
14279TIP3   OH264327   4.149   5.712   4.815  0.0212 -0.2488 -0.1099
14279TIP3    H164328   4.155   5.645   4.748  0.8771 -0.1036 -0.1898
14279TIP3    H264329   4.112   5.667   4.891 -0.5333 -0.5183 -0.5346
14280TIP3   OH264330   2.850   1.599  10.215  0.4830  0.2661  0.1046
14280TIP3    H164331   2.802   1.552  10.148 -0.4784  1.8389 -0.3547
14280TIP3    H264332   2.803   1.580  10.296  1.1691 -0.9908  0.2127
14281TIP3   OH264333   4.815   3.505  14.171 -0.5169  0.1365  0.2689
14281TIP3    H164334   4.830   3.509  14.077 -0.1951  1.3921  0.3639
14281TIP3    H264335   4.851   3.420  14.197  0.1818  0.1488 -0.6127
14282TIP3   OH264336   2.899   3.564  15.863  0.3546  0.0217  0.1015
14282TIP3    H164337   2.934   3.476  15.875 -1.7106 -0.8257  0.1552
14282TIP3    H264338   2.892   3.575  15.768 -0.7894 -0.4604  0.1236
14283TIP3   OH264339   1.752   0.919  13.349  0.0861 -0.2874 -0.5651
14283TIP3    H164340   1.767   0.965  13.431 -1.9080  1.4684 -1.1418
14283TIP3    H264341   1.696   0.844  13.373  0.1143 -0.1931 -0.2117
14284TIP3   OH264342   4.280   3.994   3.225 -0.4303  0.5854 -0.2174
14284TIP3    H164343   4.254   3.912   3.267  1.0710 -0.3366 -1.0364
14284TIP3    H264344   4.207   4.016   3.167 -0.7454 -0.2944 -0.1602
14285TIP3   OH264345   5.477   4.324   0.490 -0.6892  0.4822 -0.2563
14285TIP3    H164346   5.570   4.327   0.516 -0.3152  2.7265 -1.7543
14285TIP3    H264347   5.435   4.388   0.547 -1.2965 -0.2945  0.1835
14286TIP3   OH264348   3.072   6.623  11.610 -0.2719  0.5705  0.0370
14286TIP3    H164349   3.036   6.712  11.613 -1.0567  0.2386  0.4997
14286TIP3    H264350   3.082   6.605  11.516  1.9785  1.9701 -0.0371
14287TIP3   OH264351   3.800   4.815   4.579  0.4927  0.0102  0.7690
14287TIP3    H164352   3.860   4.805   4.653  1.5179 -3.7367 -0.4283
14287TIP3    H264353   3.840   4.763   4.509 -3.0032 -0.7622 -0.7689
14288TIP3   OH264354   4.864   3.068   0.453  0.2817  0.3188 -0.1463
14288TIP3    H164355   4.905   3.125   0.389  1.8686 -2.1440 -1.3948
14288TIP3    H264356   4.778   3.108   0.470  1.5978  3.4223 -0.4018
14289TIP3   OH264357   5.842   0.603   3.524 -0.2471 -0.3615  0.1221
14289TIP3    H164358   5.907   0.647   3.578 -0.7037  1.3406 -0.6906
14289TIP3    H264359   5.758   0.619   3.568 -0.1840 -2.2893  1.0028
14290TIP3   OH264360   2.486   3.276  13.200 -0.6180 -0.4398 -0.4901
14290TIP3    H164361   2.579   3.293  13.214 -0.5978 -0.6569 -0.3483
14290TIP3    H264362   2.471   3.192  13.245 -1.3245  0.6104  1.2987
14291TIP3   OH264363   0.370   4.387  12.010  0.3093 -0.0381 -0.1501
14291TIP3    H164364   0.444   4.331  12.034 -0.5497 -0.8120  0.7742
14291TIP3    H264365   0.329   4.409  12.094 -0.9393 -0.2361 -0.6907
14292TIP3   OH264366   2.210   5.827  11.306 -0.0812  0.2111  0.2443
14292TIP3    H164367   2.262   5.767  11.252  0.2881 -1.1618  2.0655
14292TIP3    H264368   2.266   5.903  11.318  0.1104  0.2309 -0.7220
14293TIP3   OH264369   3.147   1.927   3.932  0.8207  0.3539  0.2793
14293TIP3    H164370   3.156   1.833   3.948  0.3100  0.4021  0.8633
14293TIP3    H264371   3.235   1.955   3.905  1.6137  0.2009  2.6043
14294TIP3   OH264372   4.170   5.010  15.391 -0.0177  0.7167  0.2458
14294TIP3    H164373   4.194   4.919  15.412 -0.1127  0.1646 -1.9185
14294TIP3    H264374   4.077   5.014  15.410  0.2807  0.7748  1.7245
14295TIP3   OH264375   5.972   6.312   2.938 -0.0849 -0.5236  0.3723
14295TIP3    H164376   5.920   6.246   2.985  0.4406 -0.8955  0.4368
14295TIP3    H264377   6.056   6.314   2.984 -0.1892  0.3914  0.5409
14296TIP3   OH264378   5.172   1.121   0.881 -0.3922  0.5236  0.1500
14296TIP3    H164379   5.245   1.097   0.824  0.2876 -1.5050  1.7803
14296TIP3    H264380   5.094   1.102   0.828  0.2148 -1.6962 -0.0001
14297TIP3   OH264381   6.600   1.160   1.826 -0.7042 -0.3187  0.3808
14297TIP3    H164382   6.682   1.111   1.832 -0.5955 -0.1198  0.5657
14297TIP3    H264383   6.596   1.190   1.735 -1.3141 -1.5912 -0.0180
14298TIP3   OH264384   3.081   1.573   4.518  0.2306 -0.6126  0.4378
14298TIP3    H164385   3.039   1.631   4.455  0.8095 -1.0982 -0.4115
14298TIP3    H264386   3.063   1.485   4.485  1.4593 -0.8410  0.3386
14299TIP3   OH264387   1.548   5.811  13.689 -0.2543 -0.2025  0.3901
14299TIP3    H164388   1.623   5.836  13.742  0.7666  0.0966 -1.1568
14299TIP3    H264389   1.560   5.858  13.607 -3.3261  1.6298  0.9119
14300TIP3   OH264390   0.891   5.054  13.008  0.2598  0.0769  0.4101
14300TIP3    H164391   0.869   5.147  13.004 -0.1535 -0.0396  0.0187
14300TIP3    H264392   0.869   5.020  12.921 -1.6087 -0.8414  1.2251
14301TIP3   OH264393   0.874   4.845  14.442 -0.1189  0.2912 -0.1328
14301TIP3    H164394   0.891   4.881  14.529  0.2145  0.4976 -0.2811
14301TIP3    H264395   0.959   4.848  14.398 -0.0912 -0.6508 -0.1631
14302TIP3   OH264396   6.103   5.247  16.732 -0.4583  0.4813  0.2629
14302TIP3    H164397   6.185   5.238  16.781 -0.0887 -0.8983 -0.5721
14302TIP3    H264398   6.122   5.313  16.665 -0.8121  2.0010  1.6373
14303TIP3   OH264399   3.474   4.328  13.981 -0.8897 -0.0378 -0.2956
14303TIP3    H164400   3.379   4.327  13.979 -0.8576 -1.8057 -2.6714
14303TIP3    H264401   3.499   4.381  13.905  0.0015 -3.1974 -2.3033
14304TIP3   OH264402   1.369   1.145  11.374  0.3131 -0.3957 -0.2923
14304TIP3    H164403   1.412   1.061  11.356 -2.2758 -2.3745  2.3275
14304TIP3    H264404   1.337   1.174  11.288  1.4715 -1.9285 -1.2814
14305TIP3   OH264405   4.162   1.692  13.293  0.2736  0.0443 -0.1273
14305TIP3    H164406   4.158   1.764  13.231 -0.4619  0.6299  0.5832
14305TIP3    H264407   4.255   1.672  13.302  0.5496  1.4995  0.3515
14306TIP3   OH264408   2.828   1.331   6.632  0.3227  0.0392 -0.8547
14306TIP3    H164409   2.742   1.372   6.644 -0.1348 -1.1053 -0.1993
14306TIP3    H264410   2.873   1.388   6.569  0.3135  2.5017  1.2752
14307TIP3   OH264411   5.813   4.403  14.606 -0.1469 -0.1230 -0.1726
14307TIP3    H164412   5.818   4.440  14.694  0.8107 -0.0506 -0.2504
14307TIP3    H264413   5.751   4.460  14.559  0.3886  0.6634  0.0592
14308TIP3   OH264414   1.847   5.660   1.562 -0.4776 -0.1984  0.4153
14308TIP3    H164415   1.857   5.637   1.654  0.1293  1.2113  0.7166
14308TIP3    H264416   1.892   5.589   1.515 -0.2161 -0.5813  1.2286
14309TIP3   OH264417   3.886   1.770   3.119  0.4938 -0.4574 -0.4614
14309TIP3    H164418   3.831   1.693   3.104 -1.2779  0.7719 -0.3860
14309TIP3    H264419   3.864   1.799   3.208  0.0799  0.9904 -1.0263
14310TIP3   OH264420   1.986   0.611   3.486 -0.6667  0.2171 -0.6435
14310TIP3    H164421   2.018   0.658   3.564 -1.1305  0.1602 -0.4134
14310TIP3    H264422   2.011   0.667   3.413  1.3571 -0.5980 -0.6003
14311TIP3   OH264423   3.708   5.192  14.686 -0.3003 -0.0368 -0.3660
14311TIP3    H164424   3.732   5.110  14.644 -0.5144 -0.0367 -0.4904
14311TIP3    H264425   3.743   5.260  14.629  0.8029 -0.0454  0.2804
14312TIP3   OH264426   5.643   6.202   2.630 -0.2255 -0.0090  0.4068
14312TIP3    H164427   5.639   6.170   2.539 -2.6506 -3.0691  1.5035
14312TIP3    H264428   5.735   6.191   2.654  0.7517  2.1122 -2.0491
14313TIP3   OH264429   5.243   3.188  14.328 -0.3071 -0.1753 -0.4018
14313TIP3    H164430   5.183   3.154  14.394  0.0562 -0.3134 -0.1457
14313TIP3    H264431   5.329   3.155  14.354  0.6334  3.7148  1.8252
14314TIP3   OH264432   1.907   5.507  12.085  1.0357 -0.2020 -0.1570
14314TIP3    H164433   1.929   5.418  12.114 -1.0059  0.3466  3.4305
14314TIP3    H264434   1.970   5.563  12.129  0.1140  0.3804  0.4469
14315TIP3   OH264435   1.664   6.310  14.610  0.5351  0.1688  0.0274
14315TIP3    H164436   1.728   6.251  14.651 -0.4415 -1.8895 -1.3142
14315TIP3    H264437   1.610   6.342  14.682  0.6998 -1.0881  0.7148
14316TIP3   OH264438   1.025   1.290  15.964  0.2659 -0.5989 -0.6294
14316TIP3    H164439   1.042   1.207  16.008  3.7824  0.6766  0.5875
14316TIP3    H264440   1.111   1.320  15.934 -0.7340  3.1186 -0.1021
14317TIP3   OH264441   1.663   1.975   2.411 -0.9790 -0.1475  0.4329
14317TIP3    H164442   1.589   1.914   2.411 -0.4589 -0.8250  1.7736
14317TIP3    H264443   1.695   1.974   2.321 -1.5260 -1.1900  0.2321
14318TIP3   OH264444   5.090   1.229  12.937  0.1569 -0.1677  0.6295
14318TIP3    H164445   5.028   1.157  12.951  0.6245 -0.4404  1.3257
14318TIP3    H264446   5.076   1.256  12.846 -2.0894  0.8288  1.2548
14319TIP3   OH264447   6.797   6.478   6.015  0.2518 -0.4428 -0.3484
14319TIP3    H164448   6.849   6.419   6.071  0.2017 -0.5774 -0.4448
14319TIP3    H264449   6.835   6.564   6.031  1.0404 -0.6601 -1.0438
14320TIP3   OH264450   4.078   5.288  11.595  0.2480 -0.1069  0.2767
14320TIP3    H164451   4.034   5.311  11.513  1.6457  0.1286 -0.4234
14320TIP3    H264452   4.146   5.355  11.606  0.3604 -0.3908  1.4071
14321TIP3   OH264453   1.824   4.864   1.195 -0.0974  0.5224  0.1344
14321TIP3    H164454   1.770   4.932   1.153  0.6764  1.1148  0.0890
14321TIP3    H264455   1.762   4.795   1.216 -0.2301 -0.7109 -3.8314
14322TIP3   OH264456   0.043   3.489  11.229 -0.7886 -0.5920 -0.1322
14322TIP3    H164457  -0.023   3.513  11.164 -0.9113 -0.2778  0.1029
14322TIP3    H264458   0.104   3.433  11.182 -0.3850  0.3488 -0.7496
14323TIP3   OH264459   2.561   4.651  16.365  0.5016  0.3840 -0.0861
14323TIP3    H164460   2.655   4.665  16.352  0.6672 -1.1207 -0.5954
14323TIP3    H264461   2.556   4.591  16.439 -0.0304 -0.1296 -0.5359
14324TIP3   OH264462   3.786   1.395  15.781 -0.3214 -0.3317 -0.1877
14324TIP3    H164463   3.836   1.357  15.853  0.6658  1.3780  0.0691
14324TIP3    H264464   3.828   1.361  15.702  1.3517  1.1650  0.0243
14325TIP3   OH264465   2.057   1.105  12.056  0.1654 -0.3392  0.2308
14325TIP3    H164466   1.965   1.131  12.062  0.6463  1.0531  2.1729
14325TIP3    H264467   2.090   1.112  12.145  2.0244 -1.3499 -0.3507
14326TIP3   OH264468   3.919   4.234   1.368  0.3513 -0.3435  0.1467
14326TIP3    H164469   3.977   4.283   1.426  1.1980 -1.9284  0.6920
14326TIP3    H264470   3.882   4.165   1.424  0.7062 -1.5156 -1.0339
14327TIP3   OH264471   3.638   6.040   4.455 -0.0567 -0.4138 -0.2832
14327TIP3    H164472   3.599   6.067   4.372 -1.0099  0.2137  0.3695
14327TIP3    H264473   3.607   5.951   4.469  0.0949 -0.5150 -0.5831
14328TIP3   OH264474   5.879   1.635  14.221 -0.1409 -0.4821 -0.3124
14328TIP3    H164475   5.911   1.627  14.311 -0.4386 -2.1091 -0.3303
14328TIP3    H264476   5.784   1.620  14.229 -0.0541 -1.4296 -0.9848
14329TIP3   OH264477   1.460   4.823  12.913  0.1481  0.4238  0.0619
14329TIP3    H164478   1.495   4.745  12.956  0.1861  0.5798  0.3111
14329TIP3    H264479   1.384   4.848  12.966  1.6204  2.0383  1.4482
14330TIP3   OH264480   4.915   3.997  14.340  0.0084  0.2026  0.1516
14330TIP3    H164481   4.876   4.067  14.287 -1.0229 -0.0365  0.5717
14330TIP3    H264482   4.847   3.929  14.342  1.3331 -1.1956 -0.9945
14331TIP3   OH264483   2.215   5.674   4.532 -0.5787  0.0419  0.1363
14331TIP3    H164484   2.215   5.693   4.625 -1.4054 -0.9041  0.3324
14331TIP3    H264485   2.264   5.592   4.523  0.5312  0.7455 -0.4001
14332TIP3   OH264486   6.030   2.341   2.265  0.0249  0.2273 -0.1793
14332TIP3    H164487   5.961   2.352   2.199 -0.8732  0.4906  0.7732
14332TIP3    H264488   6.004   2.263   2.314  0.3256  0.3978  0.2581
14333TIP3   OH264489   1.556   3.489  12.451 -0.5880  0.2575 -0.4648
14333TIP3    H164490   1.556   3.526  12.540  0.0915 -0.4880 -0.1480
14333TIP3    H264491   1.623   3.539  12.405 -0.3901  0.1153 -0.3318
14334TIP3   OH264492   3.843   1.290  12.038 -0.2347 -0.2264  0.3192
14334TIP3    H164493   3.751   1.304  12.016 -0.2509  0.3026  0.7160
14334TIP3    H264494   3.842   1.270  12.132 -0.1301 -2.1219 -0.0532
14335TIP3   OH264495   3.082   6.101   2.509 -0.3534  0.4008 -0.1342
14335TIP3    H164496   3.155   6.163   2.512  2.1512 -2.5135  1.5653
14335TIP3    H264497   3.050   6.099   2.599  0.4181 -1.7032  0.1059
14336TIP3   OH264498   0.737   2.758   6.109  0.4985  0.1483  0.3142
14336TIP3    H164499   0.762   2.751   6.016 -0.3936  0.0519  0.0788
14336TIP3    H264500   0.809   2.716   6.156  0.6014 -0.4714 -0.3862
14337TIP3   OH264501   0.977   4.732   6.519  0.0297 -0.0574  0.2151
14337TIP3    H164502   0.909   4.678   6.560  0.7406  0.0587  1.6005
14337TIP3    H264503   0.969   4.817   6.563 -0.5539  0.7291 -1.3827
14338TIP3   OH264504   3.336   2.157  12.043 -0.0200  0.4417  0.3097
14338TIP3    H164505   3.407   2.163  12.106 -0.0621  1.7949  0.2586
14338TIP3    H264506   3.263   2.119  12.092  0.4760 -0.1306  0.5967
14339TIP3   OH264507   5.291   1.242  11.694  0.4975 -0.1061 -0.0352
14339TIP3    H164508   5.342   1.167  11.725  1.7288  0.7801  0.1566
14339TIP3    H264509   5.300   1.239  11.599  1.5513  0.4599  0.0315
14340TIP3   OH264510   1.907   3.759  16.136  0.0356  0.0421  0.4242
14340TIP3    H164511   1.998   3.733  16.152  0.0482 -0.2108 -0.0291
14340TIP3    H264512   1.891   3.831  16.196  0.5757  0.1623  0.4242
14341TIP3   OH264513   4.386   4.174  11.654 -0.0750 -0.2612 -0.2150
14341TIP3    H164514   4.438   4.252  11.676  0.8718 -0.7254 -0.7925
14341TIP3    H264515   4.351   4.193  11.567 -1.0995  0.1610  0.2786
14342TIP3   OH264516   4.596   2.662   2.638  0.1669 -0.2207  0.2069
14342TIP3    H164517   4.529   2.718   2.676 -0.2254  0.0754 -0.9039
14342TIP3    H264518   4.679   2.695   2.673  0.1746  2.5788 -2.2337
14343TIP3   OH264519   4.722   4.826  16.232 -0.1273  0.5540 -0.5479
14343TIP3    H164520   4.740   4.905  16.284 -0.1262  0.6420 -0.6818
14343TIP3    H264521   4.783   4.832  16.158 -0.4460  0.6606 -0.8011
14344TIP3   OH264522   1.225   3.100   0.190 -0.3280 -0.4424 -0.1180
14344TIP3    H164523   1.166   3.089   0.116  0.4671 -0.0724 -0.8200
14344TIP3    H264524   1.284   3.171   0.164 -0.6413  0.3453  1.2612
14345TIP3   OH264525   6.352   0.439   0.915  0.5434  0.0959 -0.3522
14345TIP3    H164526   6.352   0.483   0.830 -0.9632  2.0121  0.5930
14345TIP3    H264527   6.272   0.385   0.914  0.4409  0.2418 -0.1006
14346TIP3   OH264528   4.659   2.882   4.948 -0.6396 -0.3303 -0.1872
14346TIP3    H164529   4.583   2.937   4.969 -0.3315  0.2402 -0.5317
14346TIP3    H264530   4.717   2.890   5.024  0.3689  1.5433 -1.1267
14347TIP3   OH264531   4.742   6.263   2.811 -0.1529  0.0186  0.2088
14347TIP3    H164532   4.808   6.292   2.874  0.7829  0.8314 -1.1258
14347TIP3    H264533   4.712   6.344   2.769 -0.4413 -0.5625 -0.7079
14348TIP3   OH264534   1.255   2.342   3.630 -0.7066 -0.0483  0.2157
14348TIP3    H164535   1.348   2.326   3.649 -0.6444 -0.1368 -0.1604
14348TIP3    H264536   1.208   2.298   3.701 -0.3969  2.2902  1.9391
14349TIP3   OH264537   3.739   2.424  15.493  0.0130  0.4537 -0.5881
14349TIP3    H164538   3.706   2.338  15.517 -0.6926  0.6905 -0.7098
14349TIP3    H264539   3.661   2.479  15.485  0.4804  1.1875 -0.1800
14350TIP3   OH264540   1.001   2.424  17.088  0.1366  0.3502  0.3573
14350TIP3    H164541   0.986   2.481  17.012 -1.9237  0.3110  0.7128
14350TIP3    H264542   1.023   2.485  17.159  1.3190  0.4380 -0.0664
14351TIP3   OH264543   0.430   0.065  15.284 -0.2413  0.0266  0.0785
14351TIP3    H164544   0.520   0.089  15.306 -0.6145 -1.9150  4.1145
14351TIP3    H264545   0.376   0.110  15.348 -1.9561 -0.9141 -0.6544
14352TIP3   OH264546   1.351   1.276  16.538 -0.1377 -0.6534  0.1439
14352TIP3    H164547   1.387   1.262  16.626 -0.1380 -1.7696 -0.0211
14352TIP3    H264548   1.398   1.213  16.484 -0.8415 -0.6479 -0.4740
14353TIP3   OH264549   4.747   6.800   5.063  0.2469 -0.1582 -0.2469
14353TIP3    H164550   4.807   6.848   5.006  0.1218 -0.3445 -0.5348
14353TIP3    H264551   4.671   6.780   5.007  0.3454 -0.7872 -0.1612
14354TIP3   OH264552   2.601   6.753  13.543 -0.0675  0.3967  0.0989
14354TIP3    H164553   2.604   6.833  13.596 -1.3490  0.2058  0.5052
14354TIP3    H264554   2.513   6.754  13.504  0.2796 -0.2930 -0.7042
14355TIP3   OH264555   6.405   4.103  14.227 -0.0672 -0.8707 -0.2519
14355TIP3    H164556   6.415   4.150  14.310  1.5375  1.9279 -1.9713
14355TIP3    H264557   6.487   4.055  14.217 -0.2819 -1.2480 -0.2080
14356TIP3   OH264558   3.375   6.608   2.472 -0.2820 -0.3037  0.0544
14356TIP3    H164559   3.296   6.587   2.522  0.5891 -1.8412  0.8098
14356TIP3    H264560   3.347   6.608   2.381 -1.4387  0.5069  0.3912
14357TIP3   OH264561   1.770   2.544   2.420  0.4371  0.0992 -0.7222
14357TIP3    H164562   1.806   2.456   2.407 -1.1923 -0.3356 -2.5215
14357TIP3    H264563   1.747   2.547   2.512  0.5937 -1.3305 -0.6200
14358TIP3   OH264564   6.699   5.672  15.948  0.5286  0.3696 -0.2035
14358TIP3    H164565   6.774   5.677  15.888  0.9084 -2.2294  0.0007
14358TIP3    H264566   6.633   5.729  15.909  2.1179  1.6242 -1.1116
14359TIP3   OH264567   4.044   4.109   0.471  0.4572 -0.2307  0.0260
14359TIP3    H164568   4.114   4.045   0.481 -0.0303 -0.5412  1.4863
14359TIP3    H264569   4.034   4.119   0.376  0.2436 -2.6151 -0.2297
14360TIP3   OH264570   6.494   0.840   4.244  0.5659 -0.1077  0.0982
14360TIP3    H164571   6.550   0.870   4.316 -0.2304 -0.1704  0.7558
14360TIP3    H264572   6.553   0.832   4.169  1.0543  1.8534  0.2441
14361TIP3   OH264573   6.031   5.393  12.732  0.1825 -0.1508 -0.4057
14361TIP3    H164574   6.035   5.381  12.827 -0.5719 -1.6414 -0.5525
14361TIP3    H264575   6.081   5.320  12.696 -0.7393 -0.4036 -1.1974
14362TIP3   OH264576   2.020   4.966   5.150 -0.9347 -0.3067 -0.2151
14362TIP3    H164577   2.103   5.004   5.177 -1.7533  1.0434  0.4466
14362TIP3    H264578   2.039   4.924   5.067  0.7507 -1.2944  0.6498
14363TIP3   OH264579   0.087   4.701  14.290  0.0396 -0.6220  0.3036
14363TIP3    H164580   0.037   4.782  14.298 -0.6810 -0.8201 -1.8084
14363TIP3    H264581   0.162   4.723  14.235 -1.8099 -1.9923 -2.9907
14364TIP3   OH264582   0.839   4.675  15.911 -0.3847 -0.2937 -0.0276
14364TIP3    H164583   0.889   4.623  15.973 -0.5155  0.4373  0.6867
14364TIP3    H264584   0.812   4.753  15.959 -0.5379  0.2550 -0.9746
14365TIP3   OH264585   3.914   5.353  17.106 -1.0634  0.0347  0.0325
14365TIP3    H164586   3.852   5.408  17.059 -0.2138  0.5622 -0.4869
14365TIP3    H264587   3.996   5.403  17.106 -0.1622 -1.3919 -0.8119
14366TIP3   OH264588   1.633   4.623  11.604  0.4785 -0.2226  0.6186
14366TIP3    H164589   1.649   4.693  11.540 -2.4867 -0.8974 -0.9507
14366TIP3    H264590   1.684   4.549  11.570  0.7919  0.1114  0.3384
14367TIP3   OH264591   1.949   5.481   5.750  0.0266  0.0987  0.1177
14367TIP3    H164592   2.005   5.414   5.714 -1.3209 -0.6271 -0.6529
14367TIP3    H264593   1.939   5.545   5.680  2.6556  2.0114  1.3816
14368TIP3   OH264594   5.507   2.419   5.219 -0.8458 -0.0543  0.6582
14368TIP3    H164595   5.496   2.404   5.126  4.9116  0.6868 -0.2799
14368TIP3    H264596   5.462   2.502   5.236 -0.2096  0.8250 -1.8770
14369TIP3   OH264597   5.363   5.385  12.294  0.3422  0.1653 -0.1519
14369TIP3    H164598   5.365   5.343  12.208  0.7657 -1.7591  0.7770
14369TIP3    H264599   5.287   5.347  12.338  0.0530  1.2293  0.3093
14370TIP3   OH264600   1.498   3.410   5.868  0.8327  0.0186  0.8431
14370TIP3    H164601   1.527   3.319   5.873 -0.4900 -0.4118  0.9331
14370TIP3    H264602   1.402   3.404   5.871  0.7751  1.5027  2.4432
14371TIP3   OH264603   5.786   2.986   6.061  0.1821 -0.1624  0.4416
14371TIP3    H164604   5.722   2.923   6.094 -0.5138  0.8033  1.0026
14371TIP3    H264605   5.859   2.933   6.030 -1.2193 -1.3276 -0.9371
14372TIP3   OH264606   0.392   0.838   4.135 -0.6885  0.4437  0.3590
14372TIP3    H164607   0.394   0.933   4.143 -1.9247  0.4076  1.2298
14372TIP3    H264608   0.331   0.809   4.204 -1.5360 -0.8569 -0.9087
14373TIP3   OH264609   5.069   4.050  16.877  0.4980  0.6922 -0.1454
14373TIP3    H164610   5.141   4.112  16.861  0.5132  1.2616  1.9810
14373TIP3    H264611   4.991   4.104  16.882 -0.3530 -0.0493 -3.7345
14374TIP3   OH264612   5.470   6.792  12.559  0.4536  0.1874 -0.2350
14374TIP3    H164613   5.496   6.796  12.467 -0.4847  1.8588 -0.4362
14374TIP3    H264614   5.377   6.769  12.557  0.6575 -0.7429  0.3422
14375TIP3   OH264615   2.184   3.917   5.960 -0.4500  0.1801  0.5512
14375TIP3    H164616   2.109   3.869   5.923 -0.3992 -1.6303  2.7155
14375TIP3    H264617   2.242   3.849   5.993  1.8385  1.6105 -0.4075
14376TIP3   OH264618   2.481   2.220   0.834 -0.1104  0.1830 -0.6486
14376TIP3    H164619   2.484   2.138   0.785 -1.7614 -1.8208  2.3939
14376TIP3    H264620   2.388   2.244   0.834 -0.1836 -0.0222  1.6984
14377TIP3   OH264621   6.524   1.599   0.313  0.1634 -0.0324  0.2815
14377TIP3    H164622   6.607   1.574   0.272 -0.3495  1.0203 -1.4599
14377TIP3    H264623   6.518   1.693   0.298 -2.1186 -0.3655 -1.0929
14378TIP3   OH264624   0.988   2.513   5.446 -0.0580  0.0567 -0.3506
14378TIP3    H164625   0.948   2.545   5.365  1.0433  1.1867 -0.4629
14378TIP3    H264626   0.938   2.556   5.516  0.0317  0.3446 -0.4635
14379TIP3   OH264627   2.983   2.663  11.542  0.3965 -0.4650  0.3255
14379TIP3    H164628   3.052   2.713  11.586  0.1092 -0.1983  0.4759
14379TIP3    H264629   2.928   2.730  11.501 -0.0267 -0.6524  0.5845
14380TIP3   OH264630   1.390   6.595  11.870 -0.2398 -0.2345  0.0986
14380TIP3    H164631   1.299   6.572  11.891 -0.6523  1.6084  0.3732
14380TIP3    H264632   1.386   6.686  11.840  1.2764 -0.6720 -1.5531
14381TIP3   OH264633   0.125   2.280   1.091  0.5079  0.3490 -0.0719
14381TIP3    H164634   0.139   2.319   1.178 -0.4513  1.6716 -0.4935
14381TIP3    H264635   0.097   2.191   1.109  2.5264 -0.1139  0.9283
14382TIP3   OH264636   6.180   2.256   1.361  0.1614 -1.1778  0.1130
14382TIP3    H164637   6.192   2.291   1.449  0.6484  0.0267 -0.4140
14382TIP3    H264638   6.262   2.212   1.340  0.0500 -1.4544  0.2595
14383TIP3   OH264639   4.900   0.096   3.431 -0.7293 -0.7650  0.2059
14383TIP3    H164640   4.880   0.187   3.454  1.4964  0.3885 -2.1048
14383TIP3    H264641   4.856   0.083   3.347 -0.5155 -1.6031  0.2222
14384TIP3   OH264642   5.060   2.856   0.377 -0.0149  0.5855 -0.2620
14384TIP3    H164643   5.020   2.942   0.390  0.4201  0.4739  2.1666
14384TIP3    H264644   5.000   2.795   0.421 -0.1377 -0.3264 -1.6628
14385TIP3   OH264645   3.823   1.062  16.084 -0.5078 -0.4399  0.1827
14385TIP3    H164646   3.848   1.146  16.046 -0.5055 -1.4962 -2.2102
14385TIP3    H264647   3.869   1.059  16.168 -0.8197  2.1059  0.4644
14386TIP3   OH264648   4.770   6.053  11.132 -0.2878  0.4020  0.1076
14386TIP3    H164649   4.735   6.046  11.043 -0.2825 -1.8178  0.2409
14386TIP3    H264650   4.693   6.063  11.188 -0.4635 -0.5349  0.0457
14387TIP3   OH264651   5.596   1.545  14.228 -0.0666  0.5292  0.2326
14387TIP3    H164652   5.520   1.585  14.270 -1.3437 -0.4513 -1.0743
14387TIP3    H264653   5.561   1.502  14.150  1.4987 -1.6695  0.6690
14388TIP3   OH264654   3.712   1.650   2.744  0.1375  0.4424  0.3182
14388TIP3    H164655   3.760   1.728   2.774  2.1551 -0.5832 -0.1349
14388TIP3    H264656   3.773   1.578   2.760 -1.0452 -0.8240 -0.8682
14389TIP3   OH264657   5.515   3.952  15.221  1.0213  0.3771 -0.0727
14389TIP3    H164658   5.484   4.043  15.222 -0.2938 -0.0460 -1.0040
14389TIP3    H264659   5.591   3.952  15.279  0.6595  1.9431  0.4293
14390TIP3   OH264660   5.160   4.095  13.337  0.3768  0.9452  0.0057
14390TIP3    H164661   5.072   4.097  13.301  0.3076  2.8763  0.2215
14390TIP3    H264662   5.168   4.009  13.377 -0.9351  0.2580 -1.1705
14391TIP3   OH264663   1.715   2.466  10.711 -0.0917 -0.1150  0.5504
14391TIP3    H164664   1.730   2.372  10.696  0.2016  0.0810 -0.4174
14391TIP3    H264665   1.742   2.508  10.630  0.5897  0.8996  1.2840
14392TIP3   OH264666   3.735   5.245   0.098 -0.1273  0.1481  0.2622
14392TIP3    H164667   3.710   5.157   0.069  0.6019  0.0532 -0.0956
14392TIP3    H264668   3.793   5.276   0.029  0.9682  0.2549  1.2209
14393TIP3   OH264669   1.778   3.892  12.625 -0.1344 -0.5873  0.1789
14393TIP3    H164670   1.721   3.816  12.636 -0.8372 -0.5584 -2.8202
14393TIP3    H264671   1.863   3.856  12.602 -0.3441 -0.5135 -0.7498
14394TIP3   OH264672   0.393   2.045  14.237  0.5273  0.8962  0.1714
14394TIP3    H164673   0.335   2.026  14.163  1.1004 -0.7554  0.1229
14394TIP3    H264674   0.480   2.053  14.199  0.7332  0.6278  0.5745
14395TIP3   OH264675   0.204   3.562   2.055  0.1432 -0.0316 -0.4486
14395TIP3    H164676   0.233   3.653   2.053  0.3221 -0.0384  1.1397
14395TIP3    H264677   0.224   3.532   2.144 -1.8375 -0.9693 -0.2805
14396TIP3   OH264678   0.832   2.501  14.402 -0.2484 -0.1510 -0.3644
14396TIP3    H164679   0.896   2.447  14.356  1.5455  1.5944  0.0232
14396TIP3    H264680   0.776   2.536  14.332  0.0469 -0.6154 -0.8364
14397TIP3   OH264681   4.797   1.048   4.202  0.1390  0.0907 -0.1246
14397TIP3    H164682   4.734   1.089   4.142 -1.2558 -0.7003  0.7662
14397TIP3    H264683   4.761   0.960   4.217  0.6523  0.1590  1.5913
14398TIP3   OH264684   3.763   1.823  11.477 -0.4019  0.1796  0.0585
14398TIP3    H164685   3.699   1.840  11.409  0.1121  3.0793  0.2599
14398TIP3    H264686   3.717   1.843  11.559  0.4763  1.4076  0.2572
14399TIP3   OH264687   2.889   0.769   2.496 -0.0297  0.2165  0.3507
14399TIP3    H164688   2.959   0.829   2.469  0.5684 -1.2096 -1.4182
14399TIP3    H264689   2.930   0.713   2.562  0.0814  0.2926  0.3468
14400TIP3   OH264690   3.076   1.895  13.347 -0.0148 -0.2501  0.2347
14400TIP3    H164691   3.006   1.951  13.312  1.3360 -0.5412 -3.1359
14400TIP3    H264692   3.052   1.807  13.320  0.8025 -0.5651  0.5357
14401TIP3   OH264693   5.543   3.091   0.299  0.0429 -0.7047 -0.6779
14401TIP3    H164694   5.507   3.098   0.388  0.5098 -3.5438 -0.2418
14401TIP3    H264695   5.466   3.095   0.242 -0.3625 -0.0436 -0.0946
14402TIP3   OH264696   3.434   5.403  16.299 -0.3756 -0.1293  0.0462
14402TIP3    H164697   3.457   5.319  16.339 -1.5587 -0.2281  0.5626
14402TIP3    H264698   3.386   5.449  16.368 -0.9118  0.4076 -0.6788
14403TIP3   OH264699   6.647   3.912  12.258 -0.1868  0.1491 -0.1737
14403TIP3    H164700   6.621   3.951  12.174 -1.5322  1.7944  0.9796
14403TIP3    H264701   6.732   3.953  12.277  1.2661 -1.9628 -1.8121
14404TIP3   OH264702   3.278   5.918  14.881 -0.5029 -0.2039  0.1875
14404TIP3    H164703   3.264   5.835  14.836 -1.1647  0.3985 -0.7265
14404TIP3    H264704   3.315   5.976  14.814 -0.0125  0.2363  0.8270
14405TIP3   OH264705   2.636   6.606  14.692  0.0322  0.3347 -0.4455
14405TIP3    H164706   2.563   6.622  14.632 -1.2206 -0.1416  0.9004
14405TIP3    H264707   2.704   6.568  14.638 -0.9618  0.2014 -1.6252
14406TIP3   OH264708   0.239   4.303  11.590  0.6525 -0.0414 -0.1533
14406TIP3    H164709   0.205   4.299  11.680 -0.1951 -1.0614 -0.5040
14406TIP3    H264710   0.168   4.266  11.537  0.9250  1.0808 -1.3016
14407TIP3   OH264711   2.611   3.978   2.683  0.1163 -0.1113 -0.1181
14407TIP3    H164712   2.549   4.021   2.742  1.6529  0.0819  1.4032
14407TIP3    H264713   2.676   3.939   2.741  1.0970 -0.8004 -1.6566
14408TIP3   OH264714   4.350   2.539  14.983 -0.3464  0.1422  0.2068
14408TIP3    H164715   4.397   2.600  15.041  0.0107 -1.2367  1.3914
14408TIP3    H264716   4.417   2.508  14.922 -0.7873  1.8240 -1.1736
14409TIP3   OH264717   5.819   5.453   0.823  0.1684 -0.5549 -0.2716
14409TIP3    H164718   5.726   5.470   0.836  0.1870 -0.0770 -0.7422
14409TIP3    H264719   5.856   5.453   0.911 -0.0603  0.5289 -0.1682
14410TIP3   OH264720   0.068   1.831  12.806  0.5016 -0.2839  0.2600
14410TIP3    H164721   0.038   1.853  12.895 -0.1104 -2.7696  0.7061
14410TIP3    H264722  -0.002   1.863  12.749  0.0258 -0.3154  0.8146
14411TIP3   OH264723   1.847   3.635   1.368  0.1628 -0.4716  0.1625
14411TIP3    H164724   1.861   3.556   1.316  2.3452  0.4548 -0.7398
14411TIP3    H264725   1.918   3.633   1.433  0.9920  1.3615 -0.6580
14412TIP3   OH264726   5.101   6.239   1.832  0.1562 -0.7711  0.0319
14412TIP3    H164727   5.016   6.199   1.846  0.7297 -2.0128  0.0163
14412TIP3    H264728   5.091   6.329   1.865 -1.2842 -0.7552 -0.4087
14413TIP3   OH264729   2.907   3.193  16.670  0.5667  0.2078  0.0504
14413TIP3    H164730   2.856   3.257  16.620  1.0306 -0.1373 -0.8944
14413TIP3    H264731   2.949   3.139  16.603 -0.8231 -1.8819  0.8326
14414TIP3   OH264732   0.651   5.144   0.544  0.4267 -0.4407  0.6456
14414TIP3    H164733   0.700   5.100   0.475 -0.1838  0.1597 -0.1911
14414TIP3    H264734   0.675   5.098   0.624  2.4477 -0.0504  0.2698
14415TIP3   OH264735   4.788   0.463   2.149  0.7141  0.2253  0.5031
14415TIP3    H164736   4.703   0.498   2.122  0.3934 -1.0139 -0.1594
14415TIP3    H264737   4.797   0.487   2.241 -0.4450  0.2051  0.6223
14416TIP3   OH264738   4.960   1.447   4.128  0.5742  0.2050 -0.0924
14416TIP3    H164739   5.010   1.518   4.168  0.9702  0.8603 -1.6815
14416TIP3    H264740   4.921   1.399   4.201 -0.9031  2.9408  0.9545
14417TIP3   OH264741   5.942   0.506  11.795 -0.4609 -0.5359  0.3505
14417TIP3    H164742   6.005   0.569  11.760 -0.2478 -0.6760  0.4854
14417TIP3    H264743   5.937   0.438  11.727  0.1509 -0.9417  0.7097
14418TIP3   OH264744   3.217   3.184   3.207 -0.0033  0.5861  0.1287
14418TIP3    H164745   3.162   3.108   3.192  0.4722  0.5307 -1.5268
14418TIP3    H264746   3.170   3.256   3.164  1.3873  0.4434 -1.7207
14419TIP3   OH264747   5.660   6.539  12.286 -0.5156  0.0199 -0.5226
14419TIP3    H164748   5.738   6.560  12.338 -1.5494  2.3412  0.1423
14419TIP3    H264749   5.621   6.463  12.330  0.3287  0.0191  0.2406
14420TIP3   OH264750   4.784   4.018   6.507 -0.2876 -0.4542  0.2261
14420TIP3    H164751   4.751   4.085   6.567  2.1929 -0.8043  2.0773
14420TIP3    H264752   4.735   3.939   6.531 -1.3222  0.0556 -0.1660
14421TIP3   OH264753   0.271   0.948  15.567 -0.0908  0.6384  0.0912
14421TIP3    H164754   0.234   0.883  15.626  1.7611  0.2137  0.8301
14421TIP3    H264755   0.303   0.897  15.492  1.8303  0.5862  0.9044
14422TIP3   OH264756   0.455   5.091   5.056  0.3505  0.1070  0.3380
14422TIP3    H164757   0.483   5.001   5.070 -1.1251 -0.7853 -2.1522
14422TIP3    H264758   0.518   5.125   4.992 -1.1887 -0.3064 -1.4219
14423TIP3   OH264759   3.341   3.283   4.128 -0.4675 -0.9115  0.4392
14423TIP3    H164760   3.369   3.220   4.195  0.4132 -1.1359 -0.1369
14423TIP3    H264761   3.312   3.359   4.178  2.1079 -0.2789  1.0593
14424TIP3   OH264762   4.340   1.421   3.081 -0.2945 -0.2065 -0.2892
14424TIP3    H164763   4.272   1.483   3.106 -0.4304 -1.1086  1.6645
14424TIP3    H264764   4.293   1.341   3.057 -0.0542  0.0367 -1.6419
14425TIP3   OH264765   5.868   3.931  13.374 -0.0557 -0.7226 -0.3279
14425TIP3    H164766   5.922   3.940  13.453 -1.4950  2.0792  0.3878
14425TIP3    H264767   5.801   3.867  13.399 -0.6573  0.3334  0.8145
14426TIP3   OH264768   2.970   3.298   0.964  0.4730 -0.1767 -0.4064
14426TIP3    H164769   3.012   3.227   1.012 -1.9405  0.0493  2.1553
14426TIP3    H264770   3.002   3.378   1.006 -1.6707  0.0244  0.8912
14427TIP3   OH264771   1.508   0.380   5.395  0.1356  0.1347 -0.1293
14427TIP3    H164772   1.522   0.393   5.301 -1.0422 -1.0723 -0.4879
14427TIP3    H264773   1.413   0.390   5.407  0.3618  1.0128  1.0605
14428TIP3   OH264774   5.471   0.828   2.811  0.1848  0.4332 -0.0010
14428TIP3    H164775   5.546   0.771   2.829  0.3002  0.6964  0.3528
14428TIP3    H264776   5.508   0.917   2.810 -0.0905  0.5493 -0.0038
14429TIP3   OH264777   4.184   2.139  16.846  0.3000 -0.0226  0.1993
14429TIP3    H164778   4.247   2.211  16.840  0.8388 -0.5079  0.0216
14429TIP3    H264779   4.190   2.094  16.762  0.2870 -0.5393  0.4705
14430TIP3   OH264780   3.710   2.194  13.922 -0.4541 -0.5995 -0.2124
14430TIP3    H164781   3.785   2.135  13.933 -0.2826 -0.9106 -2.7922
14430TIP3    H264782   3.731   2.269  13.979  2.6567  0.0781 -2.1112
14431TIP3   OH264783   2.880   2.425   0.438 -0.2979  0.0977  0.6604
14431TIP3    H164784   2.859   2.390   0.352 -1.5081  1.2284  0.4760
14431TIP3    H264785   2.812   2.389   0.496  1.6132 -2.1966  1.5419
14432TIP3   OH264786   5.153   1.387  10.606  0.0995 -0.3143 -0.3656
14432TIP3    H164787   5.131   1.479  10.588  0.1705 -0.4090 -0.9543
14432TIP3    H264788   5.071   1.340  10.595  0.3541 -0.5121 -1.4441
14433TIP3   OH264789   1.238   1.418  15.812 -0.6492  0.1648 -0.0888
14433TIP3    H164790   1.317   1.395  15.862 -0.4147 -0.4714 -0.7339
14433TIP3    H264791   1.244   1.364  15.733 -0.6265  1.7132 -1.1625
14434TIP3   OH264792   2.923   2.712   2.385  0.7821  0.5112  0.2005
14434TIP3    H164793   2.957   2.795   2.418  0.0970  0.9569 -0.2124
14434TIP3    H264794   2.832   2.709   2.415  0.2849  0.7191 -1.2424
14435TIP3   OH264795   3.815   2.509  16.337 -0.0372 -0.2517 -0.3294
14435TIP3    H164796   3.760   2.523  16.414 -0.1785 -0.7973 -0.3294
14435TIP3    H264797   3.770   2.557  16.267  0.7137  1.2262  0.1821
14436TIP3   OH264798   1.675   1.033   2.512  0.2740 -0.6628 -0.1689
14436TIP3    H164799   1.611   0.991   2.570 -0.3859 -0.2878 -0.6243
14436TIP3    H264800   1.759   0.996   2.539 -0.1633 -1.3782  0.2400
14437TIP3   OH264801   6.407   6.757  12.508  0.1814 -0.1523 -0.1498
14437TIP3    H164802   6.385   6.702  12.583  3.3468 -0.5445  0.5832
14437TIP3    H264803   6.404   6.698  12.433 -1.4033 -0.1329 -0.1117
14438TIP3   OH264804   5.697   0.083  12.625  0.4658 -0.7535 -0.3093
14438TIP3    H164805   5.612   0.049  12.598  0.6344 -1.2508 -0.2169
14438TIP3    H264806   5.708   0.163  12.573 -0.5860 -0.0313  0.5578
14439TIP3   OH264807   5.888   2.975   0.422  0.0486 -0.2573  0.0400
14439TIP3    H164808   5.853   3.047   0.473  0.1872  0.4334 -0.8391
14439TIP3    H264809   5.969   2.951   0.467 -1.4890 -1.8434  2.0633
14440TIP3   OH264810   3.780   4.569   2.164  0.2725  0.2080  0.4584
14440TIP3    H164811   3.873   4.586   2.182  0.1665  0.7773  0.4781
14440TIP3    H264812   3.753   4.510   2.234  0.3883  0.7745  0.9862
14441TIP3   OH264813   1.834   1.994   5.639 -0.1829  0.0787  0.7334
14441TIP3    H164814   1.897   2.006   5.709 -0.8136 -0.3252  1.3820
14441TIP3    H264815   1.770   2.064   5.652  0.1278  0.4814  0.0877
14442TIP3   OH264816   1.562   3.609   2.037 -0.6407 -0.3257 -0.4131
14442TIP3    H164817   1.497   3.578   1.973  1.3708 -3.3175 -1.0956
14442TIP3    H264818   1.518   3.600   2.122 -1.1323 -2.4194 -0.8626
14443TIP3   OH264819   1.605   3.943  16.169  0.0421  0.3789  0.2045
14443TIP3    H164820   1.530   3.934  16.228 -0.4528 -0.0941 -0.4843
14443TIP3    H264821   1.628   3.853  16.146  0.7706  0.5287  0.3511
14444TIP3   OH264822   5.434   3.780   4.001 -0.0669 -0.2483  0.4727
14444TIP3    H164823   5.377   3.844   3.960 -0.8173 -2.1865 -1.5864
14444TIP3    H264824   5.522   3.799   3.967 -0.8360 -2.5336 -3.0826
14445TIP3   OH264825   4.318   1.451  11.143 -0.0905 -0.3176 -0.8124
14445TIP3    H164826   4.402   1.490  11.163 -0.8386  0.9567 -0.0827
14445TIP3    H264827   4.268   1.521  11.101 -1.1139 -0.7860 -0.3907
14446TIP3   OH264828   2.145   2.991   2.084 -0.5103 -0.1436  0.5325
14446TIP3    H164829   2.150   2.903   2.122 -0.5371  0.0387  0.9590
14446TIP3    H264830   2.060   2.992   2.039  1.0018 -1.5510 -2.5188
14447TIP3   OH264831   4.310   1.546  10.756 -0.1210  0.3725  0.0075
14447TIP3    H164832   4.371   1.600  10.705 -0.1662  1.9532  1.5667
14447TIP3    H264833   4.323   1.576  10.846 -0.4349 -1.9855  0.8579
14448TIP3   OH264834   5.054   0.315  14.516  0.6016  0.1284 -0.0952
14448TIP3    H164835   4.968   0.289  14.547  0.6467  0.4818  0.3374
14448TIP3    H264836   5.116   0.273  14.576  0.6665  1.3653  0.7393
14449TIP3   OH264837   4.044   0.182   3.777 -0.1020  0.2628 -0.0221
14449TIP3    H164838   3.993   0.126   3.717  0.3511  0.0857 -0.2482
14449TIP3    H264839   3.992   0.262   3.785 -0.0267  0.4092 -0.8958
14450TIP3   OH264840   5.309   6.666  16.189  0.6495 -0.0100  0.1478
14450TIP3    H164841   5.374   6.645  16.123  0.8760 -2.8050  1.1813
14450TIP3    H264842   5.242   6.598  16.179  0.7870 -0.6131  2.8552
14451TIP3   OH264843   4.704   3.340  15.230 -0.6594  0.1004 -0.3511
14451TIP3    H164844   4.752   3.267  15.193 -1.4422 -0.1554 -0.8678
14451TIP3    H264845   4.749   3.418  15.196  1.0234 -0.1056  1.2891
14452TIP3   OH264846   6.326   4.365  16.262 -0.1193  0.1102  0.3169
14452TIP3    H164847   6.327   4.319  16.347  2.6202  1.2907  0.9766
14452TIP3    H264848   6.415   4.399  16.252 -0.8839  1.4910 -2.2459
14453TIP3   OH264849   1.495   1.527  15.215  0.3180  0.4572 -0.2339
14453TIP3    H164850   1.477   1.617  15.188 -0.9523  0.3664  0.2518
14453TIP3    H264851   1.430   1.475  15.167  1.9688 -0.3757 -1.6337
14454TIP3   OH264852   2.882   1.627  14.456 -0.2612 -0.5104 -0.0730
14454TIP3    H164853   2.823   1.701  14.437 -0.7669 -0.7689  0.4761
14454TIP3    H264854   2.824   1.560  14.492  0.2505 -1.0618 -0.2755
14455TIP3   OH264855   2.907   2.367  12.000 -0.4573  0.0504 -0.2444
14455TIP3    H164856   2.828   2.327  11.962 -0.3603 -1.3674  1.0181
14455TIP3    H264857   2.933   2.433  11.936 -2.6231  0.4753 -0.7335
14456TIP3   OH264858   2.185   6.704  11.274 -0.3167  0.2438 -0.4981
14456TIP3    H164859   2.100   6.676  11.242 -0.8092  0.9801  0.1550
14456TIP3    H264860   2.198   6.652  11.354  0.4723 -0.8791 -1.3449
14457TIP3   OH264861   0.591   2.712  12.143  0.0182  0.1599  0.1987
14457TIP3    H164862   0.618   2.644  12.082  1.4943 -0.7779  1.8391
14457TIP3    H264863   0.499   2.728  12.122 -0.2039 -1.9503 -0.5991
14458TIP3   OH264864   2.461   2.298  15.311  0.0860 -0.8482  0.7069
14458TIP3    H164865   2.501   2.385  15.303 -1.1241 -0.3835 -0.3022
14458TIP3    H264866   2.424   2.297  15.400  1.6216 -0.9969  1.3661
14459TIP3   OH264867   3.191   3.238  15.873 -0.2776 -0.4257  0.6799
14459TIP3    H164868   3.233   3.275  15.796  1.2998  0.2761  1.8722
14459TIP3    H264869   3.215   3.145  15.871 -1.0879 -0.6369 -0.1981
14460TIP3   OH264870   5.946   1.258   4.196  0.0739  0.3118  0.1670
14460TIP3    H164871   5.929   1.326   4.262 -1.5151  0.3802 -0.2771
14460TIP3    H264872   5.948   1.306   4.113 -1.1019 -0.1768 -0.1549
14461TIP3   OH264873   4.895   3.231   1.764  0.5618  0.1538  0.4187
14461TIP3    H164874   4.929   3.146   1.735 -4.7009 -2.2629  0.8400
14461TIP3    H264875   4.871   3.218   1.856 -2.6368  1.3161 -0.2125
14462TIP3   OH264876   4.730   1.837  16.329 -0.0560 -0.1848  0.2024
14462TIP3    H164877   4.815   1.794  16.330  1.7106  3.1206  1.2079
14462TIP3    H264878   4.688   1.810  16.410 -0.2185 -2.2447 -0.5454
14463TIP3   OH264879   5.144   5.507  14.372  0.0384 -0.5448 -0.1140
14463TIP3    H164880   5.189   5.430  14.336  0.3848  0.5643 -2.0909
14463TIP3    H264881   5.189   5.523  14.456  2.2512 -0.4764 -1.2690
14464TIP3   OH264882   3.246   0.620  16.908 -0.1838  0.2723  0.1569
14464TIP3    H164883   3.308   0.692  16.904 -1.1925  1.0989 -0.8493
14464TIP3    H264884   3.286   0.557  16.968  1.4474  0.9498 -0.1937
14465TIP3   OH264885   2.898   5.357  11.052  0.0807  0.8344  0.2052
14465TIP3    H164886   2.862   5.443  11.072  1.7353  1.6051 -0.0378
14465TIP3    H264887   2.896   5.352  10.957  3.1402  2.0281  0.0426
14466TIP3   OH264888   4.529   2.759  12.013  0.0527 -0.7555 -0.0348
14466TIP3    H164889   4.469   2.702  12.060  0.3374 -1.2744 -0.2914
14466TIP3    H264890   4.478   2.837  11.991 -0.6050 -1.3204 -0.5135
14467TIP3   OH264891   1.783   3.279   4.431  0.4970  0.3194 -0.5591
14467TIP3    H164892   1.736   3.315   4.356 -1.7720 -2.0750 -0.3218
14467TIP3    H264893   1.741   3.195   4.448  2.6777 -0.3441  1.7918
14468TIP3   OH264894   5.739   5.392  15.165  0.1490  0.7136  0.1136
14468TIP3    H164895   5.820   5.366  15.209  0.2273  1.1839  0.2479
14468TIP3    H264896   5.712   5.473  15.208 -0.1198  0.8365 -0.2715
14469TIP3   OH264897   3.859   5.086   4.361  0.3976 -0.0837  0.0976
14469TIP3    H164898   3.851   5.018   4.428  1.3882 -1.3595 -1.0391
14469TIP3    H264899   3.948   5.120   4.372  0.1184  0.5812  0.2572
14470TIP3   OH264900   0.096   5.329  11.450 -0.3456  0.5300 -0.6845
14470TIP3    H164901   0.104   5.421  11.474 -2.7530  0.1048  2.0891
14470TIP3    H264902   0.019   5.325  11.394 -0.9700  0.0857  0.1816
14471TIP3   OH264903   1.921   2.704   0.355 -0.1649  0.4503 -0.1395
14471TIP3    H164904   1.926   2.674   0.264  1.1768  0.7814 -0.1927
14471TIP3    H264905   1.834   2.742   0.364 -1.0199 -1.2824 -0.7539
14472TIP3   OH264906   0.668   2.774  11.191 -0.8069 -0.4058  0.1842
14472TIP3    H164907   0.610   2.815  11.256 -0.2967  1.0066 -0.2319
14472TIP3    H264908   0.746   2.750  11.241 -0.6599  0.1362  0.2241
14473TIP3   OH264909   5.165   3.442   1.112 -0.3955 -0.6510  0.1285
14473TIP3    H164910   5.099   3.455   1.180 -1.6736 -0.5470 -1.1268
14473TIP3    H264911   5.224   3.517   1.122 -0.0676 -1.1044  1.6921
14474TIP3   OH264912   1.832   3.741   2.036 -0.4319  0.1431  0.5130
14474TIP3    H164913   1.749   3.697   2.054  0.0286 -0.3720  1.3724
14474TIP3    H264914   1.856   3.710   1.948 -0.0267 -1.4586  1.1770
14475TIP3   OH264915   3.267   4.280   2.256  0.2637 -0.1933 -0.7887
14475TIP3    H164916   3.314   4.338   2.315  2.2492 -1.3136 -1.2549
14475TIP3    H264917   3.257   4.198   2.304  0.8166 -0.7118 -1.5512
14476TIP3   OH264918   3.056   5.849   3.017 -0.6027 -0.1832 -0.1884
14476TIP3    H164919   3.118   5.776   3.022 -0.0308  0.2950 -0.2387
14476TIP3    H264920   3.076   5.893   2.935  1.0242  1.7605  1.2083
14477TIP3   OH264921   3.320   5.269   0.260  0.0681 -0.2152 -0.0332
14477TIP3    H164922   3.410   5.246   0.284  0.0920 -1.4969 -1.2843
14477TIP3    H264923   3.268   5.247   0.337  0.6273 -0.8813  0.1580
14478TIP3   OH264924   2.231   0.868  12.173  0.2401 -0.2456 -0.2538
14478TIP3    H164925   2.236   0.851  12.079 -0.4066  0.9695 -0.5212
14478TIP3    H264926   2.149   0.827  12.200 -0.1750  0.4465 -0.4549
14479TIP3   OH264927   2.082   5.522  15.235 -0.2208 -0.1057  0.0291
14479TIP3    H164928   2.162   5.509  15.185  1.4572  2.1829  2.0267
14479TIP3    H264929   2.025   5.571  15.176  0.7505  0.3428 -0.5553
14480TIP3   OH264930   1.897   3.932  16.540  0.1599 -0.7911  0.6880
14480TIP3    H164931   1.850   4.002  16.584  0.6792  0.0975 -0.1566
14480TIP3    H264932   1.934   3.879  16.611  0.1302  0.0340  1.3156
14481TIP3   OH264933   0.279   6.423  14.325  0.0968 -0.5039  0.1626
14481TIP3    H164934   0.201   6.371  14.342 -0.5958 -0.0379 -1.4846
14481TIP3    H264935   0.291   6.475  14.405 -1.6337 -0.1373  0.2150
14482TIP3   OH264936   5.458   2.098   6.421  0.1536 -0.4536  0.4694
14482TIP3    H164937   5.415   2.180   6.396  1.8772  0.1142 -0.7410
14482TIP3    H264938   5.390   2.031   6.410 -0.4054  0.4078 -1.5108
14483TIP3   OH264939   4.316   2.998   1.237  0.2516  0.6926  0.7151
14483TIP3    H164940   4.266   3.080   1.241  0.1156  0.5951  0.9857
14483TIP3    H264941   4.354   2.989   1.324  0.3784  0.5361  0.6429
14484TIP3   OH264942   5.908   0.159   4.175 -0.0869 -0.1670  0.2913
14484TIP3    H164943   5.845   0.231   4.188  0.4945  0.1677  1.3667
14484TIP3    H264944   5.860   0.094   4.125 -0.2117  1.5540 -1.9095
14485TIP3   OH264945   5.324   4.611  15.070 -0.3878 -0.4804 -0.1545
14485TIP3    H164946   5.344   4.523  15.038  2.0542  0.4019 -1.2172
14485TIP3    H264947   5.388   4.625  15.140 -2.2283 -0.3609  1.5471
14486TIP3   OH264948   1.702   1.475  11.914  0.0649 -0.2853  0.7043
14486TIP3    H164949   1.616   1.433  11.915  0.1646 -0.5052 -0.0976
14486TIP3    H264950   1.719   1.494  11.822 -0.2309  2.0103  1.0723
14487TIP3   OH264951   3.374   5.812   2.270  0.5072 -0.2095  0.0525
14487TIP3    H164952   3.334   5.814   2.357 -0.3005  2.2502 -0.3239
14487TIP3    H264953   3.312   5.765   2.215 -0.2484  0.5439  0.2516
14488TIP3   OH264954   1.762   3.943  15.614 -0.0597 -0.1876  0.7032
14488TIP3    H164955   1.689   3.986  15.660  0.9041 -0.6425  2.6986
14488TIP3    H264956   1.817   3.908  15.684  1.6952 -0.4983 -0.8056
14489TIP3   OH264957   5.902   4.472   3.825 -0.2801  0.0020  0.0483
14489TIP3    H164958   5.974   4.431   3.776  1.2846  0.4743  1.8933
14489TIP3    H264959   5.892   4.559   3.786 -0.5163 -0.4239 -0.8510
14490TIP3   OH264960   6.566   1.155   2.450 -0.2654  0.0287 -0.0298
14490TIP3    H164961   6.661   1.154   2.439 -0.2433  0.6919  0.1243
14490TIP3    H264962   6.534   1.195   2.369 -0.4964 -1.4443 -0.6881
14491TIP3   OH264963   6.546   4.457   0.747  0.1653 -0.4430 -0.4095
14491TIP3    H164964   6.583   4.498   0.669 -0.3680  2.9370  1.0507
14491TIP3    H264965   6.472   4.513   0.771  0.8339 -0.9058  3.0009
14492TIP3   OH264966   1.459   0.359   5.732 -0.4465  0.5609  0.6399
14492TIP3    H164967   1.509   0.278   5.724  0.4071  1.1847 -0.4807
14492TIP3    H264968   1.368   0.332   5.726 -0.2233 -0.4938  1.8494
14493TIP3   OH264969   0.775   0.879  13.930  0.5672 -0.2266  0.0458
14493TIP3    H164970   0.850   0.822  13.946  0.5707  0.3840  2.3674
14493TIP3    H264971   0.812   0.966  13.921  0.2360 -0.0894  0.0030
14494TIP3   OH264972   1.257   6.740   0.692 -0.2218 -0.8436  0.0932
14494TIP3    H164973   1.271   6.731   0.786 -1.4725 -1.4192  0.2405
14494TIP3    H264974   1.163   6.721   0.680 -0.3920  0.6513 -1.0753
14495TIP3   OH264975   1.168   3.275   3.640 -0.2688  0.4230  0.5388
14495TIP3    H164976   1.204   3.198   3.596 -1.6203  0.5430 -0.8337
14495TIP3    H264977   1.080   3.249   3.666 -0.4347  1.2339  0.8084
14496TIP3   OH264978   0.754   5.973  15.475 -0.1988 -0.5888 -0.6980
14496TIP3    H164979   0.808   6.030  15.530 -0.7915 -3.0722  2.6536
14496TIP3    H264980   0.672   6.021  15.463 -0.3924 -0.3330  1.4070
14497TIP3   OH264981   2.445   5.727  11.168 -0.5469 -0.0282 -0.3148
14497TIP3    H164982   2.492   5.669  11.228  0.3477  0.6019 -0.4077
14497TIP3    H264983   2.461   5.690  11.081 -3.6614 -2.2422 -0.0319
14498TIP3   OH264984   1.752   4.475  13.158 -0.3929  0.3582 -0.0368
14498TIP3    H164985   1.746   4.402  13.097  1.4200  0.1995 -0.0576
14498TIP3    H264986   1.674   4.466  13.214 -1.0915 -0.5636 -1.1398
14499TIP3   OH264987   6.612   1.159   5.435 -0.3190  0.2330 -0.1196
14499TIP3    H164988   6.618   1.066   5.458  0.3318  0.6300  1.3341
14499TIP3    H264989   6.529   1.188   5.472 -1.6954 -0.3341 -2.6677
14500TIP3   OH264990   0.060   1.420   1.536 -0.0654 -0.0423 -0.2220
14500TIP3    H164991   0.027   1.403   1.624 -0.6442  3.2461  0.2671
14500TIP3    H264992  -0.015   1.408   1.478 -0.6519  1.5206  0.1967
14501TIP3   OH264993   2.071   6.410   5.840  0.1326 -0.4551  0.1072
14501TIP3    H164994   2.142   6.447   5.787 -1.4637  0.6760 -1.3283
14501TIP3    H264995   2.015   6.485   5.861 -0.1031 -1.1580  2.1077
14502TIP3   OH264996   1.158   2.319  13.359 -0.1353  0.4399  0.0405
14502TIP3    H164997   1.176   2.290  13.448 -0.9913  0.8237  0.3425
14502TIP3    H264998   1.063   2.310  13.350 -0.2204  1.7416 -0.3622
14503TIP3   OH264999   6.468   0.250   1.079 -0.0664  0.0435 -0.3148
14503TIP3    H165000   6.439   0.310   1.011 -0.7036  0.7840  0.5903
14503TIP3    H265001   6.504   0.307   1.147 -1.8243 -0.5188  1.1011
14504TIP3   OH265002   6.396   2.131  13.381 -0.3286  0.0415  0.0877
14504TIP3    H165003   6.328   2.135  13.449 -0.0106 -0.1731  0.4228
14504TIP3    H265004   6.352   2.090  13.306 -0.7657  0.5609  0.0544
14505TIP3   OH265005   3.793   0.732   4.705 -0.7146 -0.2697 -0.1927
14505TIP3    H165006   3.868   0.692   4.749 -0.7637 -0.2646 -0.1038
14505TIP3    H265007   3.736   0.760   4.777  0.1607  1.6011 -0.2039
14506TIP3   OH265008   6.797   3.763   5.484 -0.0332 -0.3467  0.3976
14506TIP3    H165009   6.850   3.717   5.550 -0.5625 -0.4538  0.7502
14506TIP3    H265010   6.751   3.693   5.437  0.1918 -0.2569  0.0403
14507TIP3   OH265011   5.104   0.795   3.007 -0.0025  0.7922  0.0517
14507TIP3    H165012   5.137   0.862   2.948 -0.6595  2.2264  1.2751
14507TIP3    H265013   5.015   0.824   3.029 -0.9907 -1.4586 -0.8742
14508TIP3   OH265014   1.168   5.434  13.026  0.6223  0.0152  0.4150
14508TIP3    H165015   1.131   5.376  13.093  0.8016 -1.4676 -0.7256
14508TIP3    H265016   1.099   5.497  13.007  0.1814 -0.2210  1.2192
14509TIP3   OH265017   0.224   0.461   4.264 -0.1924  0.6083 -0.0633
14509TIP3    H165018   0.174   0.421   4.193 -1.7632  1.4668  0.5470
14509TIP3    H265019   0.197   0.413   4.343 -0.5405  1.5066  0.3665
14510TIP3   OH265020   3.732   4.935   4.958 -0.0846 -0.6566 -0.8583
14510TIP3    H165021   3.722   4.900   5.046  0.1370 -1.0213 -0.9782
14510TIP3    H265022   3.798   4.880   4.917  0.5813  0.1650 -0.9057
14511TIP3   OH265023   6.585   3.442  11.687  0.5250 -0.0626 -0.4116
14511TIP3    H165024   6.617   3.531  11.701  1.3389 -0.5045  0.7032
14511TIP3    H265025   6.611   3.421  11.597  0.6612  0.6846 -0.5504
14512TIP3   OH265026   6.483   3.059  10.848 -0.1267  0.1235 -0.1373
14512TIP3    H165027   6.483   3.132  10.909  1.6889 -1.8216  2.3038
14512TIP3    H265028   6.552   3.080  10.785 -0.3981  1.0464 -0.1272
14513TIP3   OH265029   1.085   3.144   4.944  0.3232  0.0387  0.1878
14513TIP3    H165030   1.129   3.228   4.936  0.1874  0.1195  0.3032
14513TIP3    H265031   0.992   3.163   4.929  0.4724 -0.3210 -1.3502
14514TIP3   OH265032   3.194   6.675  12.626 -0.1143  0.7866 -0.0846
14514TIP3    H165033   3.206   6.721  12.543 -0.1909  0.6752 -0.1571
14514TIP3    H265034   3.274   6.692  12.675  0.3936 -0.0713 -0.6209
14515TIP3   OH265035   1.877   0.653   0.328 -0.1654  0.0424  0.2178
14515TIP3    H165036   1.805   0.595   0.303  0.0089 -0.5552  1.0929
14515TIP3    H265037   1.890   0.637   0.421 -0.4418  1.8615  0.5961
14516TIP3   OH265038   4.589   0.454  14.778 -0.3251  0.3967  0.3020
14516TIP3    H165039   4.544   0.525  14.733 -0.0136  0.9715  0.8890
14516TIP3    H265040   4.680   0.484  14.785 -0.3841  0.3171  1.3430
14517TIP3   OH265041   4.076   2.290  13.419  0.4282 -0.3364 -0.1744
14517TIP3    H165042   4.168   2.308  13.399  1.3510 -2.0244  2.3130
14517TIP3    H265043   4.064   2.321  13.509 -1.7289  0.7021 -0.7647
14518TIP3   OH265044   6.612   2.645  12.148 -0.2304 -0.6421  0.1774
14518TIP3    H165045   6.589   2.674  12.236  0.1173  0.2250 -0.0164
14518TIP3    H265046   6.532   2.658  12.097  0.1658  0.7396 -0.0969
14519TIP3   OH265047   4.315   3.050  15.230  0.1169  0.1927 -0.1044
14519TIP3    H165048   4.232   3.003  15.216 -0.0212  0.4569 -0.1815
14519TIP3    H265049   4.319   3.112  15.157  1.1638 -0.9158 -1.0035
14520TIP3   OH265050   1.152   0.197  13.167 -0.1897  0.3082  0.3260
14520TIP3    H165051   1.223   0.261  13.178  2.1325 -2.1675  0.3842
14520TIP3    H265052   1.110   0.193  13.253  0.1971  1.1175  0.5573
14521TIP3   OH265053   1.030   3.260  13.975 -0.7345  0.4823 -0.3290
14521TIP3    H165054   0.969   3.315  13.926 -1.7335 -1.8543 -1.7470
14521TIP3    H265055   1.080   3.214  13.908  0.1535 -0.2888  0.8525
14522TIP3   OH265056   1.657   4.467   0.632 -0.2651  0.1378 -0.1815
14522TIP3    H165057   1.602   4.389   0.626 -0.8860  0.4172  1.5309
14522TIP3    H265058   1.733   4.439   0.683 -0.4094  0.6016  0.2922
14523TIP3   OH265059   5.733   4.956   4.056  0.1333 -0.4175  0.4535
14523TIP3    H165060   5.740   5.044   4.019  1.0212  0.3021  2.2793
14523TIP3    H265061   5.703   4.970   4.146  1.2044 -1.9236  1.0695
14524TIP3   OH265062   3.186   1.230  11.999 -0.1010 -0.2143  0.0442
14524TIP3    H165063   3.217   1.140  11.992  0.1276 -0.2468  1.3281
14524TIP3    H265064   3.218   1.260  12.085  0.5362  1.3501 -0.7083
14525TIP3   OH265065   1.323   5.206  16.335 -0.0011  0.4145  0.1492
14525TIP3    H165066   1.316   5.218  16.430  1.5117 -0.3437  0.3681
14525TIP3    H265067   1.417   5.210  16.317 -0.1999 -0.5985 -1.1798
14526TIP3   OH265068   5.183   4.668   4.565  0.0081 -0.1644  1.1324
14526TIP3    H165069   5.178   4.740   4.628 -0.0393 -1.8429  3.0831
14526TIP3    H265070   5.095   4.664   4.528  0.0235  0.8088  0.9709
14527TIP3   OH265071   1.333   4.343   4.094 -0.2166  0.1130 -0.0198
14527TIP3    H165072   1.267   4.362   4.027  0.5371  1.1808 -0.4710
14527TIP3    H265073   1.290   4.364   4.177 -0.6458  0.2257 -0.2679
14528TIP3   OH265074   5.417   2.260  10.842 -0.1433  0.0545  0.1128
14528TIP3    H165075   5.471   2.339  10.846 -1.8762  1.2791 -0.4161
14528TIP3    H265076   5.368   2.260  10.924 -1.6070  0.5829 -0.7597
14529TIP3   OH265077   1.086   3.572  11.746 -0.9842  0.1974  0.2341
14529TIP3    H165078   1.073   3.582  11.652 -0.3345  0.6106  0.1878
14529TIP3    H265079   0.998   3.557  11.781 -1.6447  3.1276 -0.0570
14530TIP3   OH265080   1.238   4.301  11.977 -0.1887  0.0239 -0.6122
14530TIP3    H165081   1.186   4.221  11.971 -0.8837  0.2592  1.4968
14530TIP3    H265082   1.173   4.371  11.985  0.4128  0.7831 -2.2756
14531TIP3   OH265083   2.097   0.456  17.145 -0.3635 -0.2846  0.1419
14531TIP3    H165084   2.096   0.362  17.127  1.4797  0.0520 -1.9905
14531TIP3    H265085   2.185   0.472  17.180 -0.4372  0.7547 -0.1398
14532TIP3   OH265086   1.145   3.514  16.458  0.7249 -0.3503  0.0493
14532TIP3    H165087   1.064   3.530  16.411  1.3438  0.7603 -0.6576
14532TIP3    H265088   1.206   3.484  16.391  1.0966 -0.5056  0.4557
14533TIP3   OH265089   4.495   3.123  15.891  0.6805  0.1150 -0.1541
14533TIP3    H165090   4.461   3.063  15.958  0.7927 -0.6891 -0.8152
14533TIP3    H265091   4.548   3.068  15.834  1.6168  1.0407 -0.1840
14534TIP3   OH265092   2.428   3.488   3.953 -0.0164  0.3053  0.0114
14534TIP3    H165093   2.398   3.441   3.875  0.2619  0.6344 -0.2986
14534TIP3    H265094   2.445   3.419   4.017 -2.7778  0.1863  0.6861
14535TIP3   OH265095   6.170   2.838  11.168 -0.4134 -1.1820  0.0731
14535TIP3    H165096   6.200   2.911  11.222 -1.9908  0.4466 -1.2139
14535TIP3    H265097   6.233   2.835  11.095 -0.8600 -0.5046 -0.3514
14536TIP3   OH265098   3.553   5.906   4.867  0.1534 -0.6547  0.1088
14536TIP3    H165099   3.533   5.889   4.959 -1.8780 -0.8983 -0.3621
14536TIP3    H265100   3.477   5.954   4.834  0.7755 -0.7387 -1.5131
14537TIP3   OH265101   0.132   6.293  17.175 -0.3071 -0.5499  0.3532
14537TIP3    H165102   0.093   6.212  17.142  0.9434 -0.8742 -0.3779
14537TIP3    H265103   0.210   6.264  17.222  0.0812  0.2154  0.1825
14538TIP3   OH265104   4.823   0.827   5.900 -0.2877  0.6040  0.3505
14538TIP3    H165105   4.877   0.905   5.911  0.9350 -0.2113  0.2698
14538TIP3    H265106   4.763   0.849   5.829 -0.6928  1.8481  1.0529
14539TIP3   OH265107   0.385   2.134  13.401 -0.3393 -0.1203 -0.0663
14539TIP3    H165108   0.398   2.135  13.496 -0.5288  0.4311 -0.0411
14539TIP3    H265109   0.305   2.185  13.387 -0.9169 -1.1078 -0.4393
14540TIP3   OH265110   5.553   4.985   6.155  0.1866  0.3294 -0.7233
14540TIP3    H165111   5.575   5.056   6.095 -0.6533  0.1092 -1.2962
14540TIP3    H265112   5.531   4.911   6.098  0.6076 -0.2506 -0.1363
14541TIP3   OH265113   1.951   4.590  12.720  0.1250  0.5013 -0.3992
14541TIP3    H165114   1.943   4.686  12.724 -0.6513  0.4865 -1.4796
14541TIP3    H265115   2.044   4.574  12.736 -0.1796  1.2650  2.4854
14542TIP3   OH265116   1.127   2.485   0.950  0.1119 -0.0505  0.1483
14542TIP3    H165117   1.219   2.467   0.934  0.3870  0.8217  0.7502
14542TIP3    H265118   1.092   2.401   0.981  0.7134 -0.3630 -0.0086
14543TIP3   OH265119   4.743   6.556   1.576 -0.1496  0.2745 -0.4460
14543TIP3    H165120   4.808   6.505   1.527 -0.4115 -0.4754 -0.0303
14543TIP3    H265121   4.659   6.513   1.557 -0.3873  0.6119 -0.1719
14544TIP3   OH265122   4.918   2.782  16.192  1.4122 -0.1244 -0.0340
14544TIP3    H165123   4.937   2.720  16.262 -0.3440 -0.8453 -0.1658
14544TIP3    H265124   4.895   2.863  16.238  0.8614 -0.4192  0.2117
14545TIP3   OH265125   6.132   3.678   4.666 -0.1922 -0.2460  0.1895
14545TIP3    H165126   6.104   3.761   4.627  0.2421 -0.0756  0.2401
14545TIP3    H265127   6.202   3.647   4.610  0.5870  0.1090  0.9522
14546TIP3   OH265128   5.840   5.406   3.764 -0.0108  0.0110  0.3570
14546TIP3    H165129   5.923   5.411   3.717 -0.4262 -1.4964 -0.5770
14546TIP3    H265130   5.773   5.410   3.695 -0.6351 -1.8064  0.8378
14547TIP3   OH265131   5.667   5.758   4.712 -0.0872 -0.0597  0.2601
14547TIP3    H165132   5.678   5.669   4.746  0.4216 -0.0103  0.2245
14547TIP3    H265133   5.609   5.748   4.637  0.8466 -0.5014 -0.4068
14548TIP3   OH265134   2.211   6.675  12.648 -0.6273  0.0446  0.0862
14548TIP3    H165135   2.235   6.598  12.596  1.0176  1.2595 -1.0018
14548TIP3    H265136   2.213   6.644  12.738 -0.5372 -1.3235 -0.3678
14549TIP3   OH265137   0.593   1.442   4.459 -0.2610  0.7462  0.0892
14549TIP3    H165138   0.626   1.532   4.462  0.8369  0.3464  0.3644
14549TIP3    H265139   0.519   1.446   4.398 -0.5044  1.9171  0.4417
14550TIP3   OH265140   2.443   3.647   5.655 -0.1735 -0.3611  0.6327
14550TIP3    H165141   2.463   3.555   5.669 -0.5656 -0.7485 -1.1597
14550TIP3    H265142   2.349   3.654   5.669  0.1960  0.2456  3.0237
14551TIP3   OH265143   5.067   0.992  11.837  0.6015  0.1611  0.3714
14551TIP3    H165144   5.102   1.004  11.749  1.9169 -2.8440  0.4250
14551TIP3    H265145   5.139   0.954  11.887 -0.6487  0.2469  2.2904
14552TIP3   OH265146   0.684   4.182   4.498 -0.6467 -0.0794  0.0179
14552TIP3    H165147   0.693   4.248   4.430  1.1509 -0.2597  0.0414
14552TIP3    H265148   0.590   4.173   4.512 -0.9764  0.7986 -1.6059
14553TIP3   OH265149   2.233   0.435  12.267  0.0321  0.1996 -0.7212
14553TIP3    H165150   2.262   0.354  12.309 -1.5329  0.1688  0.3095
14553TIP3    H265151   2.140   0.421  12.248  0.1639  1.0839 -2.1525
14554TIP3   OH265152   5.699   2.115  15.938 -0.4236 -0.0465 -0.1266
14554TIP3    H165153   5.783   2.088  15.901 -0.4561  0.1960 -0.3791
14554TIP3    H265154   5.634   2.076  15.880 -0.5083 -1.0867  0.6460
14555TIP3   OH265155   6.533   4.221  17.247 -0.2314  0.1600 -0.4527
14555TIP3    H165156   6.619   4.212  17.205 -0.1193  0.7796 -0.3627
14555TIP3    H265157   6.501   4.307  17.218 -1.2444 -0.4792 -1.2470
14556TIP3   OH265158   2.098   1.937   2.906  0.4667 -0.3470 -0.2589
14556TIP3    H165159   2.057   1.860   2.869 -1.0075  0.1994  0.2064
14556TIP3    H265160   2.162   1.903   2.968 -0.1031 -1.1961 -0.1362
14557TIP3   OH265161   2.001   0.885   0.607 -0.5284 -0.0958 -0.8401
14557TIP3    H165162   2.003   0.789   0.612 -0.2520 -0.0668 -0.2953
14557TIP3    H265163   1.971   0.913   0.693  1.4314  0.3665 -0.2727
14558TIP3   OH265164   5.399   1.491   4.329 -0.0997  0.7106  0.0198
14558TIP3    H165165   5.396   1.484   4.424 -0.4923 -1.0175 -0.1096
14558TIP3    H265166   5.488   1.520   4.309  0.1590  0.4993  0.8735
14559TIP3   OH265167   4.633   1.634  13.023 -0.1154 -0.8679  0.1515
14559TIP3    H165168   4.688   1.712  13.032  0.4133 -1.5529  3.1938
14559TIP3    H265169   4.544   1.669  13.016  0.0393  0.0206  2.2377
14560TIP3   OH265170   5.677   5.630  15.282 -0.5740  0.3061  0.5065
14560TIP3    H165171   5.616   5.654  15.351 -2.7967 -0.1297 -1.2413
14560TIP3    H265172   5.690   5.710  15.231 -0.7611  0.0542  0.0618
14561TIP3   OH265173   1.790   3.586  13.880 -0.6522 -0.4186  0.6065
14561TIP3    H165174   1.819   3.495  13.877 -1.6510 -0.7540  0.8284
14561TIP3    H265175   1.864   3.636  13.844 -1.1768 -1.5698 -2.2497
14562TIP3   OH265176   3.136   5.291  14.136  0.4754  0.4522  0.0281
14562TIP3    H165177   3.114   5.379  14.106  0.5554 -0.4561 -2.9018
14562TIP3    H265178   3.052   5.254  14.163 -0.2406  0.1282 -2.4812
14563TIP3   OH265179   1.000   5.874   1.178 -0.1520 -0.5734 -0.1175
14563TIP3    H165180   1.056   5.834   1.245 -0.6076  0.3053  0.8127
14563TIP3    H265181   1.015   5.823   1.099  4.3798  1.5411 -0.7696
14564TIP3   OH265182   3.062   4.272  15.016  0.8676  0.4352 -0.1194
14564TIP3    H165183   3.075   4.177  15.025 -0.7397  0.2824  0.7750
14564TIP3    H265184   3.146   4.310  15.043  1.1117 -0.6865  0.7798
14565TIP3   OH265185   6.783   3.232   1.013  0.3828 -0.0370  0.3508
14565TIP3    H165186   6.729   3.237   1.092  1.8600  0.4362  1.3495
14565TIP3    H265187   6.769   3.316   0.969  1.6747  0.8322  1.5437
14566TIP3   OH265188   2.298   1.606  14.114 -0.5824  0.2621 -0.1361
14566TIP3    H165189   2.382   1.573  14.146 -0.4633 -1.2041 -1.8563
14566TIP3    H265190   2.320   1.655  14.035 -1.4773 -1.5685 -1.5665
14567TIP3   OH265191   0.525   3.133   1.734  0.1943  0.6605  0.3091
14567TIP3    H165192   0.484   3.094   1.811  1.3121 -1.5150 -0.1565
14567TIP3    H265193   0.452   3.164   1.680 -0.9502 -3.4344 -0.6777
14568TIP3   OH265194   5.998   2.177  16.254 -0.3440 -0.1799 -0.1134
14568TIP3    H165195   6.077   2.158  16.305 -0.6598  1.5831  1.0886
14568TIP3    H265196   5.931   2.197  16.320 -1.5826 -0.8437 -1.1482
14569TIP3   OH265197   0.890   6.646  12.673 -0.0129  0.2539  0.7806
14569TIP3    H165198   0.923   6.722  12.721  0.3421 -0.4352  1.6395
14569TIP3    H265199   0.805   6.675  12.639  0.2248  1.1150  0.8890
14570TIP3   OH265200   5.148   4.214   2.505  0.3389 -0.0405 -0.0981
14570TIP3    H165201   5.137   4.216   2.600  0.2499 -0.0583 -0.1080
14570TIP3    H265202   5.218   4.151   2.491  1.1147  0.7872  0.0261
14571TIP3   OH265203   5.476   6.655  16.417 -0.3141 -0.1339  0.0556
14571TIP3    H165204   5.492   6.562  16.432 -2.1747 -0.3721  0.7624
14571TIP3    H265205   5.434   6.659  16.331  0.4460  0.1285 -0.3041
14572TIP3   OH265206   1.829   5.705  13.349 -0.0749 -0.3968  0.1744
14572TIP3    H165207   1.862   5.709  13.439  1.3167 -2.7572 -0.2117
14572TIP3    H265208   1.754   5.646  13.353 -1.7497  1.6473  0.2468
14573TIP3   OH265209   0.646   6.457  15.540 -0.5460 -0.7815  0.5340
14573TIP3    H165210   0.715   6.433  15.603  0.2767 -1.4939 -0.6153
14573TIP3    H265211   0.627   6.376  15.493 -2.1809 -0.5861  0.8276
14574TIP3   OH265212   2.440   3.535  11.951 -0.1810  0.7686 -0.0802
14574TIP3    H165213   2.345   3.547  11.947 -0.3361 -0.3959 -0.2362
14574TIP3    H265214   2.468   3.538  11.859  0.0144  1.6557  0.0037
14575TIP3   OH265215   6.215   0.314  11.553 -0.0540  0.1192  0.1932
14575TIP3    H165216   6.228   0.352  11.466 -2.0017  3.0413  1.1079
14575TIP3    H265217   6.250   0.380  11.613 -1.5570 -0.4714  1.7546
14576TIP3   OH265218   6.163   5.977  15.385  0.2245 -0.0576  0.2120
14576TIP3    H165219   6.105   5.902  15.374  0.0296  0.0235  0.6949
14576TIP3    H265220   6.233   5.962  15.322  0.3395 -0.7960  0.5106
14577TIP3   OH265221   1.794   6.668  13.076 -0.2612  0.2863 -0.3868
14577TIP3    H165222   1.734   6.600  13.046  0.5192 -0.3596 -0.5007
14577TIP3    H265223   1.791   6.735  13.008 -2.3689  1.2173  0.5557
14578TIP3   OH265224   3.257   3.717   6.329 -0.5177 -0.1383  0.1813
14578TIP3    H165225   3.309   3.788   6.366  0.2895 -0.7139  0.1529
14578TIP3    H265226   3.263   3.646   6.393  0.0671 -0.7811 -0.5794
14579TIP3   OH265227   0.799   4.491   1.528  0.0768  0.3799 -0.2181
14579TIP3    H165228   0.795   4.530   1.616  2.6551  1.7667 -0.6651
14579TIP3    H265229   0.748   4.551   1.473  0.8118  1.0626 -0.1724
14580TIP3   OH265230   0.953   2.157   3.658 -0.4461 -0.4889  0.3779
14580TIP3    H165231   0.928   2.225   3.720 -1.2744 -1.0560  0.6670
14580TIP3    H265232   1.014   2.101   3.707 -0.2045 -0.2839  0.3149
14581TIP3   OH265233   2.294   4.490  13.966 -0.0830 -0.8210  0.8165
14581TIP3    H165234   2.320   4.411  13.919 -1.4743 -2.2451  2.3564
14581TIP3    H265235   2.290   4.558  13.899  1.2491 -2.0184 -0.5175
14582TIP3   OH265236   1.694   1.144  11.681 -1.1386 -0.4400  0.1060
14582TIP3    H165237   1.714   1.052  11.698 -0.1615 -0.1154  0.7509
14582TIP3    H265238   1.755   1.193  11.736 -1.9176  0.5966  0.0746
14583TIP3   OH265239   0.473   5.023  10.655  0.0139  0.0747  0.2966
14583TIP3    H165240   0.437   4.950  10.604  1.7161  0.4990 -1.5686
14583TIP3    H265241   0.407   5.092  10.648  0.4614  0.3049 -1.7961
14584TIP3   OH265242   1.601   6.218  13.456  0.5814 -0.1631 -0.1623
14584TIP3    H165243   1.674   6.248  13.403  1.9797 -1.4287  1.0143
14584TIP3    H265244   1.611   6.123  13.459  0.4458 -0.1223  2.2464
14585TIP3   OH265245   1.762   6.134  14.801 -0.0398  0.5529 -1.0701
14585TIP3    H165246   1.740   6.041  14.792  1.6438  0.2491 -2.4841
14585TIP3    H265247   1.721   6.161  14.882  1.3620 -2.0262  0.5686
14586TIP3   OH265248   2.873   0.367   5.710  0.1265  0.3386  0.2235
14586TIP3    H165249   2.808   0.364   5.640  0.7204  1.6615 -0.3871
14586TIP3    H265250   2.940   0.304   5.683 -0.0813  0.1845  0.0587
14587TIP3   OH265251   6.047   0.775   3.814 -0.9340  0.2965 -0.0704
14587TIP3    H165252   6.131   0.730   3.813 -1.0867 -0.0729 -3.3485
14587TIP3    H265253   5.993   0.725   3.874  0.4808 -0.8417  0.2671
14588TIP3   OH265254   6.762   6.275   0.161  0.7388 -0.0646 -0.1053
14588TIP3    H165255   6.691   6.252   0.220  1.9117 -1.3768  0.8285
14588TIP3    H265256   6.734   6.357   0.120 -0.4886  0.3891  1.5926
14589TIP3   OH265257   3.589   1.469   0.561 -0.8082  0.0472  0.0166
14589TIP3    H165258   3.631   1.391   0.599  0.0579 -0.6864 -2.3563
14589TIP3    H265259   3.497   1.444   0.551 -0.6255 -0.5178 -0.3091
14590TIP3   OH265260   4.128   5.948   0.548 -0.5917 -0.0816  0.3038
14590TIP3    H165261   4.063   5.930   0.615 -0.6892 -1.8684 -0.2269
14590TIP3    H265262   4.172   5.864   0.534  0.7561  0.7204 -0.4701
14591TIP3   OH265263   1.076   0.553  12.927  0.7717 -0.4072 -0.0404
14591TIP3    H165264   0.999   0.602  12.958  2.0259  0.4983  1.7665
14591TIP3    H265265   1.128   0.619  12.881  1.7070 -0.3734  1.0355
14592TIP3   OH265266   3.366   0.517   6.086 -0.1699 -0.0664 -0.6531
14592TIP3    H165267   3.351   0.558   6.001 -0.9110  1.2734  0.0974
14592TIP3    H265268   3.333   0.428   6.077  0.0793 -0.0332 -1.8758
14593TIP3   OH265269   0.811   6.561  16.253 -0.3195 -0.2733  0.3426
14593TIP3    H165270   0.902   6.550  16.222 -0.3017 -0.5254  0.4790
14593TIP3    H265271   0.818   6.621  16.327 -0.3516  0.2666 -0.0877
14594TIP3   OH265272   0.871   2.600   0.254 -0.0039  0.1527 -0.2896
14594TIP3    H165273   0.794   2.543   0.250  1.0260 -1.2866 -0.3129
14594TIP3    H265274   0.895   2.600   0.347  0.9233 -0.7484 -0.5192
14595TIP3   OH265275   6.216   5.691  13.804  0.3976  0.1336  0.0117
14595TIP3    H165276   6.290   5.722  13.856  0.3148  0.8286 -0.2764
14595TIP3    H265277   6.190   5.767  13.751 -2.3487  0.7602  2.1537
14596TIP3   OH265278   1.488   1.966  16.547 -0.1681  0.1315  1.1864
14596TIP3    H165279   1.399   1.932  16.541  0.2649 -0.7816 -0.4759
14596TIP3    H265280   1.482   2.040  16.607 -2.0716  0.1474  0.9983
14597TIP3   OH265281   5.014   1.215  14.129 -0.0360 -0.3959  0.2943
14597TIP3    H165282   4.940   1.197  14.071 -0.8075  3.4340 -0.0333
14597TIP3    H265283   4.978   1.269  14.199  2.4222  1.7966 -0.0160
14598TIP3   OH265284   3.937   6.042  13.443 -0.6981  0.1921  0.3392
14598TIP3    H165285   3.957   6.072  13.354  1.9556  0.2650  0.9405
14598TIP3    H265286   3.895   5.956  13.430  2.3553 -1.1810 -0.8874
14599TIP3   OH265287   1.753   5.319   5.848 -0.0764 -0.3719  0.3179
14599TIP3    H165288   1.696   5.349   5.919  0.7134 -0.2970  0.9302
14599TIP3    H265289   1.805   5.395   5.825 -0.9388 -0.1557 -0.9539
14600TIP3   OH265290   5.252   4.875   3.691 -0.1647  0.1750  0.3562
14600TIP3    H165291   5.157   4.865   3.693 -0.3757  1.7714 -0.7928
14600TIP3    H265292   5.266   4.967   3.671  1.6418  0.2518  1.8384
14601TIP3   OH265293   4.981   5.123  14.205 -0.1217  0.2253  0.2844
14601TIP3    H165294   5.006   5.034  14.178 -1.2267 -0.1794  0.5555
14601TIP3    H265295   4.905   5.143  14.151 -1.2744  0.1044  1.8362
14602TIP3   OH265296   1.827   4.302   3.012  0.3277  0.5355  0.3542
14602TIP3    H165297   1.841   4.282   3.104 -3.7513  0.0761  0.9729
14602TIP3    H265298   1.826   4.398   3.007  0.5907  0.5580  0.7874
14603TIP3   OH265299   2.845   5.032  11.808 -0.1169  0.4986  0.2043
14603TIP3    H165300   2.781   4.972  11.846  0.2753  0.3860  0.6946
14603TIP3    H265301   2.907   5.049  11.879  1.5982 -1.0933 -0.8620
14604TIP3   OH265302   6.283   0.077   2.652  0.2169  0.3051 -0.1360
14604TIP3    H165303   6.345   0.085   2.580  1.3674 -1.1747  0.6906
14604TIP3    H265304   6.337   0.064   2.730 -1.0830  0.2822  0.7820
14605TIP3   OH265305   0.895   2.585   1.185 -0.1385 -0.6678 -0.1092
14605TIP3    H165306   0.859   2.674   1.187 -1.5741 -1.2470  1.3406
14605TIP3    H265307   0.836   2.537   1.126  0.4698 -0.7273 -0.6686
14606TIP3   OH265308   4.112   5.599   5.409  0.5924 -0.2806 -0.2076
14606TIP3    H165309   4.160   5.567   5.486  0.9840 -0.6887 -0.6187
14606TIP3    H265310   4.122   5.694   5.413  0.5433 -0.2959  0.2955
14607TIP3   OH265311   4.372   1.023  12.602 -0.0020 -0.2470 -0.5591
14607TIP3    H165312   4.339   0.962  12.667 -1.1429  0.2025 -0.7155
14607TIP3    H265313   4.457   1.051  12.636 -0.9938  0.6986  1.1984
14608TIP3   OH265314   5.021   6.605   4.621  0.6211  0.0882 -0.3141
14608TIP3    H165315   5.015   6.699   4.609  1.0140 -0.0779 -2.0595
14608TIP3    H265316   5.111   6.590   4.648  0.2008  0.3151  1.2674
14609TIP3   OH265317   4.617   1.813  16.615 -0.0315 -0.4807  0.4115
14609TIP3    H165318   4.703   1.801  16.655 -0.0516 -1.7482  0.1092
14609TIP3    H265319   4.592   1.902  16.637  2.4773  0.7814 -1.6332
14610TIP3   OH265320   5.976   1.210  14.880  0.2609 -0.1504  0.1270
14610TIP3    H165321   5.998   1.271  14.951 -1.5698 -1.3919  1.8142
14610TIP3    H265322   5.883   1.193  14.891  0.8686 -3.8662  0.1852
14611TIP3   OH265323   2.299   2.183   1.592  0.7255  0.0600  0.3374
14611TIP3    H165324   2.366   2.138   1.542 -0.2478 -1.3136  0.2390
14611TIP3    H265325   2.231   2.117   1.607  0.7790  0.5535  3.0712
14612TIP3   OH265326   5.991   1.548  10.932 -0.0137  1.0171 -0.2584
14612TIP3    H165327   5.915   1.493  10.954  0.7302  0.6645  1.4908
14612TIP3    H265328   6.063   1.486  10.922  0.1009  1.3713 -1.7008
14613TIP3   OH265329   5.056   6.385   6.892  0.4067  0.6278  0.1272
14613TIP3    H165330   5.068   6.452   6.825  1.4973  0.3639  0.0406
14613TIP3    H265331   4.986   6.330   6.859  0.9916  0.4462 -0.8521
14614TIP3   OH265332   4.707   3.339   4.089  0.1297 -0.5797  0.1520
14614TIP3    H165333   4.668   3.422   4.062 -0.0045 -1.0187 -0.9972
14614TIP3    H265334   4.633   3.284   4.114  0.1108 -0.9342 -0.6945
14615TIP3   OH265335   2.053   3.298  15.479 -0.3354 -0.2038  0.0531
14615TIP3    H165336   2.075   3.219  15.431  0.5591 -1.5541  2.5879
14615TIP3    H265337   2.137   3.330  15.512 -0.8966  0.8195  0.5087
14616TIP3   OH265338   4.773   3.170  12.377 -0.4385 -0.0049 -0.1729
14616TIP3    H165339   4.731   3.100  12.326 -0.3568  0.7595 -1.3166
14616TIP3    H265340   4.702   3.208  12.429 -0.8173  0.1474 -0.7964
14617TIP3   OH265341   4.598   2.342  16.670  0.3109 -0.4122 -0.1836
14617TIP3    H165342   4.688   2.371  16.686  0.1249  0.0782 -0.0398
14617TIP3    H265343   4.575   2.380  16.585 -0.1986  0.4955  0.3562
14618TIP3   OH265344   5.432   2.801   4.444 -0.5401 -0.0086  0.6066
14618TIP3    H165345   5.428   2.867   4.513 -2.2572 -0.9729  1.4493
14618TIP3    H265346   5.485   2.731   4.482  2.2954  1.3234 -0.7173
14619TIP3   OH265347   6.614   0.118  15.479  0.0996 -0.3996  0.2546
14619TIP3    H165348   6.551   0.112  15.551 -0.3476 -0.4231 -0.1398
14619TIP3    H265349   6.566   0.089  15.402  0.2720  0.6106 -0.2388
14620TIP3   OH265350   0.909   3.236  14.391  0.5260  0.5832 -0.3693
14620TIP3    H165351   0.854   3.199  14.321 -1.7308  0.0021  1.6566
14620TIP3    H265352   0.985   3.273  14.344  0.1947 -1.7595 -2.9335
14621TIP3   OH265353   0.910   4.986  14.054 -0.0360 -0.0819  0.5241
14621TIP3    H165354   0.858   4.957  13.979  1.5027 -1.1649 -0.1731
14621TIP3    H265355   0.867   4.949  14.130 -0.5847 -0.5194  0.0049
14622TIP3   OH265356   5.580   2.951  15.493 -0.0188 -0.0925 -0.1478
14622TIP3    H165357   5.493   2.985  15.473 -1.2939 -3.0202  0.2584
14622TIP3    H265358   5.574   2.922  15.584  1.6617  0.5008  0.1712
14623TIP3   OH265359   2.541   2.604  11.638 -0.5941 -0.1917  0.0181
14623TIP3    H165360   2.536   2.656  11.718 -1.0786 -0.8838  0.4409
14623TIP3    H265361   2.629   2.567  11.638 -0.2993  0.4976 -0.2082
14624TIP3   OH265362   3.198   0.188  11.126  0.3898  0.7430  0.2777
14624TIP3    H165363   3.293   0.193  11.140  0.2540 -0.1556  1.6925
14624TIP3    H265364   3.188   0.150  11.039  1.3467 -0.4079  0.6551
14625TIP3   OH265365   4.516   3.317   0.650 -0.3578  0.2208  0.2859
14625TIP3    H165366   4.531   3.238   0.702 -0.9206 -0.9200 -1.2713
14625TIP3    H265367   4.425   3.341   0.668  0.3090  1.5269  2.0909
14626TIP3   OH265368   0.693   0.149  15.253 -0.1792 -0.4794 -0.3848
14626TIP3    H165369   0.707   0.243  15.260 -0.0044 -0.3167 -2.3906
14626TIP3    H265370   0.748   0.111  15.321 -0.2933  0.8707  0.4744
14627TIP3   OH265371   4.557   0.145  11.707  0.5595 -0.6118 -0.2520
14627TIP3    H165372   4.643   0.117  11.677  1.2364  1.4715 -0.3752
14627TIP3    H265373   4.570   0.167  11.800  0.4256  0.6077 -0.5029
14628TIP3   OH265374   2.194   1.133   2.592 -0.2390  0.9894 -0.1517
14628TIP3    H165375   2.212   1.068   2.660 -1.3531  1.0404  0.1924
14628TIP3    H265376   2.180   1.081   2.512  1.7396  0.9581 -0.5261
14629TIP3   OH265377   2.919   5.946  11.668  0.0041  0.0399 -0.0872
14629TIP3    H165378   2.903   5.967  11.759  2.7659  0.4241  0.3593
14629TIP3    H265379   2.958   5.858  11.669 -0.7904 -0.3384 -0.9739
14630TIP3   OH265380   4.940   5.503  14.038  0.4523 -0.1918  0.3629
14630TIP3    H165381   4.877   5.447  13.993  0.3671  0.7548 -0.7312
14630TIP3    H265382   4.916   5.498  14.130 -1.6687  0.6917 -0.1233
14631TIP3   OH265383   2.629   3.315   6.509  0.2398  0.5108  0.0123
14631TIP3    H165384   2.551   3.312   6.453  0.3579  1.7904 -0.2443
14631TIP3    H265385   2.670   3.399   6.488  0.5547  0.7858  1.6536
14632TIP3   OH265386   5.246   4.271   4.108  0.3298 -0.6578 -0.3053
14632TIP3    H165387   5.237   4.210   4.181 -0.1055  0.7037  0.8066
14632TIP3    H265388   5.339   4.271   4.088  0.5114 -0.7465  0.5202
14633TIP3   OH265389   5.704   3.371  14.872  0.0810  0.4843  0.4783
14633TIP3    H165390   5.719   3.278  14.856  0.2462  0.5007  0.5427
14633TIP3    H265391   5.661   3.403  14.793  1.0429  0.6050  0.0104
14634TIP3   OH265392   2.500   4.748  12.218  0.2062 -0.1695  0.0888
14634TIP3    H165393   2.407   4.768  12.232 -0.3141 -1.8980 -0.6884
14634TIP3    H265394   2.536   4.737  12.306 -0.6340 -0.7619  0.3667
14635TIP3   OH265395   1.494   1.077  16.378 -0.7593  0.1398  0.1293
14635TIP3    H165396   1.450   1.017  16.318  0.1259 -0.2282 -0.1728
14635TIP3    H265397   1.522   1.150  16.322 -0.4266  0.0631  0.1953
14636TIP3   OH265398   0.063   5.600   4.513 -0.4166  0.0926 -0.6780
14636TIP3    H165399   0.072   5.519   4.464 -0.2233  0.4317 -1.2058
14636TIP3    H265400  -0.031   5.613   4.522 -0.4543  0.1749 -1.1972
14637TIP3   OH265401   6.285   4.460   4.196  0.1932 -0.4351 -0.0952
14637TIP3    H165402   6.271   4.548   4.233 -0.2200 -0.7856  0.6003
14637TIP3    H265403   6.228   4.404   4.248  0.5966 -1.1455 -0.4234
14638TIP3   OH265404   3.974   6.381  16.748 -0.5270 -0.3023  0.4725
14638TIP3    H165405   3.927   6.378  16.665  0.4992  0.2837 -0.1456
14638TIP3    H265406   4.011   6.293  16.758 -0.6112 -0.3587  0.2837
14639TIP3   OH265407   5.882   1.816  11.895  0.0704 -0.1516 -0.0076
14639TIP3    H165408   5.798   1.780  11.867 -2.7582  2.4931  4.4846
14639TIP3    H265409   5.884   1.904  11.856  0.1084  0.2991  1.0051
14640TIP3   OH265410   2.087   5.883   4.726  0.2550  0.2775  0.0717
14640TIP3    H165411   2.047   5.947   4.784  0.5281 -1.2887  2.0259
14640TIP3    H265412   2.067   5.798   4.766 -0.1492 -0.8831 -2.4841
14641TIP3   OH265413   1.045   2.596   0.015  0.3186  0.0458 -0.2035
14641TIP3    H165414   1.036   2.691   0.022  0.1542 -0.0354  0.7721
14641TIP3    H265415   1.012   2.562   0.098 -0.6292 -0.9439 -0.9666
14642TIP3   OH265416   4.672   2.114   4.501 -0.6933  0.2862 -0.3833
14642TIP3    H165417   4.589   2.146   4.467 -1.9614 -1.4189  0.9907
14642TIP3    H265418   4.667   2.127   4.595  0.2025 -0.6519 -0.1874
14643TIP3   OH265419   1.854   3.601   2.811 -0.6694 -0.8213 -0.1982
14643TIP3    H165420   1.795   3.544   2.859 -0.8516  0.4251  1.1163
14643TIP3    H265421   1.806   3.625   2.732 -3.1290  2.3762  2.1346
14644TIP3   OH265422   2.698   0.622  16.666  0.6246  0.5215 -0.0336
14644TIP3    H165423   2.748   0.650  16.743 -0.7434 -0.8097  1.3796
14644TIP3    H265424   2.720   0.686  16.598  1.1850  2.2222  1.7213
14645TIP3   OH265425   0.397   2.240  16.585  0.1598  0.2894 -0.4774
14645TIP3    H165426   0.395   2.334  16.567  0.6572  0.8440  2.0708
14645TIP3    H265427   0.486   2.224  16.616 -0.3839 -0.6856  0.6357
14646TIP3   OH265428   5.858   3.923  16.003  0.0557 -0.3632  0.1244
14646TIP3    H165429   5.924   3.987  16.028  0.3276  0.1807 -1.8763
14646TIP3    H265430   5.896   3.878  15.927 -0.6368 -2.0697  0.7604
14647TIP3   OH265431   3.178   4.219   4.736  0.1012 -0.6854 -0.2456
14647TIP3    H165432   3.113   4.255   4.796 -1.1104 -2.1643 -0.6218
14647TIP3    H265433   3.247   4.285   4.733 -0.3375 -0.0644  1.8811
14648TIP3   OH265434   0.437   4.512  11.013  0.6784 -0.2432  0.0772
14648TIP3    H165435   0.493   4.453  11.063  0.3876  0.0284  0.7248
14648TIP3    H265436   0.355   4.463  11.001 -0.1443  0.6091  1.9731
14649TIP3   OH265437   5.362   0.705   1.235 -0.3472  0.0940  0.2734
14649TIP3    H165438   5.305   0.779   1.213 -0.0915  0.4540  0.8174
14649TIP3    H265439   5.446   0.745   1.256  0.3054 -0.4769 -1.1762
14650TIP3   OH265440   0.250   5.551   5.078  0.5677 -0.1784 -0.3252
14650TIP3    H165441   0.314   5.532   5.009  0.5543  0.1145 -0.4163
14650TIP3    H265442   0.296   5.610   5.137  0.0588  0.8023 -0.8997
14651TIP3   OH265443   4.509   3.007   0.333 -0.8569  0.5780 -0.5019
14651TIP3    H165444   4.420   3.031   0.360 -0.2188  0.8734  1.3981
14651TIP3    H265445   4.558   3.089   0.340  0.0520 -0.0464  0.5947
14652TIP3   OH265446   0.116   3.074   1.284  0.6480  0.5168 -0.6189
14652TIP3    H165447   0.075   3.122   1.212  0.0365  0.2630 -0.4496
14652TIP3    H265448   0.182   3.018   1.242  0.8284  0.9400 -0.8978
14653TIP3   OH265449   0.201   3.821   3.768  0.4740  0.1934 -0.0001
14653TIP3    H165450   0.276   3.849   3.715 -0.1449  1.9483 -0.0019
14653TIP3    H265451   0.133   3.886   3.748 -1.4108 -1.9464 -0.7837
14654TIP3   OH265452   4.701   1.245  15.259  0.2733 -0.4596 -0.0448
14654TIP3    H165453   4.661   1.329  15.237  0.5438  0.0610  1.3910
14654TIP3    H265454   4.634   1.180  15.238 -1.9136  0.4865  3.5660
14655TIP3   OH265455   6.646   4.581  15.524  0.1092 -0.2958  0.3864
14655TIP3    H165456   6.593   4.501  15.524 -2.4579  1.3252 -0.3870
14655TIP3    H265457   6.620   4.627  15.603  0.5639  0.4163  0.1258
14656TIP3   OH265458   3.420   5.189  13.660 -0.0123 -0.2388  0.1945
14656TIP3    H165459   3.342   5.148  13.697 -0.0258  0.4661  0.9600
14656TIP3    H265460   3.391   5.225  13.576 -0.8934  1.3782  1.1889
14657TIP3   OH265461   6.800   5.624   0.543 -0.3276 -0.0096 -0.4312
14657TIP3    H165462   6.875   5.625   0.482  0.3293  2.5087  0.3676
14657TIP3    H265463   6.830   5.675   0.618 -1.7883 -1.5800  1.2604
14658TIP3   OH265464   4.875   3.511  13.311 -0.2668  0.0831 -0.2455
14658TIP3    H165465   4.873   3.432  13.365 -0.5928 -0.3146 -0.8380
14658TIP3    H265466   4.833   3.486  13.229 -0.6210  0.9513 -0.3379
14659TIP3   OH265467   2.965   4.261   4.539 -0.0665 -0.5298  0.4843
14659TIP3    H165468   3.002   4.190   4.591 -2.2614 -2.0539  0.0255
14659TIP3    H265469   2.986   4.237   4.448 -0.0544 -0.1416  0.3825
14660TIP3   OH265470   1.137   0.127  12.196  0.3293  0.0538 -0.0981
14660TIP3    H165471   1.232   0.138  12.185  0.5059 -1.0253  0.3169
14660TIP3    H265472   1.102   0.146  12.109  0.8514  1.1773 -0.0814
14661TIP3   OH265473   5.221   0.307  11.528  0.2938 -0.2049  0.1356
14661TIP3    H165474   5.317   0.307  11.520  0.2780 -1.4254 -0.2622
14661TIP3    H265475   5.198   0.214  11.532 -0.6493  0.0969  3.1224
14662TIP3   OH265476   5.673   1.611   1.527  0.0815 -0.1009  0.4382
14662TIP3    H165477   5.625   1.694   1.532  0.4377  0.0511  1.5783
14662TIP3    H265478   5.760   1.636   1.497 -0.2548 -0.2573 -0.6897
14663TIP3   OH265479   3.772   4.978  12.345 -0.0267  0.2631  0.0500
14663TIP3    H165480   3.835   4.910  12.371  0.6456  0.9487  0.2396
14663TIP3    H265481   3.703   4.973  12.412 -0.0521 -0.3265 -0.0157
14664TIP3   OH265482   2.957   4.330   0.486  0.6264 -0.2207  0.0494
14664TIP3    H165483   2.967   4.390   0.559 -0.6134 -2.9110  2.5475
14664TIP3    H265484   2.975   4.244   0.523  2.0348 -1.4759 -3.3214
14665TIP3   OH265485   3.211   6.793   1.188 -0.2466  0.0637 -0.2151
14665TIP3    H165486   3.233   6.864   1.249  1.8710 -1.0243  0.3575
14665TIP3    H265487   3.249   6.820   1.105  2.4037 -1.2707  0.4910
14666TIP3   OH265488   3.301   4.290  12.564  0.1087 -0.0982 -0.3042
14666TIP3    H165489   3.207   4.292  12.579  0.4700  0.1687  2.0190
14666TIP3    H265490   3.315   4.212  12.509 -1.4059 -0.4054 -0.2548
14667TIP3   OH265491   0.751   6.737   4.054  0.0520  0.3884 -0.9271
14667TIP3    H165492   0.844   6.731   4.073  0.1744 -1.1427 -1.9558
14667TIP3    H265493   0.742   6.817   4.001  1.2969 -1.2360 -3.6816
14668TIP3   OH265494   5.184   0.631  11.069 -0.4108  0.4611 -0.6725
14668TIP3    H165495   5.267   0.598  11.035  0.3978  0.2660  1.4114
14668TIP3    H265496   5.192   0.726  11.062  0.6147  0.5072  0.8712
14669TIP3   OH265497   1.874   2.788   3.688  0.1605 -0.1415  0.1791
14669TIP3    H165498   1.845   2.807   3.777 -0.6979 -0.1073 -0.1008
14669TIP3    H265499   1.944   2.723   3.699  0.7455  0.6084  0.9281
14670TIP3   OH265500   4.258   3.794   1.353 -0.3125 -0.4767 -0.4124
14670TIP3    H165501   4.325   3.726   1.355  0.0966 -0.0833 -0.9858
14670TIP3    H265502   4.219   3.791   1.441  0.3254 -0.8204 -0.1394
14671TIP3   OH265503   4.785   0.174  12.337 -0.3724 -0.1602  0.5192
14671TIP3    H165504   4.868   0.220  12.348 -0.2443 -0.8316  2.6058
14671TIP3    H265505   4.797   0.121  12.258  1.2940 -0.4484  0.9461
14672TIP3   OH265506   3.903   1.226  15.577 -0.6636  0.3004  0.3255
14672TIP3    H165507   3.983   1.217  15.525 -0.6630  1.6176  0.0804
14672TIP3    H265508   3.917   1.167  15.651  0.6215  0.6682  0.3947
14673TIP3   OH265509   2.235   2.374   2.087  0.2982 -0.1527  0.2501
14673TIP3    H165510   2.301   2.426   2.133 -1.6385  1.7004  0.9829
14673TIP3    H265511   2.209   2.307   2.150 -0.3331  0.6539  0.8424
14674TIP3   OH265512   2.557   3.300  11.334  0.5164 -0.4585  0.4189
14674TIP3    H165513   2.470   3.319  11.370  0.6125  0.3789  0.2255
14674TIP3    H265514   2.566   3.205  11.340  0.2870 -0.3987  2.0618
14675TIP3   OH265515   1.091   4.280  11.110 -0.0048 -0.0692  0.0398
14675TIP3    H165516   1.179   4.307  11.137  0.7909 -0.7411 -1.8166
14675TIP3    H265517   1.060   4.351  11.055  0.3671 -0.9113 -1.2943
14676TIP3   OH265518   6.221   3.651  11.631  0.3284  0.0853  0.4992
14676TIP3    H165519   6.286   3.705  11.586 -1.6694  0.9468 -1.4568
14676TIP3    H265520   6.164   3.713  11.676 -1.6526 -0.3666 -1.3158
14677TIP3   OH265521   1.104   5.254  11.692 -0.3468  0.0077  0.0888
14677TIP3    H165522   1.020   5.208  11.693 -1.2558  1.5907 -1.0542
14677TIP3    H265523   1.100   5.310  11.615  2.9275 -1.9866 -1.6944
14678TIP3   OH265524   0.264   4.617   5.787 -0.0008  0.2142  0.0447
14678TIP3    H165525   0.293   4.529   5.766 -3.0544 -0.9969  0.7037
14678TIP3    H265526   0.219   4.647   5.709 -1.6305 -0.0094  0.8789
14679TIP3   OH265527   6.800   2.783  16.654  0.2716 -0.3539 -0.1481
14679TIP3    H165528   6.842   2.702  16.685  0.9398 -0.2188 -0.7046
14679TIP3    H265529   6.832   2.851  16.714  0.7441 -0.2764 -0.4825
14680TIP3   OH265530   6.568   0.832  16.205  0.4893  0.6098 -0.2374
14680TIP3    H165531   6.606   0.795  16.125 -0.1714 -1.5209  0.3814
14680TIP3    H265532   6.641   0.873  16.250  0.5268  3.5430 -2.8132
14681TIP3   OH265533   1.627   1.009  10.957  0.0507  0.3514 -0.3372
14681TIP3    H165534   1.556   1.065  10.927  0.3287  1.7955  1.5915
14681TIP3    H265535   1.584   0.933  10.996 -0.4318  0.9624  0.3288
14682TIP3   OH265536   5.470   0.307  11.652 -0.0574 -0.0242  0.0740
14682TIP3    H165537   5.419   0.325  11.731 -1.2834 -2.0654 -0.2154
14682TIP3    H265538   5.510   0.221  11.669  0.5255  0.0042 -1.1170
14683TIP3   OH265539   0.225   6.203   0.802 -0.2930  0.2183  0.2769
14683TIP3    H165540   0.163   6.243   0.741 -0.9654 -2.2968 -0.7733
14683TIP3    H265541   0.303   6.185   0.749 -1.1690 -2.7033 -0.1210
14684TIP3   OH265542   2.466   1.627   3.727 -0.6290 -0.5722  0.0251
14684TIP3    H165543   2.413   1.706   3.736 -0.8182 -0.8474  1.4316
14684TIP3    H265544   2.544   1.655   3.680 -1.9484 -0.1350 -1.9493
14685TIP3   OH265545   5.836   2.213  11.238 -0.0955  0.2509  0.3068
14685TIP3    H165546   5.848   2.122  11.212  0.1518  0.8377 -1.7037
14685TIP3    H265547   5.775   2.209  11.312  1.0634 -1.6470  1.1890
14686TIP3   OH265548   3.138   5.388   5.500 -0.3212 -0.6469  0.1067
14686TIP3    H165549   3.090   5.329   5.442 -0.3481  0.7553 -1.3185
14686TIP3    H265550   3.128   5.475   5.460  1.4241  0.0210  1.0783
14687TIP3   OH265551   3.040   6.400   0.065 -0.4757  0.3692  0.2085
14687TIP3    H165552   3.053   6.461  -0.007  1.1373 -0.0381  0.1276
14687TIP3    H265553   3.127   6.387   0.101 -1.2012  0.2173  1.9605
14688TIP3   OH265554   2.976   4.799  14.951 -0.0527  0.5725 -0.6727
14688TIP3    H165555   2.961   4.854  14.874 -2.2311  1.7882  0.5981
14688TIP3    H265556   3.048   4.741  14.925  2.7862  4.4391 -1.8102
14689TIP3   OH265557   4.427   0.212  11.467  0.0623  0.3782 -0.0398
14689TIP3    H165558   4.352   0.259  11.504 -2.2143 -3.9440  1.0857
14689TIP3    H265559   4.490   0.209  11.538 -0.3075  0.5758  0.3000
14690TIP3   OH265560   0.237   6.418  14.996 -0.0209  0.0167  0.2815
14690TIP3    H165561   0.221   6.331  14.958  1.0020  0.7679 -1.9272
14690TIP3    H265562   0.285   6.400  15.077  1.6448 -1.4116 -0.9838
14691TIP3   OH265563   0.406   0.218   3.852 -0.0979 -0.2031  0.0049
14691TIP3    H165564   0.398   0.175   3.937  1.9578 -0.5534  0.0410
14691TIP3    H265565   0.393   0.311   3.871 -4.2418 -0.6752 -0.0233
14692TIP3   OH265566   2.991   2.908   6.426 -0.2608  0.3903  0.0182
14692TIP3    H165567   3.004   2.849   6.501 -0.8246  0.6565  0.3268
14692TIP3    H265568   2.947   2.853   6.361  1.5356 -0.2536 -0.6806
14693TIP3   OH265569   2.907   3.337  14.274  0.5315  0.0112  0.3042
14693TIP3    H165570   2.851   3.260  14.266 -0.9337  1.0651  0.1633
14693TIP3    H265571   2.981   3.308  14.327  0.3431 -1.6740 -0.3254
14694TIP3   OH265572   5.758   2.496  12.681 -0.6039 -0.3622 -0.1079
14694TIP3    H165573   5.708   2.548  12.744 -2.2611 -1.7395 -0.2275
14694TIP3    H265574   5.779   2.416  12.729  2.4477  0.6208  0.2831
14695TIP3   OH265575   0.286   0.529  14.299  0.8864 -0.1363 -0.1250
14695TIP3    H165576   0.268   0.444  14.258 -0.0122 -0.6691  1.3185
14695TIP3    H265577   0.259   0.517  14.391 -2.1707  2.6136 -0.5545
14696TIP3   OH265578   3.954   4.613  16.831 -0.1354  0.4687  0.0488
14696TIP3    H165579   4.025   4.600  16.768  0.0195 -0.5799  0.4249
14696TIP3    H265580   3.892   4.543  16.812  0.9213 -1.1775  2.4426
14697TIP3   OH265581   6.416   3.231   6.351  0.3764  0.1626  0.5204
14697TIP3    H165582   6.461   3.274   6.424 -0.6710 -0.0094  1.2712
14697TIP3    H265583   6.341   3.288   6.333 -0.7393 -1.0672  1.1883
14698TIP3   OH265584   5.413   0.874  15.961 -0.3693 -0.3534 -0.3281
14698TIP3    H165585   5.392   0.790  15.921  0.0409 -0.1728 -0.9297
14698TIP3    H265586   5.376   0.868  16.049 -1.7561 -0.5337 -0.9212
14699TIP3   OH265587   2.612   6.392  13.039  0.2017 -0.2370  0.2410
14699TIP3    H165588   2.517   6.405  13.041  0.1222 -0.9702  1.1029
14699TIP3    H265589   2.646   6.476  13.009 -0.7279 -0.0139 -0.2157
14700TIP3   OH265590   4.765   1.372   2.761  0.4918  0.7387 -0.3305
14700TIP3    H165591   4.731   1.460   2.774 -0.0353  0.3420  1.1267
14700TIP3    H265592   4.720   1.319   2.827  1.6909 -0.3866 -0.3900
14701TIP3   OH265593   1.984   0.822  14.559  0.8041 -0.1187 -0.5245
14701TIP3    H165594   1.929   0.746  14.579 -0.7738  0.5714 -2.0731
14701TIP3    H265595   1.991   0.869  14.642  0.3261 -1.0414  0.0451
14702TIP3   OH265596   6.680   6.178  15.927  0.1364  0.2832 -0.7175
14702TIP3    H165597   6.665   6.209  16.016 -2.1590  0.4611 -1.1509
14702TIP3    H265598   6.736   6.101  15.937  1.2529  1.2701  0.7502
14703TIP3   OH265599   5.814   4.937  14.456 -0.5240  0.1463 -0.4976
14703TIP3    H165600   5.884   5.000  14.472 -0.5886  0.2083 -0.4558
14703TIP3    H265601   5.803   4.936  14.361 -1.2953  1.0465 -0.4265
14704TIP3   OH265602   0.192   0.506   1.952 -0.0683 -0.5001  0.2039
14704TIP3    H165603   0.235   0.583   1.991  1.4844 -1.2478 -0.0036
14704TIP3    H265604   0.100   0.533   1.942  0.3010  1.0670  0.8089
14705TIP3   OH265605   4.328   4.805   2.447 -0.1644  0.1406 -0.0851
14705TIP3    H165606   4.401   4.866   2.437 -1.2212  1.4952  0.3210
14705TIP3    H265607   4.319   4.794   2.542 -0.8287  0.4013 -0.1154
14706TIP3   OH265608   4.649   2.806  15.506  0.1440 -0.0663 -0.7075
14706TIP3    H165609   4.666   2.887  15.459 -2.0246  0.0518 -1.3509
14706TIP3    H265610   4.674   2.737  15.446  4.1830  0.0354  0.6633
14707TIP3   OH265611   5.103   5.897   1.459 -0.8673  0.3329  0.7579
14707TIP3    H165612   5.135   5.809   1.441 -0.1348  0.4885  1.2451
14707TIP3    H265613   5.016   5.885   1.496 -0.9834 -0.1553  0.3298
14708TIP3   OH265614   1.667   0.585   5.580  0.5077  0.5616 -0.3110
14708TIP3    H165615   1.589   0.639   5.597  1.5158  2.0000 -0.1153
14708TIP3    H265616   1.655   0.508   5.636 -1.0466  0.4938 -0.7099
14709TIP3   OH265617   2.921   4.295   3.316  0.3435 -0.4771 -0.2201
14709TIP3    H165618   2.991   4.360   3.320  0.6296 -0.7190 -1.0622
14709TIP3    H265619   2.923   4.264   3.225  0.1260 -1.5657  0.1404
14710TIP3   OH265620   6.329   5.823   1.199 -0.2216 -0.2148  0.4267
14710TIP3    H165621   6.235   5.812   1.185 -0.1205 -1.0347  0.3544
14710TIP3    H265622   6.368   5.745   1.158  0.7220  1.5924 -2.2697
14711TIP3   OH265623   0.834   4.929  16.679 -0.7843 -0.5007 -0.0156
14711TIP3    H165624   0.929   4.920  16.666 -0.7133  1.2519 -0.9077
14711TIP3    H265625   0.823   4.927  16.774  0.0229 -1.7832  0.0582
14712TIP3   OH265626   4.646   4.648   3.821 -0.4379  0.1032 -0.1344
14712TIP3    H165627   4.733   4.670   3.854  0.2658 -0.4860 -1.5668
14712TIP3    H265628   4.656   4.645   3.726 -1.8116 -0.8527 -0.2633
14713TIP3   OH265629   1.696   2.804   4.904  0.1474  0.1956 -0.2016
14713TIP3    H165630   1.634   2.812   4.832  0.8978 -1.3549 -1.0330
14713TIP3    H265631   1.642   2.810   4.983 -1.0732 -1.1443 -0.9238
14714TIP3   OH265632   5.485   6.215  14.140 -0.0839 -0.6655  0.6821
14714TIP3    H165633   5.572   6.236  14.176  0.3084 -1.7300  0.3977
14714TIP3    H265634   5.437   6.297  14.144 -0.0460 -0.7234  3.6147
14715TIP3   OH265635   0.996   1.298   4.880 -0.6563 -0.0917 -0.5149
14715TIP3    H165636   0.912   1.336   4.855  0.7735  2.4036 -1.6852
14715TIP3    H265637   1.020   1.342   4.961  0.5903  0.9326 -1.4093
14716TIP3   OH265638   1.133   1.112  13.212  0.3999  0.3833  0.3042
14716TIP3    H165639   1.153   1.033  13.264 -0.1193 -0.9321 -1.4521
14716TIP3    H265640   1.053   1.147  13.251  0.2623 -0.3321  0.6774
14717TIP3   OH265641   0.590   2.017   0.502 -0.8804  0.3818 -0.1608
14717TIP3    H165642   0.685   2.016   0.514 -1.0011 -1.0875  0.8180
14717TIP3    H265643   0.565   2.108   0.517  0.4840  0.9861 -1.4180
14718TIP3   OH265644   5.281   0.031  14.110 -0.3137  0.0684  0.1096
14718TIP3    H165645   5.281   0.037  14.014  0.5760  0.8801  0.1523
14718TIP3    H265646   5.255   0.118  14.139  0.4154  0.1292  0.6098
14719TIP3   OH265647   0.060   4.900   5.214 -0.0960  0.0986  0.0892
14719TIP3    H165648   0.052   4.840   5.289 -1.7041  0.7773  0.4834
14719TIP3    H265649   0.051   4.987   5.252  1.2084  0.5645 -0.6241
14720TIP3   OH265650   0.753   3.794  11.888 -0.5375  0.3409  0.4690
14720TIP3    H165651   0.794   3.736  11.953  0.5596  0.6205  0.0317
14720TIP3    H265652   0.826   3.827  11.837 -1.2223  1.6952  0.3623
14721TIP3   OH265653   4.773   2.368  11.862  0.5389  0.1111 -0.4617
14721TIP3    H165654   4.685   2.402  11.876  0.0732 -1.3552  0.2515
14721TIP3    H265655   4.828   2.416  11.924  0.3271  1.3006 -1.1760
14722TIP3   OH265656   5.747   2.232  13.192  0.5570  0.1779 -0.2062
14722TIP3    H165657   5.829   2.185  13.177  2.1039  2.1210  1.8839
14722TIP3    H265658   5.694   2.173  13.245  0.6804 -1.0024 -1.3898
14723TIP3   OH265659   6.487   0.531  14.894  0.2014 -0.1059  0.5645
14723TIP3    H165660   6.553   0.518  14.962 -0.6905 -1.8601  1.1067
14723TIP3    H265661   6.448   0.616  14.914  2.0735  0.8044  0.4183
14724TIP3   OH265662   0.289   1.882  16.598  0.1421 -0.1378  0.0331
14724TIP3    H165663   0.258   1.798  16.564  0.9976 -0.7378  0.6943
14724TIP3    H265664   0.370   1.899  16.549  1.1132 -0.7604  1.3982
14725TIP3   OH265665   4.583   5.538  11.797 -0.0338 -0.0576 -0.4581
14725TIP3    H165666   4.616   5.550  11.708  0.8673 -0.8327 -0.2304
14725TIP3    H265667   4.597   5.623  11.840  0.8483 -0.1101 -0.6290
14726TIP3   OH265668   5.190   4.212  11.674 -0.2427 -0.0379  0.2897
14726TIP3    H165669   5.268   4.157  11.685  0.0026 -0.0364 -1.3002
14726TIP3    H265670   5.171   4.245  11.762  1.9289  0.4658  0.5933
14727TIP3   OH265671   2.879   6.506   2.520  0.0379 -0.2278 -0.3747
14727TIP3    H165672   2.891   6.435   2.584  2.1061 -1.0388 -1.6191
14727TIP3    H265673   2.823   6.569   2.565 -0.8905 -2.1049  1.1986
14728TIP3   OH265674   4.009   3.528  10.792  0.0692 -0.1490 -0.0774
14728TIP3    H165675   3.978   3.593  10.855 -1.1429 -0.8604  0.0695
14728TIP3    H265676   3.959   3.546  10.713  1.1355  0.3371 -0.6587
14729TIP3   OH265677   4.950   5.902  14.260 -0.3413  0.0731 -0.5165
14729TIP3    H165678   4.875   5.958  14.239  0.0679  0.5428 -0.7613
14729TIP3    H265679   4.966   5.917  14.353 -0.8609 -0.4104 -0.3469
14730TIP3   OH265680   6.017   1.553  11.694  0.2064  0.1829 -0.1550
14730TIP3    H165681   6.047   1.462  11.689 -0.9776 -0.3889  2.3232
14730TIP3    H265682   5.973   1.559  11.779 -1.2825  2.6136 -1.0470
14731TIP3   OH265683   1.781   1.275   3.933 -0.0711  0.3274  0.1928
14731TIP3    H165684   1.839   1.351   3.924 -0.0532  0.4727  1.4172
14731TIP3    H265685   1.794   1.246   4.023 -0.8796 -0.4855  0.0534
14732TIP3   OH265686   4.248   0.802   0.864  0.4405  0.2063  0.2772
14732TIP3    H165687   4.250   0.710   0.835 -0.2836 -0.1535  1.3643
14732TIP3    H265688   4.304   0.804   0.941 -0.9111  0.3328  1.2570
14733TIP3   OH265689   4.109   2.578  12.825  0.1300  0.2088  0.5844
14733TIP3    H165690   4.130   2.667  12.798 -2.3241  0.8072  0.5406
14733TIP3    H265691   4.065   2.539  12.748 -1.0250 -0.2091  1.4420
14734TIP3   OH265692   5.486   4.954   5.403  0.3012 -0.4556 -0.7410
14734TIP3    H165693   5.561   4.898   5.384  0.3470 -0.8128  0.4041
14734TIP3    H265694   5.492   4.970   5.498 -0.2162  0.7556 -0.9062
14735TIP3   OH265695   3.398   1.540  12.158 -0.0869  0.5718 -0.0537
14735TIP3    H165696   3.421   1.625  12.120 -1.2056  1.2693  0.7878
14735TIP3    H265697   3.402   1.554  12.252  0.7351 -0.6035  0.0824
14736TIP3   OH265698   3.066   0.564   4.415  0.2478 -0.7293  0.4464
14736TIP3    H165699   3.080   0.653   4.448  2.1944 -0.8875  0.0552
14736TIP3    H265700   2.982   0.538   4.454 -1.8044  2.3131 -1.6741
14737TIP3   OH265701   0.744   3.322  12.719 -0.4251 -0.5402 -0.2701
14737TIP3    H165702   0.785   3.261  12.781 -1.6284 -1.0758  0.0038
14737TIP3    H265703   0.769   3.409  12.752  1.0260 -0.8602 -0.4817
14738TIP3   OH265704   6.127   1.044  15.015 -0.2379 -0.0519  0.2066
14738TIP3    H165705   6.111   1.061  15.108 -2.4343 -2.6744  0.3512
14738TIP3    H265706   6.064   1.101  14.969 -0.5978 -0.3151  0.3771
14739TIP3   OH265707   4.446   1.860  13.083 -0.1642  0.4285 -0.3003
14739TIP3    H165708   4.493   1.843  13.164  0.0815 -0.9865 -0.7173
14739TIP3    H265709   4.353   1.857  13.107 -0.0898  0.1060 -0.0541
14740TIP3   OH265710   4.093   2.895  15.169 -0.1370 -0.1476 -0.1718
14740TIP3    H165711   4.081   2.800  15.172 -1.3980  0.0166  0.0970
14740TIP3    H265712   4.022   2.930  15.223  0.3708  0.9444 -0.2077
14741TIP3   OH265713   3.382   3.101   5.177 -0.1926 -0.3764  0.2120
14741TIP3    H165714   3.401   3.173   5.236 -1.0103 -0.3460  0.4487
14741TIP3    H265715   3.404   3.134   5.090  3.6511 -1.3521  0.7307
14742TIP3   OH265716   5.469   3.311  15.428 -0.0453 -0.0822 -0.7619
14742TIP3    H165717   5.379   3.278  15.423  0.4186 -1.1620 -2.3657
14742TIP3    H265718   5.467   3.394  15.381 -0.1245 -0.2869 -1.1203
14743TIP3   OH265719   4.487   5.148  11.876 -0.1487 -0.1516  0.1998
14743TIP3    H165720   4.537   5.125  11.955 -1.9222 -2.6061  0.6633
14743TIP3    H265721   4.550   5.195  11.821  1.5487  0.2525  2.3984
14744TIP3   OH265722   3.259   1.184   4.149 -0.2487  0.6662 -0.2790
14744TIP3    H165723   3.287   1.123   4.217  0.8724  1.0669 -0.3763
14744TIP3    H265724   3.315   1.261   4.161 -1.8673  1.8290  0.0746
14745TIP3   OH265725   4.659   0.179  13.066  0.3349 -0.0769  0.0914
14745TIP3    H165726   4.688   0.202  12.978 -0.3095 -0.0414 -0.1168
14745TIP3    H265727   4.600   0.105  13.053  1.7374 -1.3288  0.6705
14746TIP3   OH265728   5.259   2.376  15.501 -0.3811 -0.1626  0.4036
14746TIP3    H165729   5.295   2.444  15.557  0.4078 -1.8607  2.0046
14746TIP3    H265730   5.168   2.366  15.529 -0.5243  0.2883  0.1032
14747TIP3   OH265731   5.090   4.218  15.544 -0.3005  0.2466  0.0887
14747TIP3    H165732   5.182   4.242  15.548  0.1887 -1.3294 -1.1555
14747TIP3    H265733   5.046   4.297  15.514  0.7459  0.7660 -0.1087
14748TIP3   OH265734   5.375   4.757  13.222  0.0551 -0.0248  0.4110
14748TIP3    H165735   5.284   4.786  13.228 -0.3303 -1.2691  0.7185
14748TIP3    H265736   5.370   4.661  13.220  1.3904 -0.1244  0.9835
14749TIP3   OH265737   2.577   5.665   2.262  0.7376 -0.3358 -0.1073
14749TIP3    H165738   2.553   5.734   2.325  2.9683  0.7562 -0.4329
14749TIP3    H265739   2.542   5.696   2.178 -1.6719 -1.4891  0.4088
14750TIP3   OH265740   2.632   6.311   2.876  0.4049  0.1940 -1.1764
14750TIP3    H165741   2.627   6.222   2.910  0.2146  1.1181  1.3514
14750TIP3    H265742   2.549   6.323   2.829 -0.0277 -0.6261 -0.6464
14751TIP3   OH265743   0.951   4.161   6.075 -0.2070 -0.0782  0.5521
14751TIP3    H165744   0.885   4.229   6.080 -0.4735 -0.0948 -2.0506
14751TIP3    H265745   0.983   4.151   6.164 -0.1118  3.4817  0.9545
14752TIP3   OH265746   5.701   1.441  13.419  0.1648 -0.3288 -0.2279
14752TIP3    H165747   5.796   1.431  13.422  0.2075  0.4089  1.7573
14752TIP3    H265748   5.686   1.531  13.447 -1.0872 -0.0822 -1.5858
14753TIP3   OH265749   0.568   4.208  11.743  0.5310  0.6033 -0.3122
14753TIP3    H165750   0.483   4.200  11.700  1.2656  0.8655 -1.8756
14753TIP3    H265751   0.612   4.124  11.727  0.2830  0.2020  1.1174
14754TIP3   OH265752   5.194   1.395  17.159  0.1287  0.1877  0.1434
14754TIP3    H165753   5.228   1.466  17.212 -1.1218  0.6206  0.4018
14754TIP3    H265754   5.139   1.344  17.219 -0.6696  0.2318 -0.5244
14755TIP3   OH265755   4.279   6.270  12.896 -0.8655 -0.6527 -0.5437
14755TIP3    H165756   4.196   6.311  12.921  0.5628  1.1658  1.3286
14755TIP3    H265757   4.316   6.329  12.831 -0.2472 -0.5625 -0.1156
14756TIP3   OH265758   5.395   2.179   1.320 -0.0743  0.1026  0.1041
14756TIP3    H165759   5.472   2.234   1.335 -1.5754  1.7698  2.1930
14756TIP3    H265760   5.338   2.233   1.266 -0.6021 -0.3316  0.2254
14757TIP3   OH265761   2.013   6.330  12.902  0.1560 -0.0876 -0.1105
14757TIP3    H165762   2.045   6.418  12.921 -1.3618  0.4272  0.1851
14757TIP3    H265763   2.090   6.282  12.871  1.1790  1.0870  0.5667
14758TIP3   OH265764   0.800   0.977  14.795 -0.5828 -0.0397 -0.4274
14758TIP3    H165765   0.799   0.959  14.701 -0.1497 -0.1398 -0.4154
14758TIP3    H265766   0.712   1.009  14.815 -0.5068  0.5237 -0.9715
14759TIP3   OH265767   2.455   0.836  11.765  0.0285 -0.3289 -0.5655
14759TIP3    H165768   2.364   0.824  11.793  0.1065 -0.9057 -0.5496
14759TIP3    H265769   2.453   0.913  11.710  0.1923  2.0496  2.6068
14760TIP3   OH265770   2.757   2.099   0.552 -0.0137  0.1290 -0.2054
14760TIP3    H165771   2.835   2.046   0.542 -0.6120 -0.8879  0.5176
14760TIP3    H265772   2.783   2.172   0.608  0.4645 -0.0761 -0.1678
14761TIP3   OH265773   5.975   5.074   3.672 -0.3677 -0.1756 -0.8737
14761TIP3    H165774   5.965   5.003   3.734  1.4060 -0.0743 -0.4245
14761TIP3    H265775   5.997   5.150   3.726  0.5882  0.0526 -1.5711
14762TIP3   OH265776   1.893   1.599  15.979 -0.3023  0.0007  0.1197
14762TIP3    H165777   1.951   1.591  15.903 -1.0896  0.2012 -0.5047
14762TIP3    H265778   1.805   1.594  15.943 -0.6906 -3.1287  1.3891
14763TIP3   OH265779   5.271   1.051   3.491 -0.5647 -0.1391  0.6913
14763TIP3    H165780   5.345   1.059   3.552  0.4260  2.1539 -0.7401
14763TIP3    H265781   5.232   1.139   3.491 -1.2806 -0.4554 -1.0746
14764TIP3   OH265782   3.113   4.862  13.247 -0.1927  0.3582 -0.0033
14764TIP3    H165783   3.068   4.946  13.235 -3.2980 -0.9461  2.1322
14764TIP3    H265784   3.084   4.809  13.173 -1.1981 -0.0741  0.6997
14765TIP3   OH265785   6.499   2.996   0.274 -0.4479  0.1023 -0.6113
14765TIP3    H165786   6.570   3.048   0.236 -0.2023 -1.1357 -1.8819
14765TIP3    H265787   6.492   3.027   0.364  0.7360  1.2454 -0.8997
14766TIP3   OH265788   6.308   4.253  13.089  0.0927  0.1278  0.1352
14766TIP3    H165789   6.303   4.313  13.015 -0.0573 -1.1648 -0.9251
14766TIP3    H265790   6.226   4.265  13.136 -0.5181 -0.2192 -0.8365
14767TIP3   OH265791   3.139   0.055   2.485 -0.1546 -0.3281 -0.0293
14767TIP3    H165792   3.124  -0.032   2.447  0.9691 -0.2063 -0.7672
14767TIP3    H265793   3.055   0.100   2.477 -0.9369 -1.5578  0.9412
14768TIP3   OH265794   0.096   3.511  13.261  0.5196  0.3143  0.1718
14768TIP3    H165795   0.078   3.577  13.328  1.4724 -0.4812  1.2221
14768TIP3    H265796   0.036   3.439  13.280  3.7126 -1.7647  2.8578
14769TIP3   OH265797   6.424   0.008   2.212  0.0314 -0.6203  0.2745
14769TIP3    H165798   6.432   0.082   2.272 -1.7273 -0.7648  0.7163
14769TIP3    H265799   6.473  -0.062   2.256 -1.2265 -0.7194  1.5629
14770TIP3   OH265800   4.065   4.778   5.910 -0.1237  0.0679  0.3086
14770TIP3    H165801   4.063   4.868   5.878  0.3657 -0.0527 -0.0673
14770TIP3    H265802   4.157   4.752   5.903 -0.5680 -1.1219 -1.4633
14771TIP3   OH265803   0.832   0.646   3.835  0.2742  1.7074  0.0687
14771TIP3    H165804   0.877   0.571   3.796 -2.3020 -0.2252  0.5912
14771TIP3    H265805   0.845   0.718   3.774  2.2921  0.6552 -0.7635
14772TIP3   OH265806   1.229   3.082  14.398 -0.1071 -0.1946  0.0502
14772TIP3    H165807   1.287   3.158  14.393  0.6650 -0.7256  0.9047
14772TIP3    H265808   1.282   3.014  14.440 -1.3801 -0.6615  0.9012
14773TIP3   OH265809   2.183   1.193   4.685 -0.3833  0.9018  0.8402
14773TIP3    H165810   2.197   1.263   4.621 -0.5334 -0.1375 -0.3454
14773TIP3    H265811   2.153   1.239   4.764  1.1868  2.3356  0.6371
14774TIP3   OH265812   3.237   1.658   3.669 -0.3393 -0.1546  0.0215
14774TIP3    H165813   3.302   1.594   3.640 -0.6109 -0.9843  1.1900
14774TIP3    H265814   3.247   1.731   3.609 -0.2025 -1.4069 -1.5254
14775TIP3   OH265815   2.746   2.819  10.757 -0.5259 -0.1646 -0.4765
14775TIP3    H165816   2.668   2.766  10.771 -0.3351 -0.5309 -0.7970
14775TIP3    H265817   2.812   2.781  10.814 -0.8709  0.8010  0.6028
14776TIP3   OH265818   0.917   3.458   5.426 -0.0063  0.0271 -0.4213
14776TIP3    H165819   0.852   3.389   5.410 -0.2278  0.4269 -1.3095
14776TIP3    H265820   0.990   3.413   5.469  0.5372 -1.1132 -2.4287
14777TIP3   OH265821   4.925   3.280   3.272  0.1354 -0.0160  0.0471
14777TIP3    H165822   4.978   3.350   3.234 -0.2955  1.3402  1.8767
14777TIP3    H265823   4.843   3.283   3.222 -0.3036  1.5532  0.8013
14778TIP3   OH265824   5.329   3.202   5.552  0.1020 -0.2349  0.0249
14778TIP3    H165825   5.283   3.169   5.474 -0.0587 -1.0351  0.4476
14778TIP3    H265826   5.414   3.231   5.519  0.1324 -0.8044 -0.4165
14779TIP3   OH265827   4.210   1.455  15.524 -0.2980 -0.2688 -0.0993
14779TIP3    H165828   4.250   1.389  15.581  1.2887  1.8446  1.3114
14779TIP3    H265829   4.246   1.538  15.555 -1.4988  1.1807 -2.4771
14780TIP3   OH265830   2.489   2.503  16.335 -0.3614  0.1298  0.3362
14780TIP3    H165831   2.403   2.463  16.350 -0.7150  1.1228  0.9535
14780TIP3    H265832   2.536   2.489  16.417 -0.0970  0.0086  0.1619
14781TIP3   OH265833   4.915   5.295  15.203  0.2744  0.1897  0.2049
14781TIP3    H165834   4.852   5.319  15.135 -0.2729  0.4100  0.7863
14781TIP3    H265835   4.883   5.339  15.282  0.1638 -1.1508  0.9196
14782TIP3   OH265836   1.878   4.729   2.816 -0.1138  0.1240  0.2331
14782TIP3    H165837   1.922   4.808   2.846 -0.6300  1.0018 -1.2903
14782TIP3    H265838   1.801   4.760   2.768 -2.5265 -1.3734  2.9532
14783TIP3   OH265839   6.109   3.933   4.865 -0.1939  0.5793  0.0717
14783TIP3    H165840   6.052   3.900   4.796 -0.5331  4.7387 -1.7890
14783TIP3    H265841   6.050   3.964   4.933 -0.0622  1.7594 -0.3425
14784TIP3   OH265842   2.636   5.280  12.735 -0.9413  0.7795  0.9686
14784TIP3    H165843   2.587   5.347  12.782  0.0496  2.7661 -0.7511
14784TIP3    H265844   2.587   5.267  12.654 -0.4852  0.2599  0.7707
14785TIP3   OH265845   1.176   2.893  12.764  0.5478 -0.1973  0.1351
14785TIP3    H165846   1.266   2.859  12.765  0.3904 -0.6223 -0.0923
14785TIP3    H265847   1.150   2.894  12.856  0.9016  0.2366  0.2315
14786TIP3   OH265848   5.861   2.919  13.061  0.0627  0.1369 -0.3815
14786TIP3    H165849   5.848   3.014  13.052  1.5634  0.5023  1.0573
14786TIP3    H265850   5.794   2.892  13.123  0.1231  0.3790 -0.2097
14787TIP3   OH265851   6.558   6.459  13.998  0.0116 -0.9240 -0.6383
14787TIP3    H165852   6.582   6.402  13.925 -0.7752 -0.2417 -1.4435
14787TIP3    H265853   6.463   6.472  13.988  0.0931  0.0928 -0.1493
14788TIP3   OH265854   5.046   0.605  14.104 -0.0444 -0.4850  0.1690
14788TIP3    H165855   5.046   0.559  14.020 -1.5762 -0.2536  0.0241
14788TIP3    H265856   5.138   0.616  14.125  0.3574 -2.0205 -0.6733
14789TIP3   OH265857   3.301   5.185  12.938  0.2887 -0.4521  0.0433
14789TIP3    H165858   3.340   5.267  12.907  1.0996 -1.0590 -0.5534
14789TIP3    H265859   3.282   5.201  13.030  3.9370 -0.8544  0.9489
14790TIP3   OH265860   4.902   6.774   0.087 -0.1570 -0.2784  0.1073
14790TIP3    H165861   4.948   6.702   0.043 -0.5219  0.4428 -1.5281
14790TIP3    H265862   4.972   6.832   0.118  0.1034 -0.6440  0.2031
14791TIP3   OH265863   6.446   4.445   0.458  0.2096 -0.3747  0.0881
14791TIP3    H165864   6.359   4.438   0.418  0.0425  3.5357 -0.3858
14791TIP3    H265865   6.450   4.371   0.519 -3.5832 -0.3910  0.4405
14792TIP3   OH265866   6.311   2.873   5.771 -0.0881 -0.4348  0.7894
14792TIP3    H165867   6.343   2.789   5.739 -0.5514 -0.5732  0.6867
14792TIP3    H265868   6.286   2.857   5.862 -1.0793 -0.6513  0.4875
14793TIP3   OH265869   4.399   2.007  15.382 -0.3906 -0.0249  0.1430
14793TIP3    H165870   4.433   2.013  15.471  1.0107  1.2584 -0.4470
14793TIP3    H265871   4.463   1.952  15.336 -1.0518 -0.5979 -0.0876
14794TIP3   OH265872   6.774   4.977  10.607 -0.2550  0.2943  0.2777
14794TIP3    H165873   6.854   4.925  10.596 -0.4005 -0.1377  1.1940
14794TIP3    H265874   6.705   4.923  10.568 -0.1883  0.3975  0.0228
14795TIP3   OH265875   3.168   2.134   5.460 -0.1009 -0.2505 -0.2215
14795TIP3    H165876   3.163   2.044   5.428 -1.1342 -0.0740 -0.5654
14795TIP3    H265877   3.099   2.181   5.413 -0.2657  0.4850  0.7307
14796TIP3   OH265878   3.699   5.644  13.863  0.2315  0.5167 -0.7550
14796TIP3    H165879   3.783   5.631  13.907 -0.7666  1.3860  1.4875
14796TIP3    H265880   3.666   5.556  13.847  0.1572  0.1581  1.2095
14797TIP3   OH265881   1.398   3.939  13.730  0.4023 -0.4409 -0.7448
14797TIP3    H165882   1.459   3.923  13.658  1.4906 -0.5871  0.1761
14797TIP3    H265883   1.451   3.985  13.795 -0.9122  0.8545 -0.5757
14798TIP3   OH265884   2.600   4.801   5.629  0.3781  0.5917  0.0412
14798TIP3    H165885   2.513   4.839   5.642  0.7028  1.6341 -0.7427
14798TIP3    H265886   2.618   4.752   5.709 -0.5176  1.1753  0.5988
14799TIP3   OH265887   0.140   4.403   4.889  0.4108 -0.1903  0.3490
14799TIP3    H165888   0.129   4.386   4.982  0.3147 -0.2755  0.3231
14799TIP3    H265889   0.050   4.411   4.856  0.4706  0.9879  0.4717
14800TIP3   OH265890   0.124   6.437  13.825  0.2699  0.5568  0.1424
14800TIP3    H165891   0.069   6.389  13.763 -0.1822  1.2560 -0.0125
14800TIP3    H265892   0.155   6.513  13.776  2.2754 -0.3893 -0.1073
14801TIP3   OH265893   5.282   5.702   0.100 -0.2099  0.4937 -0.2368
14801TIP3    H165894   5.294   5.715   0.194 -0.1357  0.6068 -0.2605
14801TIP3    H265895   5.336   5.626   0.079  0.1023  0.7192 -0.2590
14802TIP3   OH265896   0.407   1.407  13.565 -0.1456 -0.0131 -0.1017
14802TIP3    H165897   0.375   1.474  13.505  1.0417 -0.1636 -0.9207
14802TIP3    H265898   0.501   1.426  13.575  0.3247 -1.8465 -0.7664
14803TIP3   OH265899   3.640   1.548  11.567 -0.7488  0.6695 -0.1937
14803TIP3    H165900   3.555   1.574  11.533 -0.9556  0.3908  0.1103
14803TIP3    H265901   3.694   1.627  11.560 -1.1643  0.9719  0.0494
14804TIP3   OH265902   3.630   4.984  15.979  0.2875 -0.4488  0.3374
14804TIP3    H165903   3.555   5.035  15.952  0.7184 -0.5391 -1.0593
14804TIP3    H265904   3.593   4.912  16.031 -0.4087  0.5660  1.2633
14805TIP3   OH265905   5.993   5.240  11.476  0.0743  0.0053 -0.1688
14805TIP3    H165906   6.020   5.330  11.457 -0.3009 -0.0781 -1.1494
14805TIP3    H265907   5.898   5.240  11.460  0.2673 -0.8500 -1.3700
14806TIP3   OH265908   0.249   1.711   1.800 -0.4446  0.0474 -0.1252
14806TIP3    H165909   0.275   1.765   1.725  0.6220 -0.2672  0.0068
14806TIP3    H265910   0.290   1.755   1.875  2.2110 -2.0713 -0.2417
14807TIP3   OH265911   3.299   4.649  15.031 -0.6470  0.2826 -0.0599
14807TIP3    H165912   3.334   4.689  14.951  1.1399  0.5809  0.8337
14807TIP3    H265913   3.284   4.722  15.090  0.4599 -0.1376  0.7676
14808TIP3   OH265914   3.085   3.827   1.444 -0.1559  0.1186  0.0514
14808TIP3    H165915   3.115   3.917   1.430 -0.1879  0.1549  0.2067
14808TIP3    H265916   3.078   3.819   1.539  1.9870 -0.7554  0.1620
14809TIP3   OH265917   5.437   4.448   2.007  0.5731 -0.1081  0.3225
14809TIP3    H165918   5.456   4.361   1.973  0.7793  0.5169 -1.1817
14809TIP3    H265919   5.348   4.441   2.042  0.8930 -1.1325  0.9528
14810TIP3   OH265920   2.026   6.733   5.553  0.5848  0.2395  0.1488
14810TIP3    H165921   2.014   6.702   5.463 -2.1372  3.5548 -0.7025
14810TIP3    H265922   2.119   6.756   5.557  1.0021 -1.0012 -1.4297
14811TIP3   OH265923   6.601   1.065   4.481 -0.6369 -0.2926  0.6287
14811TIP3    H165924   6.520   1.100   4.446 -1.5835 -0.7806  2.2806
14811TIP3    H265925   6.583   1.049   4.574  1.5383  0.1855  1.1647
14812TIP3   OH265926   6.045   1.086  16.576 -0.1125 -0.0700  0.1764
14812TIP3    H165927   6.120   1.063  16.630  1.3149  2.4040 -0.6957
14812TIP3    H265928   6.065   1.173  16.542 -1.1996 -1.2710 -3.8539
14813TIP3   OH265929   6.611   2.572  15.400 -0.2113  0.1532 -0.0765
14813TIP3    H165930   6.683   2.629  15.425  1.3864 -1.5027 -0.8021
14813TIP3    H265931   6.534   2.629  15.401  1.4869  2.5769 -1.8825
14814TIP3   OH265932   0.446   2.749  17.042 -0.4260  0.2741 -0.1658
14814TIP3    H165933   0.537   2.779  17.039 -0.6935  1.0224 -1.2970
14814TIP3    H265934   0.416   2.771  17.130  0.7270 -0.6908  0.4718
14815TIP3   OH265935   3.993   2.113   4.154  0.3915  0.1457 -0.0015
14815TIP3    H165936   3.978   2.091   4.246  2.4336 -3.4136 -0.4633
14815TIP3    H265937   4.066   2.057   4.127 -1.0921  0.0780 -4.1737
14816TIP3   OH265938   2.726   0.866   3.025 -0.6613  0.0113  0.3067
14816TIP3    H165939   2.758   0.776   3.022  3.3107  1.3355  0.8573
14816TIP3    H265940   2.741   0.900   2.936 -3.4145 -0.1899 -0.3029
14817TIP3   OH265941   6.546   0.315   0.315 -0.4113  0.1382  0.5740
14817TIP3    H165942   6.554   0.287   0.406  2.8369  1.8855  0.8967
14817TIP3    H265943   6.583   0.243   0.264  0.4992  0.3836  0.8685
14818TIP3   OH265944   5.268   6.501  13.394  0.7553  0.0811  0.0584
14818TIP3    H165945   5.260   6.544  13.309  0.0517  0.9806  0.5665
14818TIP3    H265946   5.347   6.538  13.433  1.2818 -0.5982 -0.3392
14819TIP3   OH265947   6.435   6.392   4.870  0.2968  0.2998 -0.2857
14819TIP3    H165948   6.509   6.451   4.884 -0.6628  1.3193  0.6465
14819TIP3    H265949   6.378   6.439   4.809  0.1577 -0.2452 -0.5839
14820TIP3   OH265950   1.649   1.736   3.274  0.2570 -0.0173  0.6088
14820TIP3    H165951   1.625   1.719   3.183 -2.3663 -0.3248  1.2981
14820TIP3    H265952   1.625   1.827   3.289  0.7544  0.0575  0.9633
14821TIP3   OH265953   2.313   1.521  11.537 -0.6722 -0.0021  0.6328
14821TIP3    H165954   2.387   1.462  11.522 -1.5558 -1.0919  0.5205
14821TIP3    H265955   2.352   1.609  11.538  0.3437 -0.4060 -1.4462
14822TIP3   OH265956   0.904   2.545  11.140 -0.2275 -1.3408 -0.1986
14822TIP3    H165957   0.886   2.606  11.211  0.0470  1.5452 -2.5042
14822TIP3    H265958   0.959   2.477  11.180  0.6506  0.6753  2.1441
14823TIP3   OH265959   2.085   1.808   3.504 -0.4869 -0.0342 -0.4295
14823TIP3    H165960   2.032   1.871   3.455 -0.8329 -0.3190 -0.4243
14823TIP3    H265961   2.163   1.795   3.450  0.0234  1.0963  0.0030
14824TIP3   OH265962   2.001   1.440   2.902  0.3506 -0.5256 -0.0436
14824TIP3    H165963   2.051   1.371   2.858 -0.2045 -1.2968  0.5179
14824TIP3    H265964   1.910   1.413   2.892 -0.1899  2.2931 -3.4960
14825TIP3   OH265965   0.843   0.940  13.213  0.1364  0.4554 -0.5202
14825TIP3    H165966   0.803   0.899  13.289  0.0092  0.3520 -0.6417
14825TIP3    H265967   0.843   1.033  13.232 -1.3874  0.5879 -1.0916
14826TIP3   OH265968   6.104   2.996   3.031 -0.8451  0.2598  0.4479
14826TIP3    H165969   6.089   2.954   2.946  1.5365  0.1261  0.0470
14826TIP3    H265970   6.072   3.086   3.019 -2.6206 -0.3915  0.1507
14827TIP3   OH265971   0.560   0.994   5.347 -0.1653  0.3619  0.1962
14827TIP3    H165972   0.589   1.066   5.290  0.1341  0.7023  0.7732
14827TIP3    H265973   0.559   0.917   5.290 -1.0073  0.9260 -0.5590
14828TIP3   OH265974   0.276   0.451  12.652  0.1601  0.4900  0.4131
14828TIP3    H165975   0.334   0.424  12.723 -0.4051  1.0504  1.1036
14828TIP3    H265976   0.192   0.466  12.695 -0.0326  1.4235 -0.2886
14829TIP3   OH265977   3.947   5.529   0.342  0.0324  0.0361  0.5680
14829TIP3    H165978   3.960   5.569   0.256 -1.2894  2.9156  1.6413
14829TIP3    H265979   3.881   5.461   0.328  0.7800 -0.4089 -0.9034
14830TIP3   OH265980   3.314   3.472   1.939 -0.6512  0.0944  0.0331
14830TIP3    H165981   3.344   3.468   1.848 -0.6854  1.5179 -0.0512
14830TIP3    H265982   3.366   3.542   1.979  0.5557 -1.6216  1.5774
14831TIP3   OH265983   3.675   2.745   3.402  0.0678 -0.6421 -0.0514
14831TIP3    H165984   3.588   2.745   3.442  0.3872  3.0160  0.8580
14831TIP3    H265985   3.704   2.654   3.406 -2.1920 -1.2938  3.0448
14832TIP3   OH265986   1.330   5.870   4.828 -0.5386  0.0949 -0.4652
14832TIP3    H165987   1.282   5.822   4.761 -1.5619 -0.0079  0.3344
14832TIP3    H265988   1.400   5.810   4.855 -0.3964 -0.0335 -1.1226
14833TIP3   OH265989   0.120   2.135  14.494  0.0499  0.1320 -0.0282
14833TIP3    H165990   0.052   2.095  14.547 -0.1920 -0.1552 -0.5575
14833TIP3    H265991   0.201   2.119  14.544 -0.1594 -0.2352  0.1977
14834TIP3   OH265992   3.094   6.427  11.218 -0.0021  0.4929  0.5805
14834TIP3    H165993   3.141   6.491  11.271  1.8998 -3.3371  3.7900
14834TIP3    H265994   3.057   6.365  11.281  1.7838 -3.9225 -2.4058
14835TIP3   OH265995   4.718   1.739   1.152  0.0047  0.5820 -0.1485
14835TIP3    H165996   4.692   1.657   1.194  0.0760  0.9018  0.5264
14835TIP3    H265997   4.685   1.732   1.062 -0.4733  0.0525  0.0692
14836TIP3   OH265998   1.646   1.692  15.405  0.5247 -0.2195 -0.2628
14836TIP3    H165999   1.726   1.714  15.356 -1.5385  2.3730 -2.6044
14836TIP3    H266000   1.619   1.607  15.370  1.0037 -0.0183 -1.1373
14837TIP3   OH266001   5.849   3.153  11.789  0.1787 -0.2452 -0.0771
14837TIP3    H166002   5.943   3.140  11.795  0.1162 -0.7332 -0.1236
14837TIP3    H266003   5.831   3.157  11.695  0.1025 -0.5286 -0.0749
14838TIP3   OH266004   2.728   5.380   3.296  0.2890 -0.0691 -0.1243
14838TIP3    H166005   2.775   5.461   3.315  2.3609 -1.4776  0.9095
14838TIP3    H266006   2.667   5.403   3.226 -0.1907  2.7368  1.1439
14839TIP3   OH266007   3.090   0.520   3.938 -0.8015 -0.4575  0.0715
14839TIP3    H166008   3.110   0.451   3.875  1.2787  0.4975 -0.3413
14839TIP3    H266009   3.044   0.587   3.887  0.3710  0.0579 -0.3184
14840TIP3   OH266010   0.697   2.730  15.567  0.0365 -0.3485 -0.2591
14840TIP3    H166011   0.744   2.695  15.491  1.6041  0.9264  0.0860
14840TIP3    H266012   0.727   2.820  15.574 -0.8664 -0.1551  1.2716
14841TIP3   OH266013   3.711   0.927   2.678  0.2512 -0.1052  0.2751
14841TIP3    H166014   3.617   0.920   2.660  0.1004  1.5552  0.2775
14841TIP3    H266015   3.746   0.840   2.660 -1.2746 -0.7170  0.1867
14842TIP3   OH266016   0.455   4.779   1.126 -0.0781 -0.6858  0.6078
14842TIP3    H166017   0.538   4.748   1.161  0.1469 -0.5216  0.2222
14842TIP3    H266018   0.399   4.701   1.125  0.1470 -0.8488  0.6375
14843TIP3   OH266019   3.464   3.665  12.984 -0.2354  0.0366  0.1214
14843TIP3    H166020   3.529   3.613  12.937 -0.9254  1.8551 -3.0002
14843TIP3    H266021   3.501   3.752  12.990 -2.0740  0.9535 -1.1796
14844TIP3   OH266022   5.406   2.849   0.140  0.3572  0.2491  0.0129
14844TIP3    H166023   5.497   2.871   0.123  0.1626  2.0700  1.1262
14844TIP3    H266024   5.403   2.829   0.234 -0.0255 -1.7774 -0.4129
14845TIP3   OH266025   1.459   2.944  14.504  0.4865  0.2641 -0.2372
14845TIP3    H166026   1.482   2.963  14.595 -0.9746  2.6057 -0.3070
14845TIP3    H266027   1.409   2.862  14.508 -0.6601  1.0099  1.2477
14846TIP3   OH266028   0.109   4.870   2.764 -0.1757 -0.2426  0.2772
14846TIP3    H166029   0.137   4.809   2.696  1.6137  1.0162 -0.1485
14846TIP3    H266030   0.122   4.823   2.846 -1.1754 -1.3165 -0.1609
14847TIP3   OH266031   4.983   1.275   5.555  0.4362  0.1921 -0.4377
14847TIP3    H166032   4.916   1.283   5.487  1.6544 -0.3512 -1.7325
14847TIP3    H266033   4.948   1.324   5.629 -1.0170  0.6191 -1.3868
14848TIP3   OH266034   6.710   2.740   5.575  0.1830 -0.0544  0.3163
14848TIP3    H166035   6.758   2.665   5.542 -1.4023 -1.1358  0.4153
14848TIP3    H266036   6.645   2.759   5.507 -0.4215  0.2791  0.9812
14849TIP3   OH266037   3.267   0.810   0.736  0.0186  0.2776 -0.1745
14849TIP3    H166038   3.352   0.845   0.710  0.6988 -0.8158  0.5251
14849TIP3    H266039   3.208   0.834   0.664  0.7645  1.6259 -0.3436
14850TIP3   OH266040   0.451   4.281  16.282  0.4376 -0.1473  0.1534
14850TIP3    H166041   0.453   4.205  16.224 -1.8094  0.4886 -0.8079
14850TIP3    H266042   0.532   4.329  16.262  1.9282 -2.2920  0.8533
14851TIP3   OH266043   0.600   4.409   0.057 -0.2853 -0.0259  0.1859
14851TIP3    H166044   0.661   4.482   0.044 -0.9725  0.5540  0.1232
14851TIP3    H266045   0.546   4.436   0.132 -1.0989 -0.0777 -0.3708
14852TIP3   OH266046   4.540   5.201   1.628  0.1975  0.3706  0.3804
14852TIP3    H166047   4.455   5.166   1.654  0.3503 -1.0396 -0.9804
14852TIP3    H266048   4.541   5.196   1.533  1.6972  0.6107  0.3638
14853TIP3   OH266049   5.233   2.433  13.406 -0.2637  0.2341 -1.0655
14853TIP3    H166050   5.180   2.496  13.454  0.8182  2.1696 -2.3432
14853TIP3    H266051   5.307   2.415  13.464 -1.7884 -1.7386  0.3147
14854TIP3   OH266052   3.352   2.185   0.879 -0.3808  0.0552 -0.3175
14854TIP3    H166053   3.313   2.257   0.829 -0.6557 -0.0981 -0.3292
14854TIP3    H266054   3.432   2.221   0.916 -0.5010  0.3564 -0.3524
14855TIP3   OH266055   5.758   4.271   5.643 -0.0218  0.1132  0.1700
14855TIP3    H166056   5.737   4.180   5.624  1.2816 -0.2760  0.5428
14855TIP3    H266057   5.819   4.267   5.717 -1.2857  1.3738  1.3074
14856TIP3   OH266058   1.771   3.701  14.508  0.1046 -0.7056  0.1913
14856TIP3    H166059   1.862   3.682  14.485  1.1066  1.1654  2.3754
14856TIP3    H266060   1.769   3.695  14.604 -1.5890  1.3047  0.3061
14857TIP3   OH266061   1.444   1.759  16.280 -0.0828 -0.2157  0.2344
14857TIP3    H166062   1.403   1.812  16.348  1.2235  1.3529 -0.1621
14857TIP3    H266063   1.526   1.729  16.320 -0.8983 -2.1230  0.5208
14858TIP3   OH266064   6.185   6.583   1.829  0.3105  0.6440 -0.1294
14858TIP3    H166065   6.190   6.509   1.769 -0.1134 -1.0756  1.8693
14858TIP3    H266066   6.220   6.549   1.912 -3.0698  1.6207  1.7909
14859TIP3   OH266067   3.559   5.836   1.984  0.4395 -0.7739 -0.0343
14859TIP3    H166068   3.592   5.857   1.897  0.2309  0.9529  0.2789
14859TIP3    H266069   3.489   5.774   1.969 -0.0052 -0.0216 -1.1582
14860TIP3   OH266070   0.743   2.089  15.458  0.0661 -0.0202 -0.2550
14860TIP3    H166071   0.742   1.995  15.441  1.4341  0.0660 -0.8955
14860TIP3    H266072   0.746   2.129  15.371  1.9114  0.5450  0.0343
14861TIP3   OH266073   0.825   0.693  15.802  0.0328  0.6862 -0.1150
14861TIP3    H166074   0.818   0.597  15.803  0.3501  0.6753  1.8690
14861TIP3    H266075   0.781   0.719  15.721 -0.3445 -1.1181 -0.5034
14862TIP3   OH266076   6.223   2.855  15.819  0.2489  0.1363 -0.2798
14862TIP3    H166077   6.254   2.817  15.900  1.8726  0.1155 -0.8954
14862TIP3    H266078   6.281   2.820  15.751 -2.9096 -2.2516 -1.9264
14863TIP3   OH266079   2.407   1.955   3.146  0.0300 -0.0057  0.5375
14863TIP3    H166080   2.437   1.890   3.083  3.7387  0.7629  1.3528
14863TIP3    H266081   2.372   1.903   3.219 -3.8603 -0.8896 -1.8767
14864TIP3   OH266082   6.515   1.683   2.218  0.1295  0.1762 -0.6091
14864TIP3    H166083   6.490   1.750   2.281 -0.4631 -0.6643  0.0592
14864TIP3    H266084   6.432   1.645   2.189  0.3782  0.7447 -2.1124
14865TIP3   OH266085   5.626   0.248   1.471 -0.1956  0.8444  0.2302
14865TIP3    H166086   5.702   0.199   1.439  0.3862 -0.1015  2.9544
14865TIP3    H266087   5.647   0.340   1.452  1.1716  0.4995  0.0302
14866TIP3   OH266088   6.392   2.202  15.207 -0.4114 -0.4409  0.5623
14866TIP3    H166089   6.372   2.199  15.113 -0.6964 -1.8690  0.6555
14866TIP3    H266090   6.307   2.211  15.249 -0.3475 -0.5696  0.7197
14867TIP3   OH266091   4.894   2.683   0.492 -0.4686  0.4181 -0.3159
14867TIP3    H166092   4.894   2.614   0.558  2.8507  0.6709  0.0164
14867TIP3    H266093   4.812   2.730   0.507 -1.5649 -1.8550  1.1215
14868TIP3   OH266094   6.071   0.764   5.288  0.0290 -0.5671  0.2196
14868TIP3    H166095   6.149   0.798   5.332 -0.3043 -0.9670  1.1291
14868TIP3    H266096   6.069   0.671   5.311 -1.1375 -0.4039  0.8388
14869TIP3   OH266097   3.982   0.513   1.046 -0.4049  0.1609 -0.1226
14869TIP3    H166098   3.898   0.515   1.091  0.0940 -0.0308  0.8444
14869TIP3    H266099   4.034   0.450   1.096  0.8529  1.4841  0.2677
14870TIP3   OH266100   3.524   2.624   5.778  0.8571  0.0017  0.5358
14870TIP3    H166101   3.469   2.694   5.742 -0.7360 -0.4322  2.0659
14870TIP3    H266102   3.573   2.666   5.849  0.8015 -0.1488  0.6636
14871TIP3   OH266103   3.007   0.645  12.322 -0.5548 -0.3827 -0.5263
14871TIP3    H166104   2.945   0.592  12.272 -0.9486 -1.2720  0.8843
14871TIP3    H266105   2.954   0.719  12.353  0.0261  0.9786 -2.6129
14872TIP3   OH266106   1.779   1.228  15.806  0.2073 -0.1376 -0.0574
14872TIP3    H166107   1.851   1.168  15.826  0.0133 -0.9185 -1.5725
14872TIP3    H266108   1.812   1.281  15.733 -0.0171  0.8704  0.5744
14873TIP3   OH266109   5.088   1.807   5.272 -0.0111 -0.3021 -0.0728
14873TIP3    H166110   5.128   1.837   5.353  0.5480 -1.4174  0.0631
14873TIP3    H266111   5.112   1.715   5.265 -0.2734 -0.2875 -1.3713
14874TIP3   OH266112   1.348   2.985  10.814  0.4696  0.2061 -0.0672
14874TIP3    H166113   1.272   2.972  10.757 -0.7379  0.2545  1.5292
14874TIP3    H266114   1.368   2.898  10.849  1.8821 -0.0222 -1.3603
14875TIP3   OH266115   1.487   1.448  14.351  0.3085  0.9315  0.1580
14875TIP3    H166116   1.393   1.453  14.371  0.0929 -0.1634 -0.5684
14875TIP3    H266117   1.514   1.539  14.344 -0.5161  1.2803  1.2246
14876TIP3   OH266118   4.999   4.716   1.506 -0.2997  0.1533 -0.5713
14876TIP3    H166119   5.046   4.787   1.549  0.2049 -1.1871  1.1725
14876TIP3    H266120   4.919   4.756   1.472 -0.2461  1.4386  0.7968
14877TIP3   OH266121   6.181   4.179   0.399  0.2355 -0.4131  0.0329
14877TIP3    H166122   6.093   4.141   0.389  0.2088 -0.6000  0.9758
14877TIP3    H266123   6.189   4.198   0.492  1.1822 -0.3509 -0.0560
14878TIP3   OH266124   3.060   6.585  12.204 -0.4489 -0.9395  0.1751
14878TIP3    H166125   3.090   6.494  12.212  0.2229 -0.6782  0.6659
14878TIP3    H266126   2.965   6.578  12.195 -0.1850 -1.8341 -2.2805
14879TIP3   OH266127   2.734   4.747  12.413 -0.5795  0.2380 -0.1827
14879TIP3    H166128   2.701   4.831  12.445 -0.5168 -0.0695  0.7030
14879TIP3    H266129   2.749   4.696  12.492  1.1028  0.0334 -0.6213
14880TIP3   OH266130   5.979   2.916  14.240 -0.3251 -0.0847  0.2880
14880TIP3    H166131   6.019   2.940  14.324 -1.8671 -1.7090  1.5208
14880TIP3    H266132   6.039   2.852  14.202  0.4918  0.8215  0.0359
14881TIP3   OH266133   2.393   0.683   5.135 -0.2542 -0.0294 -0.3911
14881TIP3    H166134   2.434   0.765   5.162  1.0913 -0.5602 -0.7901
14881TIP3    H266135   2.411   0.622   5.207  1.5657 -0.8692 -1.5035
14882TIP3   OH266136   5.756   2.878  14.097  0.6454 -0.3949 -0.1983
14882TIP3    H166137   5.846   2.866  14.128  1.2117  1.5454 -1.0297
14882TIP3    H266138   5.750   2.823  14.019  1.1473 -0.3981 -0.2375
14883TIP3   OH266139   1.487   2.318  11.157 -0.4603  0.4791  0.1262
14883TIP3    H166140   1.452   2.255  11.219  0.1572 -1.7393 -1.7296
14883TIP3    H266141   1.581   2.299  11.153 -0.5022  0.4905 -1.5668
14884TIP3   OH266142   0.712   5.025   6.516 -0.5813  0.1001  0.2892
14884TIP3    H166143   0.676   5.104   6.477  1.2148  0.1269 -1.3996
14884TIP3    H266144   0.805   5.045   6.528 -0.3100 -1.3921  0.7765
14885TIP3   OH266145   6.783   5.400   4.321 -0.2714 -0.1924  0.0788
14885TIP3    H166146   6.703   5.403   4.375 -0.6599  0.6016 -0.5297
14885TIP3    H266147   6.766   5.462   4.250  0.8845 -0.0361 -0.0677
14886TIP3   OH266148   2.311   2.740   5.076 -0.1947  0.3048 -0.2679
14886TIP3    H166149   2.266   2.656   5.074 -1.0007  0.7438 -0.8517
14886TIP3    H266150   2.349   2.746   5.164 -0.2593 -0.6002 -0.1816
14887TIP3   OH266151   2.577   4.595   4.918 -0.0316 -0.1737 -0.5680
14887TIP3    H166152   2.515   4.635   4.857  0.1763 -0.3714 -0.9121
14887TIP3    H266153   2.535   4.603   5.003 -0.0078  0.7509 -0.6362
14888TIP3   OH266154   5.640   2.796   6.170  0.1609  0.3564 -0.1767
14888TIP3    H166155   5.560   2.766   6.126 -0.9971  0.6146  1.7236
14888TIP3    H266156   5.655   2.732   6.239 -1.0247  2.8009  2.4411
14889TIP3   OH266157   1.597   2.737   2.640 -0.4165 -0.3596 -0.5301
14889TIP3    H166158   1.549   2.682   2.578  1.5812 -3.9825  1.0008
14889TIP3    H266159   1.607   2.682   2.718  3.2962  1.4884  0.3909
14890TIP3   OH266160   6.757   1.179   3.103  0.5584 -0.0836 -0.1600
14890TIP3    H166161   6.803   1.158   3.184 -0.2460 -1.2169  0.0189
14890TIP3    H266162   6.666   1.154   3.121  0.1740  0.6884 -1.0292
14891TIP3   OH266163   3.991   1.413   2.677 -0.2776 -0.0065 -0.0061
14891TIP3    H166164   3.935   1.360   2.619  3.3242 -3.0715 -0.8277
14891TIP3    H266165   3.976   1.376   2.764 -0.8295  0.3589  0.0607
14892TIP3   OH266166   6.226   4.021   2.801 -0.0248 -0.0315 -0.4916
14892TIP3    H166167   6.277   4.101   2.785 -0.4851 -0.1048 -2.5391
14892TIP3    H266168   6.157   4.049   2.861  1.0403  0.6069  0.4756
14893TIP3   OH266169   3.821   5.388  12.313  0.5298 -0.3855  0.7141
14893TIP3    H166170   3.895   5.371  12.254 -0.4926 -1.3496 -0.3061
14893TIP3    H266171   3.825   5.483  12.328  1.8835 -0.3983  0.5687
14894TIP3   OH266172   1.317   5.539  15.686  0.0387  0.5083 -0.0513
14894TIP3    H166173   1.361   5.615  15.647  0.9378  1.2560  2.3209
14894TIP3    H266174   1.245   5.577  15.738 -1.5274 -0.5015 -1.4257
14895TIP3   OH266175   5.310   1.512  13.323  0.4826  0.5156  0.2018
14895TIP3    H166176   5.307   1.523  13.418  0.9408  0.2039  0.2550
14895TIP3    H266177   5.219   1.492  13.298  0.7376 -1.5763  0.8544
14896TIP3   OH266178   1.529   3.739   3.450  0.1390 -0.2686 -0.1330
14896TIP3    H166179   1.601   3.681   3.474  0.4952  0.8033  1.4704
14896TIP3    H266180   1.488   3.697   3.374 -0.2594 -3.1740  1.6058
14897TIP3   OH266181   5.571   5.633  14.045  0.5324  0.0330 -0.3185
14897TIP3    H166182   5.648   5.587  14.077  0.0282 -0.1962  0.6059
14897TIP3    H266183   5.603   5.720  14.020  1.0561  0.0044  0.2447
14898TIP3   OH266184   1.006   0.222  11.418 -0.3743  0.2015  0.4891
14898TIP3    H166185   1.042   0.207  11.330 -0.6879  0.6218  0.2890
14898TIP3    H266186   1.011   0.317  11.430  1.7649 -0.0459  1.8194
14899TIP3   OH266187   3.698   2.947   2.579  0.4000 -0.2413 -0.4903
14899TIP3    H166188   3.670   2.939   2.670  2.8972 -2.6934  0.1547
14899TIP3    H266189   3.633   2.897   2.529  0.1286 -0.5664  0.1857
14900TIP3   OH266190   2.087   4.966   1.727 -0.0810  0.5965 -0.2602
14900TIP3    H166191   2.123   4.896   1.673  2.0490  1.9224 -0.6176
14900TIP3    H266192   1.992   4.955   1.719  0.2049 -2.1368 -0.4110
14901TIP3   OH266193   4.795   0.927  11.450  0.5887 -0.4939 -0.2894
14901TIP3    H166194   4.737   0.986  11.499  1.8047  1.2039 -0.8260
14901TIP3    H266195   4.818   0.858  11.512 -1.4951 -0.8525  0.1211
14902TIP3   OH266196   1.306   0.692  15.664  0.0659  0.3482 -0.2387
14902TIP3    H166197   1.325   0.601  15.642  1.9265  1.3859 -3.2868
14902TIP3    H266198   1.216   0.705  15.634 -0.0557 -0.3700 -0.1850
14903TIP3   OH266199   1.509   2.684  12.006  0.4801 -0.4193 -0.0597
14903TIP3    H166200   1.487   2.709  11.917  0.3358 -0.0101  0.0905
14903TIP3    H266201   1.467   2.599  12.018  1.7273 -1.1602 -0.8757
14904TIP3   OH266202   2.361   3.094   4.401 -0.3448  0.3217  0.3760
14904TIP3    H166203   2.426   3.123   4.337 -0.5713  0.6553  0.2924
14904TIP3    H266204   2.368   2.999   4.402 -1.1790  0.2410 -1.0234
14905TIP3   OH266205   5.403   1.662   5.115 -0.3055 -0.2665  0.1163
14905TIP3    H166206   5.421   1.749   5.151 -1.0086  0.5206 -1.3823
14905TIP3    H266207   5.341   1.623   5.176  0.2508  0.1533  0.9664
14906TIP3   OH266208   6.772   5.545  12.174  0.4822 -0.1410 -0.4201
14906TIP3    H166209   6.772   5.503  12.260 -0.8969  3.2043  1.2745
14906TIP3    H266210   6.685   5.529  12.138 -0.3426  1.8737  0.5949
14907TIP3   OH266211   3.193   3.977   0.510  0.2927 -0.5674  0.2387
14907TIP3    H166212   3.104   4.001   0.532  0.1016 -0.0887 -1.0018
14907TIP3    H266213   3.248   4.032   0.566 -0.1809 -0.6038  0.7416
14908TIP3   OH266214   5.138   5.762   2.707 -0.0371 -0.1371  0.2869
14908TIP3    H166215   5.188   5.828   2.754  0.9975  0.2603 -1.3445
14908TIP3    H266216   5.047   5.781   2.729  0.4046  0.1278  1.9898
14909TIP3   OH266217   4.088   5.915  15.910  0.1654 -0.8003  0.2424
14909TIP3    H166218   4.164   5.858  15.899 -1.4005 -2.7737 -0.7258
14909TIP3    H266219   4.032   5.895  15.835 -0.6544  1.6968  0.1448
14910TIP3   OH266220   3.018   5.062  12.026 -0.0233 -0.0974  0.0453
14910TIP3    H166221   3.103   5.042  11.987  0.1650 -1.1665  0.9639
14910TIP3    H266222   3.004   4.991  12.088 -0.3843  1.4645  1.7936
14911TIP3   OH266223   5.631   1.182   3.459 -0.1515  0.1086  0.1443
14911TIP3    H166224   5.662   1.189   3.369 -2.2672  0.2679 -0.6039
14911TIP3    H266225   5.602   1.091   3.468  0.1718  0.0605  0.6922
14912TIP3   OH266226   4.055   0.141   5.673  0.2715 -0.6629 -0.5616
14912TIP3    H166227   4.083   0.216   5.725  0.7545  0.3202 -2.2009
14912TIP3    H266228   4.113   0.070   5.700  0.7606 -0.0697 -0.0379
14913TIP3   OH266229   3.900   3.382   4.342 -0.4465  0.3780  0.2245
14913TIP3    H166230   3.966   3.435   4.298 -1.0418  0.8667 -0.0908
14913TIP3    H266231   3.869   3.321   4.276 -1.2126  0.9922  0.0102
14914TIP3   OH266232   4.433   1.811   1.757 -0.2744 -0.2788 -0.2140
14914TIP3    H166233   4.527   1.796   1.747 -0.2680 -1.0789  0.9631
14914TIP3    H266234   4.425   1.906   1.765  0.2481 -0.0519 -2.0566
14915TIP3   OH266235   5.637   3.139  16.117  0.6202  0.1134  0.3738
14915TIP3    H166236   5.698   3.214  16.120 -0.1560  0.7354  0.7601
14915TIP3    H266237   5.673   3.077  16.181  0.6193  0.6615  0.9132
14916TIP3   OH266238   3.908   4.005  12.462 -0.5038 -0.3309 -0.3484
14916TIP3    H166239   3.817   4.015  12.489 -0.6903 -1.7015 -0.4110
14916TIP3    H266240   3.942   3.936  12.518  0.0292 -0.9448 -1.4061
14917TIP3   OH266241   5.810   6.652  12.528 -0.2746  0.0159  0.2548
14917TIP3    H166242   5.795   6.739  12.567 -0.5069 -0.1359  0.5119
14917TIP3    H266243   5.902   6.633  12.548  0.0047  0.5546 -0.5129
14918TIP3   OH266244   4.494   4.832  15.142  0.4594 -0.1119  0.4560
14918TIP3    H166245   4.555   4.882  15.089  0.3528 -0.2299  0.2220
14918TIP3    H266246   4.539   4.749  15.158  1.0889  0.4610  1.7516
14919TIP3   OH266247   0.734   4.925   3.199 -1.1803 -0.3375 -0.2353
14919TIP3    H166248   0.809   4.945   3.255 -2.0912 -0.4692  1.0505
14919TIP3    H266249   0.761   4.848   3.149  0.0903  0.4951 -0.8692
14920TIP3   OH266250   6.759   1.615   0.872 -0.1093 -0.1948  0.1718
14920TIP3    H166251   6.845   1.655   0.881 -0.3647  0.1590  1.1364
14920TIP3    H266252   6.745   1.570   0.955 -1.2733  0.5719  0.4092
14921TIP3   OH266253   0.187   5.272   0.234 -0.4412 -0.2195 -0.2770
14921TIP3    H166254   0.120   5.218   0.276 -0.8404 -0.1932 -0.8742
14921TIP3    H266255   0.269   5.246   0.277 -0.8742 -0.0108  0.6918
14922TIP3   OH266256   2.195   4.325   5.234  0.2334  0.1631 -0.2764
14922TIP3    H166257   2.276   4.335   5.184  1.2035 -0.2787  1.1545
14922TIP3    H266258   2.164   4.238   5.212  1.0000 -0.2799  0.3503
14923TIP3   OH266259   2.744   0.447   5.940  1.0008 -0.2362 -0.3876
14923TIP3    H166260   2.687   0.373   5.963 -1.0026  1.6582  0.8814
14923TIP3    H266261   2.795   0.415   5.865 -0.2385 -2.7107 -0.2319
14924TIP3   OH266262   6.455   3.425   3.720 -0.1561  0.0112  0.3629
14924TIP3    H166263   6.510   3.453   3.792 -0.9979  1.6985  0.3576
14924TIP3    H266264   6.367   3.420   3.756 -0.3365 -0.6847 -0.1472
14925TIP3   OH266265   6.730   1.855  10.973 -0.7082  0.3880 -0.1581
14925TIP3    H166266   6.715   1.761  10.985 -0.6809 -0.0349 -3.0487
14925TIP3    H266267   6.660   1.882  10.913 -0.9581  2.3081  0.9761
14926TIP3   OH266268   0.288   4.117   5.820 -0.1797 -0.3367 -0.2706
14926TIP3    H166269   0.228   4.082   5.754  0.5367 -1.5301 -0.3157
14926TIP3    H266270   0.234   4.177   5.873 -1.1972 -0.7513 -0.8221
14927TIP3   OH266271   3.260   2.227   1.246  0.0705  0.1552 -0.3330
14927TIP3    H166272   3.214   2.249   1.327 -0.3572 -0.7017 -0.3361
14927TIP3    H266273   3.196   2.244   1.177  0.4182  0.8384 -0.4934
14928TIP3   OH266274   5.986   1.993  10.808 -0.2365  0.2310 -0.4652
14928TIP3    H166275   6.070   1.950  10.793 -0.4788  0.8160 -4.0265
14928TIP3    H266276   5.927   1.921  10.832  1.1100 -0.2522  1.5663
14929TIP3   OH266277   1.331   6.465  12.750  0.6520 -0.2193  0.1412
14929TIP3    H166278   1.422   6.441  12.766  1.0724  1.1138 -0.2287
14929TIP3    H266279   1.284   6.381  12.750  2.0353 -1.0101 -0.7689
14930TIP3   OH266280   4.125   6.017  16.164 -0.0017  0.2613 -0.3550
14930TIP3    H166281   4.198   6.071  16.134 -0.3912  0.2371 -1.3705
14930TIP3    H266282   4.086   5.983  16.083 -1.1316  0.2812  0.1742
14931TIP3   OH266283   1.222   1.747   5.496 -0.2641  0.0316 -0.0681
14931TIP3    H166284   1.285   1.744   5.424 -0.3405 -0.2882 -0.1247
14931TIP3    H266285   1.256   1.683   5.559 -1.2626 -1.1425 -0.7050
14932TIP3   OH266286   2.602   4.660  11.702  0.1197  0.1725  0.2681
14932TIP3    H166287   2.659   4.637  11.776  0.3454 -0.1880 -0.0137
14932TIP3    H266288   2.515   4.672  11.741 -0.3991 -2.9506  0.1970
14933TIP3   OH266289   4.543   0.755   3.723 -0.3740 -0.4735 -0.0301
14933TIP3    H166290   4.599   0.684   3.753  0.1932 -0.0411 -0.0548
14933TIP3    H266291   4.517   0.730   3.634  0.4173 -0.3065 -0.3130
14934TIP3   OH266292   0.297   6.238  16.046  0.3076 -0.2888 -0.7759
14934TIP3    H166293   0.230   6.306  16.046 -0.0064 -0.6007 -1.1596
14934TIP3    H266294   0.288   6.195  16.131  1.4649  1.0870  0.0789
14935TIP3   OH266295   1.218   4.273  13.352  0.2416  0.4494 -0.2509
14935TIP3    H166296   1.129   4.245  13.332  0.4327  0.2469 -0.8229
14935TIP3    H266297   1.211   4.316  13.437  0.0182 -1.7345  0.8749
14936TIP3   OH266298   2.862   3.434   5.474  0.2009 -0.6743 -0.4718
14936TIP3    H166299   2.828   3.376   5.542 -0.3080 -0.1894 -0.3055
14936TIP3    H266300   2.796   3.503   5.466  1.1587  0.2907 -0.1355
14937TIP3   OH266301   6.564   3.234   4.982  0.2050  0.3668  0.3516
14937TIP3    H166302   6.622   3.310   4.992 -0.1339  1.0902 -2.6910
14937TIP3    H266303   6.484   3.260   5.027  0.4224  1.4645  0.1339
14938TIP3   OH266304   0.139   3.812  12.605  0.8403  0.0129 -0.3710
14938TIP3    H166305   0.146   3.854  12.691 -1.3201 -1.8427  0.7699
14938TIP3    H266306   0.223   3.830  12.563  1.2066  2.6152  1.3544
14939TIP3   OH266307   6.392   4.234   2.783 -0.3304 -0.1446  0.0305
14939TIP3    H166308   6.477   4.278   2.776 -0.8996  0.9571 -0.0114
14939TIP3    H266309   6.329   4.299   2.754 -1.0674 -1.4804 -1.4311
14940TIP3   OH266310   6.680   3.938   5.277  0.2076 -0.3822  0.1268
14940TIP3    H166311   6.595   3.974   5.300  0.0755 -0.8842  0.4265
14940TIP3    H266312   6.697   3.871   5.343  0.4180 -0.9259 -0.4746
14941TIP3   OH266313   6.668   4.320  15.041 -0.6986  0.2856  0.1310
14941TIP3    H166314   6.682   4.335  14.947  2.6793 -1.5228  0.2876
14941TIP3    H266315   6.692   4.403  15.082  0.4812  0.2211 -0.4097
14942TIP3   OH266316   5.848   5.401  16.362  0.1977 -0.4136  0.9829
14942TIP3    H166317   5.912   5.407  16.291  0.9613 -1.2521  1.5856
14942TIP3    H266318   5.890   5.447  16.435 -0.6670  0.6188  0.8356
14943TIP3   OH266319   0.540   1.935  11.136  0.1540 -0.5147  0.3180
14943TIP3    H166320   0.533   1.841  11.117 -0.5987 -0.2989 -0.4734
14943TIP3    H266321   0.624   1.961  11.097  0.2439 -0.7994  0.3175
14944TIP3   OH266322   6.188   1.832  12.361 -0.6502 -0.6619  0.2380
14944TIP3    H166323   6.124   1.898  12.392  0.5009 -0.0764  1.4192
14944TIP3    H266324   6.270   1.880  12.355  0.4304 -2.2481  2.1149
14945TIP3   OH266325   4.317   0.405   5.853 -0.6718 -0.4628 -0.8507
14945TIP3    H166326   4.403   0.425   5.815 -0.0564 -0.5466  0.4826
14945TIP3    H266327   4.307   0.311   5.839  0.6313 -0.9460  1.3331
14946TIP3   OH266328   0.401   0.802  16.935  0.3455  0.3551  0.2312
14946TIP3    H166329   0.468   0.750  16.980 -0.6457 -0.9647  0.2159
14946TIP3    H266330   0.383   0.753  16.855  1.6331  2.3591 -1.3344
14947TIP3   OH266331   0.798   6.776   2.591 -0.0048  0.1578 -0.1658
14947TIP3    H166332   0.788   6.788   2.686 -0.5361 -3.0513  0.2384
14947TIP3    H266333   0.886   6.808   2.572 -0.6697  2.8065  1.0301
14948TIP3   OH266334   5.385   3.203  14.839 -0.0262 -0.2165  0.0082
14948TIP3    H166335   5.387   3.277  14.778  0.1420 -1.0737 -1.0494
14948TIP3    H266336   5.417   3.239  14.921 -0.9704  1.1526 -0.1945
14949TIP3   OH266337   0.453   1.662  13.149  0.1542 -0.2580  0.4654
14949TIP3    H166338   0.490   1.687  13.064 -2.4764  0.0713 -0.6373
14949TIP3    H266339   0.401   1.584  13.129 -1.4048  0.4961  1.5572
14950TIP3   OH266340   5.504   1.877  11.071  0.0460  0.0956  0.3278
14950TIP3    H166341   5.434   1.862  11.134  0.6142 -0.3819  0.8564
14950TIP3    H266342   5.494   1.807  11.007 -0.4575  0.5080 -0.0448
14951TIP3   OH266343   6.468   5.823  17.028 -0.2647  0.8139 -0.1797
14951TIP3    H166344   6.542   5.842  17.086 -0.1266  0.3681 -0.2051
14951TIP3    H266345   6.485   5.874  16.949  1.0336 -0.7828 -0.9663
14952TIP3   OH266346   0.236   1.664   4.063 -0.3452 -0.2767  0.7572
14952TIP3    H166347   0.219   1.570   4.062  0.2354 -0.3827 -0.6140
14952TIP3    H266348   0.293   1.679   3.988 -1.3498  1.3443  0.2843
14953TIP3   OH266349   0.868   2.967  15.356 -0.3451  0.4840  0.2815
14953TIP3    H166350   0.886   2.944  15.265 -2.6783  1.3117 -0.4358
14953TIP3    H266351   0.933   2.919  15.406 -0.0405 -1.2580 -1.7119
14954TIP3   OH266352   5.943   0.684   1.011  0.1655  0.3764 -0.1093
14954TIP3    H166353   5.971   0.766   0.971 -1.8419  0.1391 -2.1521
14954TIP3    H266354   5.880   0.647   0.948 -2.1143 -0.6885  2.6695
14955TIP3   OH266355   6.649   0.181  17.026  0.0045 -0.2391 -0.1065
14955TIP3    H166356   6.697   0.127  17.088 -0.4741 -0.2962  0.2148
14955TIP3    H266357   6.626   0.260  17.075  0.6816  0.2507 -0.5661
14956TIP3   OH266358   6.117   5.354   2.714  0.6512  0.4507 -0.6619
14956TIP3    H166359   6.123   5.271   2.760 -1.5276  0.6375  0.0019
14956TIP3    H266360   6.125   5.330   2.621 -1.5027 -0.7087 -0.5780
14957TIP3   OH266361   2.469   3.733  15.768  0.0999  0.5335 -0.1397
14957TIP3    H166362   2.375   3.719  15.761  0.2390 -0.3875 -0.2409
14957TIP3    H266363   2.506   3.681  15.697  0.4862  3.3675 -2.1038
14958TIP3   OH266364   6.616   4.853  11.834  0.0291  0.1266 -0.1075
14958TIP3    H166365   6.663   4.869  11.752  1.0339  0.3052  0.4950
14958TIP3    H266366   6.624   4.759  11.849 -1.8656 -0.2333 -1.2343
14959TIP3   OH266367   6.072   1.299  13.764 -0.3380 -0.8157  0.4423
14959TIP3    H166368   6.061   1.233  13.696  2.8003 -0.5056 -0.4417
14959TIP3    H266369   6.044   1.380  13.723 -0.0338 -0.8960  0.0700
14960TIP3   OH266370   5.009   5.335  11.414 -0.2371  0.0449  0.4209
14960TIP3    H166371   4.972   5.285  11.487  0.6185 -0.4223  0.5409
14960TIP3    H266372   5.048   5.268  11.357  0.3226  0.5235  0.2382
14961TIP3   OH266373   1.237   1.781  14.073  0.0847  0.1035  0.0472
14961TIP3    H166374   1.330   1.804  14.073  0.2458 -0.3821 -2.7302
14961TIP3    H266375   1.236   1.685  14.081 -0.3410  0.3702  3.9720
14962TIP3   OH266376   2.290   0.932   2.718 -0.1037  0.0961 -0.2127
14962TIP3    H166377   2.322   0.957   2.804 -0.7887 -2.6209  0.9084
14962TIP3    H266378   2.364   0.887   2.677 -0.1808  0.2293 -0.4967
14963TIP3   OH266379   3.443   2.024   5.894 -0.4238 -0.2406 -0.5920
14963TIP3    H166380   3.419   1.931   5.889 -0.1431 -0.3962  0.7571
14963TIP3    H266381   3.466   2.038   5.986 -3.7399  1.9456 -0.0030
14964TIP3   OH266382   6.519   4.809   5.482  0.8627  0.3927 -0.4316
14964TIP3    H166383   6.436   4.796   5.435  0.0619  0.9132  0.7971
14964TIP3    H266384   6.557   4.887   5.443  0.1012  0.9456 -0.0823
14965TIP3   OH266385   2.840   2.288   1.128 -0.0370 -0.3319  0.4119
14965TIP3    H166386   2.808   2.231   1.198 -1.0099 -0.8613 -0.4457
14965TIP3    H266387   2.813   2.244   1.047 -0.2331  1.0349 -0.2799
14966TIP3   OH266388   0.551   5.197   5.294 -0.3054 -0.1921  0.3877
14966TIP3    H166389   0.603   5.132   5.341 -0.9675 -2.5734 -2.0279
14966TIP3    H266390   0.496   5.146   5.235 -1.4500  2.5391 -1.0321
14967TIP3   OH266391   3.241   6.715  12.363  0.0401 -0.0302  0.3354
14967TIP3    H166392   3.284   6.774  12.301  0.4689 -0.3519  0.3228
14967TIP3    H266393   3.197   6.650  12.309  0.0622 -0.0655  0.3594
14968TIP3   OH266394   5.736   0.424  16.753 -0.5670 -0.6319  0.5608
14968TIP3    H166395   5.782   0.507  16.759 -1.0882 -0.2016 -1.1982
14968TIP3    H266396   5.787   0.372  16.692 -0.5242 -1.4181  1.2643
14969TIP3   OH266397   3.448   4.671  15.558  0.1813 -0.1533  0.3306
14969TIP3    H166398   3.409   4.688  15.644 -0.2602 -1.7948  0.4798
14969TIP3    H266399   3.380   4.698  15.495  0.0515 -0.0202  0.5297
14970TIP3   OH266400   3.292   2.957   5.421 -0.2593  0.0373  0.7416
14970TIP3    H166401   3.327   3.025   5.363 -2.1465 -1.0865 -1.7934
14970TIP3    H266402   3.227   3.003   5.475 -0.1126  0.6512  0.3976
14971TIP3   OH266403   0.617   4.335   3.038  0.1581 -0.4917  0.0845
14971TIP3    H166404   0.684   4.288   3.088  2.1829  1.2143 -0.9475
14971TIP3    H266405   0.599   4.278   2.963  2.2275  0.1003 -0.8959
14972TIP3   OH266406   2.000   4.099  16.021  0.3053 -0.3034  0.0080
14972TIP3    H166407   1.977   4.053  16.101  0.7077  0.0963  0.3640
14972TIP3    H266408   1.970   4.189  16.036 -0.4702 -0.4438 -0.6742
14973TIP3   OH266409   6.388   3.620   6.579  0.3541  0.6724  0.2065
14973TIP3    H166410   6.374   3.714   6.593 -2.6928  0.3128 -0.1846
14973TIP3    H266411   6.320   3.577   6.631  1.3654 -1.3092 -0.0631
14974TIP3   OH266412   2.343   5.248  13.702 -0.2831 -0.5841 -0.6127
14974TIP3    H166413   2.323   5.331  13.659 -2.9347 -1.1642 -0.5744
14974TIP3    H266414   2.389   5.274  13.783 -1.2055  0.8424 -0.5244
14975TIP3   OH266415   3.364   3.551   6.070 -0.7006 -0.3144  0.3988
14975TIP3    H166416   3.352   3.612   6.143 -1.8129  0.2306 -0.2249
14975TIP3    H266417   3.410   3.477   6.109  0.4158  0.7855  1.2391
14976TIP3   OH266418   4.093   6.764  14.754  0.5695 -0.4405 -0.0503
14976TIP3    H166419   4.099   6.739  14.662 -3.5530 -1.0003 -0.2513
14976TIP3    H266420   4.104   6.681  14.801 -1.0212 -0.7632 -0.2212
14977TIP3   OH266421   4.211   2.285  14.188  0.0365 -0.0527  0.3811
14977TIP3    H166422   4.206   2.217  14.120 -0.3154  1.4542 -1.1065
14977TIP3    H266423   4.206   2.236  14.270 -1.3843 -1.7342 -0.6813
14978TIP3   OH266424   2.941   6.393   5.924  0.4060  0.2273  0.0688
14978TIP3    H166425   2.956   6.485   5.947  1.9292  0.2274 -0.8859
14978TIP3    H266426   2.945   6.347   6.008  0.4531  0.9274  0.4543
14979TIP3   OH266427   0.787   1.016  16.387 -0.2529 -0.6082 -0.1361
14979TIP3    H166428   0.838   0.963  16.449  1.2832 -0.4129 -1.1982
14979TIP3    H266429   0.814   1.106  16.406  0.3370 -0.5566 -1.1557
14980TIP3   OH266430   5.437   5.311   5.772 -0.2285  0.0882 -0.1217
14980TIP3    H166431   5.369   5.337   5.834 -0.3339  2.2300 -1.0932
14980TIP3    H266432   5.392   5.298   5.689 -0.0504 -2.5516  0.1668
14981TIP3   OH266433   5.425   1.131   4.346 -0.1680 -0.5639 -0.4406
14981TIP3    H166434   5.347   1.184   4.331 -1.0681 -2.2733 -2.1653
14981TIP3    H266435   5.459   1.160   4.430 -3.1773 -0.4024  0.7654
14982TIP3   OH266436   2.988   0.921  17.150 -0.2967 -0.8740  0.2917
14982TIP3    H166437   2.931   0.845  17.135 -0.6551 -0.7499  1.0026
14982TIP3    H266438   2.930   0.987  17.188  0.6227 -1.2729  2.4637
14983TIP3   OH266439   5.574   1.141   2.245 -0.4701 -0.0330 -0.0425
14983TIP3    H166440   5.601   1.070   2.303  1.5302 -0.0850 -0.9713
14983TIP3    H266441   5.572   1.101   2.157  1.0077  1.0912 -0.6175
14984TIP3   OH266442   4.388   6.598   0.164  0.3869  0.1902 -0.2587
14984TIP3    H166443   4.474   6.610   0.123  1.0721  0.2220  1.1331
14984TIP3    H266444   4.355   6.687   0.175  1.4400  0.3665  1.7609
14985TIP3   OH266445   4.278   2.589  11.236 -0.3914  0.2243 -0.2987
14985TIP3    H166446   4.261   2.501  11.205  1.1824  0.5263 -2.1276
14985TIP3    H266447   4.210   2.643  11.196 -0.3345  0.1116 -0.5432
14986TIP3   OH266448   4.857   5.835   3.934  0.3653  0.0231  0.2984
14986TIP3    H166449   4.886   5.751   3.896  2.6600  1.4454 -1.2736
14986TIP3    H266450   4.938   5.883   3.948 -0.8157  1.3268  2.8341
14987TIP3   OH266451   0.393   3.493   4.069 -0.0174  0.1016  0.5723
14987TIP3    H166452   0.469   3.535   4.109 -0.8114  1.2065  0.9398
14987TIP3    H266453   0.327   3.489   4.138  0.9362 -4.2823  1.3744
14988TIP3   OH266454   5.144   0.915  11.078 -0.6578 -0.0866  0.3641
14988TIP3    H166455   5.156   0.992  11.023  1.5852 -0.1135  0.7548
14988TIP3    H266456   5.108   0.950  11.160 -1.0205  0.3454  0.0273
14989TIP3   OH266457   2.540   0.717   1.094  0.0711  0.4890 -0.2630
14989TIP3    H166458   2.460   0.671   1.120 -0.0350  1.1441  0.6104
14989TIP3    H266459   2.610   0.655   1.114 -0.2095 -0.0493 -0.9357
14990TIP3   OH266460   3.322   0.659   5.854 -0.0570  0.0020 -0.1714
14990TIP3    H166461   3.261   0.732   5.843 -0.1826 -0.2215 -0.9877
14990TIP3    H266462   3.398   0.683   5.800  0.7038  0.4066  1.0441
14991TIP3   OH266463   5.276   0.865  11.975 -0.2612 -0.0803 -0.2746
14991TIP3    H166464   5.309   0.778  11.955  2.1235  0.6550  0.2766
14991TIP3    H266465   5.274   0.869  12.070  2.1356  1.3199 -0.2431
14992TIP3   OH266466   4.817   4.686  12.376  0.6078  0.2209 -0.1185
14992TIP3    H166467   4.912   4.700  12.379  1.0305 -2.5055  0.8411
14992TIP3    H266468   4.807   4.594  12.352 -1.8062  0.4881 -0.2737
14993TIP3   OH266469   4.926   4.307  16.644  0.5699  0.2112  0.2836
14993TIP3    H166470   4.912   4.337  16.554 -0.6854  2.7328  1.2473
14993TIP3    H266471   4.873   4.228  16.651  1.2726 -0.4352 -1.4026
14994TIP3   OH266472   5.205   3.299  12.834 -0.2701 -0.4191  0.3656
14994TIP3    H166473   5.125   3.276  12.881  1.1442 -2.5339  1.8533
14994TIP3    H266474   5.200   3.250  12.752 -1.2018  0.6877 -0.2578
14995TIP3   OH266475   1.422   1.187  13.515 -0.1418  0.1581  0.1585
14995TIP3    H166476   1.414   1.136  13.595 -3.0131 -0.1344 -0.2542
14995TIP3    H266477   1.439   1.122  13.447 -1.8365 -0.0837 -0.0656
14996TIP3   OH266478   0.401   0.951  14.381  0.6552 -0.0330 -0.0300
14996TIP3    H166479   0.369   1.010  14.448  0.3534 -3.0906  2.6102
14996TIP3    H266480   0.474   0.998  14.340 -0.3559  2.6175  1.1634
14997TIP3   OH266481   3.813   0.037  14.617 -0.5084 -0.3178  0.0673
14997TIP3    H166482   3.838   0.072  14.531 -1.3009 -0.0865 -0.0790
14997TIP3    H266483   3.877   0.074  14.677 -0.3077  0.0079 -0.3423
14998TIP3   OH266484   3.342   0.573   1.130  0.3140  0.1668 -0.0092
14998TIP3    H166485   3.328   0.555   1.037  2.3446 -1.2908 -0.0756
14998TIP3    H266486   3.425   0.622   1.132  0.4277 -0.0577  1.0435
14999TIP3   OH266487   5.871   2.357   0.635 -0.6020 -0.1163 -0.4621
14999TIP3    H166488   5.837   2.361   0.724 -1.0400 -2.0391 -0.5241
14999TIP3    H266489   5.801   2.316   0.584  0.4585 -0.9599 -1.2708
15000TIP3   OH266490   3.622   1.234   3.925 -0.5965  0.1646 -0.2422
15000TIP3    H166491   3.700   1.194   3.965 -0.0386 -0.3088 -1.7647
15000TIP3    H266492   3.568   1.159   3.899 -0.4607  0.4394 -1.3248
15001TIP3   OH266493   1.276   2.756  14.540 -0.0533 -0.0320 -0.0318
15001TIP3    H166494   1.224   2.741  14.461 -0.2352  0.5816 -0.0310
15001TIP3    H266495   1.243   2.692  14.603 -0.6660  0.2103 -0.0992
15002TIP3   OH266496   3.754   2.365   2.927  0.3777 -0.2274  0.0109
15002TIP3    H166497   3.781   2.455   2.916 -0.8026 -0.0418 -1.5650
15002TIP3    H266498   3.683   2.369   2.991  3.2963 -0.6035  3.3949
15003TIP3   OH266499   0.800   0.785  11.514 -0.1022 -0.2019  0.2665
15003TIP3    H166500   0.752   0.846  11.459  1.1077  1.5114  1.0514
15003TIP3    H266501   0.736   0.754  11.579 -0.4086  1.2630  0.6778
15004TIP3   OH266502   5.546   4.215  12.430  0.1000  0.3944 -0.5310
15004TIP3    H166503   5.573   4.133  12.389 -0.4651 -0.7561  1.3146
15004TIP3    H266504   5.504   4.187  12.512  0.8192  2.5808  0.5995
15005TIP3   OH266505   4.990   4.576   6.815 -0.1363 -0.1789 -0.5177
15005TIP3    H166506   5.053   4.565   6.886  1.0629 -1.0053 -1.6897
15005TIP3    H266507   4.945   4.658   6.835  0.2680 -0.3494  1.1287
15006TIP3   OH266508   0.631   4.370   5.135 -0.4537  0.4522  0.0184
15006TIP3    H166509   0.570   4.300   5.157  0.7467 -0.0447  1.8282
15006TIP3    H266510   0.609   4.441   5.196 -1.1756  1.4081 -1.3127
15007TIP3   OH266511   5.082   1.015  17.076 -0.5184 -0.0407 -0.4041
15007TIP3    H166512   5.039   0.936  17.043  0.2090 -0.2071 -0.9916
15007TIP3    H266513   5.099   0.996  17.168  0.5908 -1.0092 -0.7855
15008TIP3   OH266514   4.474   4.637   1.317  0.3408  0.0065  0.2615
15008TIP3    H166515   4.383   4.660   1.336  0.8188  2.3243 -0.0768
15008TIP3    H266516   4.502   4.588   1.395 -0.8517  0.2594  0.8726
15009TIP3   OH266517   3.769   4.963   3.812 -0.5070 -0.2259  0.4080
15009TIP3    H166518   3.776   5.056   3.787 -0.7777 -0.4534 -0.5496
15009TIP3    H266519   3.827   4.918   3.750 -0.4729 -0.7097  0.7954
15010TIP3   OH266520   1.134   0.779   3.151 -0.1756 -0.3194  0.2329
15010TIP3    H166521   1.058   0.834   3.169 -0.1290 -0.7274  1.6779
15010TIP3    H266522   1.199   0.805   3.217  0.1818 -1.4748  0.3397
15011TIP3   OH266523   5.901   5.505   2.778 -0.6270  0.3793 -0.1858
15011TIP3    H166524   5.979   5.449   2.777 -1.1196 -0.4146  1.7283
15011TIP3    H266525   5.929   5.587   2.739  1.1615  0.0755  0.3972
15012TIP3   OH266526   5.584   1.925   1.200 -0.2916 -0.0639 -0.2952
15012TIP3    H166527   5.595   1.999   1.259  1.1028 -0.9108  0.5531
15012TIP3    H266528   5.653   1.936   1.134  1.7159 -1.9843  1.3710
15013TIP3   OH266529   3.399   3.109   0.884  0.5053  0.1086 -0.0083
15013TIP3    H166530   3.341   3.037   0.906 -0.3219  0.4161 -1.0797
15013TIP3    H266531   3.395   3.168   0.959  2.2249 -1.5670  1.4477
15014TIP3   OH266532   3.202   4.794   3.205  0.6134  0.5215  0.4140
15014TIP3    H166533   3.123   4.744   3.225  1.2884 -0.5221  0.5252
15014TIP3    H266534   3.214   4.782   3.110  1.0372  0.0678  0.5217
15015TIP3   OH266535   4.042   3.869   2.890  0.2499 -0.3209 -0.2065
15015TIP3    H166536   4.017   3.925   2.964  0.5734 -0.9228  0.3642
15015TIP3    H266537   4.136   3.855   2.901  0.6517  1.0045 -1.7059
15016TIP3   OH266538   3.263   1.016   4.430 -0.3960 -0.4926  0.0219
15016TIP3    H166539   3.206   1.020   4.353 -0.3568  1.1251  0.0744
15016TIP3    H266540   3.345   1.055   4.401 -0.3233 -0.0450  0.8424
15017TIP3   OH266541   2.111   1.354  11.418 -0.0080 -0.0661 -0.0525
15017TIP3    H166542   2.165   1.400  11.483  0.8389  0.4782 -1.1234
15017TIP3    H266543   2.101   1.417  11.347  1.2334 -1.5435 -1.5793
15018TIP3   OH266544   4.311   5.692  17.070 -0.0239  0.5785  0.2489
15018TIP3    H166545   4.303   5.748  17.147  1.7773  1.6365 -0.3041
15018TIP3    H266546   4.340   5.752  17.000  1.1896 -0.9030 -0.5429
15019TIP3   OH266547   6.682   2.098  15.571 -0.0007  0.1834  0.7327
15019TIP3    H166548   6.615   2.053  15.520  1.5841 -0.3886 -0.8916
15019TIP3    H266549   6.671   2.190  15.549 -0.3938  0.1156  0.6392
15020TIP3   OH266550   0.303   2.360   2.097 -0.0512  0.3407 -0.0832
15020TIP3    H166551   0.338   2.345   2.185 -2.0037 -1.1178  0.4897
15020TIP3    H266552   0.380   2.366   2.041  1.1489 -1.6660  1.2939
15021TIP3   OH266553   4.173   6.175  16.709 -0.2078  0.6362 -0.6087
15021TIP3    H166554   4.132   6.110  16.653 -1.1239  0.1475  0.6056
15021TIP3    H266555   4.234   6.222  16.651 -1.8662  0.8277 -2.2390
15022TIP3   OH266556   0.791   3.397   6.066 -0.2316  0.2155 -0.7231
15022TIP3    H166557   0.732   3.417   6.138  1.0525  0.6743  0.2245
15022TIP3    H266558   0.795   3.302   6.064  1.0005  0.2218  0.8852
15023TIP3   OH266559   4.869   0.040  17.065 -0.6374 -0.0676  0.4241
15023TIP3    H166560   4.821   0.092  17.131 -0.4502  0.8141 -0.1255
15023TIP3    H266561   4.915   0.105  17.012  0.9345 -0.8936  0.7471
15024TIP3   OH266562   5.014   1.907  11.267  0.4530  0.4804  0.1497
15024TIP3    H166563   5.056   1.925  11.183  1.0203  0.2466  0.3777
15024TIP3    H266564   5.044   1.819  11.290  0.6416  0.7189  0.8058
15025TIP3   OH266565   5.415   0.322  10.692 -0.1217  0.2993 -0.0922
15025TIP3    H166566   5.359   0.312  10.769 -0.5218 -0.2254 -0.4506
15025TIP3    H266567   5.486   0.380  10.722  1.2242 -2.0357  1.4929
15026TIP3   OH266568   4.900   5.664  17.058 -0.8754 -0.0944 -0.1334
15026TIP3    H166569   4.930   5.651  17.148  0.7359 -1.3077 -0.8282
15026TIP3    H266570   4.905   5.758  17.044 -0.1103 -0.0098  0.7039
15027TIP3   OH266571   5.705   1.460  16.572 -0.2375 -0.2140 -0.4142
15027TIP3    H166572   5.687   1.536  16.627 -0.4917 -0.6088  0.0517
15027TIP3    H266573   5.800   1.446  16.579 -0.4056 -0.8644  0.7250
15028TIP3   OH266574   6.527   1.458  14.908 -0.5468  0.1100 -0.4755
15028TIP3    H166575   6.603   1.496  14.951 -0.9376  2.9094 -2.0896
15028TIP3    H266576   6.457   1.463  14.973 -0.9925  3.7500 -1.1582
15029TIP3   OH266577   1.873   1.530   2.590 -0.1010  0.3310 -0.1295
15029TIP3    H166578   1.864   1.440   2.556  1.5172  0.4643 -0.9587
15029TIP3    H266579   1.784   1.564   2.590 -0.7348 -1.2590  0.1513
15030TIP3   OH266580   0.890   1.860  16.512  0.1493 -0.0424 -0.3680
15030TIP3    H166581   0.940   1.798  16.459  0.1502  0.1119 -0.5547
15030TIP3    H266582   0.955   1.920  16.547  0.1980 -0.4114  0.1770
15031TIP3   OH266583   2.557   6.796  11.076 -0.4653 -0.7816 -0.1713
15031TIP3    H166584   2.650   6.773  11.070 -0.2343  0.0402  0.1837
15031TIP3    H266585   2.535   6.781  11.168  0.0445  1.6954  0.3899
15032TIP3   OH266586   6.515   0.374   0.608  0.5319  0.1231 -0.2188
15032TIP3    H166587   6.469   0.455   0.586 -0.6712 -1.1397 -2.5994
15032TIP3    H266588   6.451   0.322   0.657  0.0963 -0.7880 -1.7255
15033TIP3   OH266589   3.801   1.584  14.716 -0.3353  0.4278 -0.3148
15033TIP3    H166590   3.715   1.625  14.718 -0.0312  1.1281 -1.3673
15033TIP3    H266591   3.812   1.556  14.625  0.3903 -0.0087 -0.0989
15034TIP3   OH266592   0.960   2.116  13.645 -0.5990  0.3230  0.3276
15034TIP3    H166593   0.948   2.105  13.551 -1.3013  1.6915  0.2498
15034TIP3    H266594   1.006   2.037  13.673 -0.9070 -0.3566 -1.0668
15035TIP3   OH266595   1.894   1.118   0.194 -0.1769 -0.1972  0.2201
15035TIP3    H166596   1.937   1.106   0.278  0.4589  0.3978 -0.0074
15035TIP3    H266597   1.850   1.035   0.177 -1.3722  0.1073  1.7299
15036TIP3   OH266598   4.886   2.355  14.787 -0.7434  0.1947 -0.6305
15036TIP3    H166599   4.803   2.344  14.741 -1.8781 -0.4517  1.4633
15036TIP3    H266600   4.950   2.308  14.734 -1.6098  1.0899 -2.5159
15037TIP3   OH266601   6.743   2.405   4.785  0.1163 -0.4757 -0.0558
15037TIP3    H166602   6.772   2.491   4.815  3.5216 -1.7111  0.4723
15037TIP3    H266603   6.732   2.353   4.865 -0.3478 -0.9835 -0.4441
15038TIP3   OH266604   3.461   1.992   2.829 -0.1077 -0.2685  0.1226
15038TIP3    H166605   3.471   1.941   2.749  0.3297 -0.2783  0.1809
15038TIP3    H266606   3.498   2.077   2.808 -1.3918  0.2278 -0.1663
15039TIP3   OH266607   3.639   1.952   3.056  0.1053  0.0092  0.0774
15039TIP3    H166608   3.569   1.965   2.992  1.4352  0.1064 -1.3832
15039TIP3    H266609   3.687   1.876   3.024  0.8310  0.0905  0.9467
15040TIP3   OH266610   5.144   5.643   1.421 -0.0618 -0.7504 -0.4025
15040TIP3    H166611   5.210   5.629   1.488  0.1218  0.1954 -0.3872
15040TIP3    H266612   5.116   5.555   1.396  0.5695 -1.1247  0.2147
15041TIP3   OH266613   0.690   6.631  16.004 -0.3902 -0.3416 -0.0406
15041TIP3    H166614   0.731   6.606  15.921  0.8555  1.2046  0.0856
15041TIP3    H266615   0.748   6.596  16.072 -1.2659 -1.3693  0.1962
15042TIP3   OH266616   1.742   1.652   2.224 -0.3350 -0.0756  0.6882
15042TIP3    H166617   1.825   1.655   2.272  0.9322 -0.6378 -1.3813
15042TIP3    H266618   1.730   1.559   2.204 -0.7525  0.1655 -0.2049
15043TIP3   OH266619   4.396   5.551   2.099 -0.0447  0.5010 -0.6083
15043TIP3    H166620   4.306   5.581   2.087  0.2936  1.2503 -1.3864
15043TIP3    H266621   4.430   5.543   2.010  0.4847 -0.3132 -0.3326
15044TIP3   OH266622   4.470   3.314  15.704 -1.1931  0.1952  0.2670
15044TIP3    H166623   4.501   3.285  15.618 -1.0958  1.4776 -0.1465
15044TIP3    H266624   4.481   3.238  15.761 -1.3117 -0.6868 -0.8671
15045TIP3   OH266625   3.456   3.981  13.219  0.2067  0.2532  0.0458
15045TIP3    H166626   3.405   4.060  13.240 -0.4871  0.1475 -1.2209
15045TIP3    H266627   3.416   3.913  13.273 -1.5505 -0.0039 -1.5131
15046TIP3   OH266628   5.880   6.452  16.304 -0.4796 -0.2442 -0.0106
15046TIP3    H166629   5.909   6.377  16.357  0.6708  0.1241 -0.1029
15046TIP3    H266630   5.811   6.493  16.357 -0.3331 -0.7175  0.5532
15047TIP3   OH266631   0.750   3.093  11.354  0.1154 -0.5763  0.5760
15047TIP3    H166632   0.830   3.134  11.322  0.9986 -1.6678  1.3819
15047TIP3    H266633   0.694   3.087  11.276  0.7494  0.3088  0.0399
15048TIP3   OH266634   5.247   5.407   0.297 -0.1302  0.7372 -0.7378
15048TIP3    H166635   5.200   5.486   0.326  0.9647  1.6877 -1.5337
15048TIP3    H266636   5.255   5.354   0.377 -2.1909  0.7420 -0.5067
15049TIP3   OH266637   1.442   0.475  16.015 -0.0841 -0.0307 -0.2376
15049TIP3    H166638   1.437   0.542  15.946 -4.3651  1.0249  0.9357
15049TIP3    H266639   1.432   0.392  15.969 -1.4952  0.5862 -1.0908
15050TIP3   OH266640   5.054   0.911  12.416  0.2658 -0.3064 -0.3085
15050TIP3    H166641   5.078   0.997  12.382  0.8276 -1.0037 -1.7230
15050TIP3    H266642   5.116   0.851  12.376 -1.7441 -1.7167 -1.4403
15051TIP3   OH266643   5.018   4.400   6.550 -0.4123 -0.1516 -0.0876
15051TIP3    H166644   4.992   4.481   6.506  2.3375  1.4335  1.0431
15051TIP3    H266645   5.002   4.417   6.643  0.2449 -0.8700  0.1616
15052TIP3   OH266646   6.662   0.364  15.733 -0.0508  0.4412 -0.4196
15052TIP3    H166647   6.641   0.299  15.800  0.1645  0.1165 -0.6629
15052TIP3    H266648   6.578   0.382  15.690 -0.1743  0.5909 -0.1174
15053TIP3   OH266649   4.589   4.241  12.630  0.0836  0.2692 -0.1990
15053TIP3    H166650   4.619   4.155  12.599  0.4246 -0.0773  1.0732
15053TIP3    H266651   4.669   4.289  12.649 -0.1073  0.9014 -0.9660
15054TIP3   OH266652   6.762   3.955  13.994 -0.1348 -0.5016 -0.6395
15054TIP3    H166653   6.712   3.946  14.075  1.8077 -1.9673  0.4423
15054TIP3    H266654   6.755   4.048  13.973 -1.1657 -0.2000  0.8814
15055TIP3   OH266655   2.484   0.492  15.383  0.1548  0.0459  0.1705
15055TIP3    H166656   2.570   0.450  15.376 -1.7411 -4.3915  1.6703
15055TIP3    H266657   2.486   0.534  15.469  1.1337  0.7406 -0.1804
15056TIP3   OH266658   1.884   1.724  11.098  0.8803 -0.0906  0.1342
15056TIP3    H166659   1.912   1.678  11.019  2.2462 -1.7477  1.5409
15056TIP3    H266660   1.825   1.663  11.142  1.0018  0.3717  0.9458
15057TIP3   OH266661   4.001   4.429   1.595  0.0519 -0.7493 -0.2537
15057TIP3    H166662   3.962   4.370   1.660 -0.9830 -0.9859 -1.0702
15057TIP3    H266663   4.019   4.510   1.644  2.1061 -1.9378  1.0367
15058TIP3   OH266664   6.495   0.387  12.815 -0.0893 -0.1776 -0.0799
15058TIP3    H166665   6.480   0.402  12.908  1.1021  2.4215 -0.2559
15058TIP3    H266666   6.437   0.315  12.792 -3.6006  1.9503  1.7318
15059TIP3   OH266667   1.860   5.289  14.556 -0.2618  0.7221  0.5017
15059TIP3    H166668   1.827   5.373  14.588  0.6243  0.9454  0.8459
15059TIP3    H266669   1.955   5.302  14.546 -0.1953 -0.0682  0.0366
15060TIP3   OH266670   1.983   0.368  15.895  0.0449  0.3569  0.2890
15060TIP3    H166671   1.976   0.392  15.987  0.0227  1.4474  0.0119
15060TIP3    H266672   1.906   0.314  15.877 -1.2763  2.2109  0.2906
15061TIP3   OH266673   4.870   0.246   0.423  0.0710  0.1762  0.5267
15061TIP3    H166674   4.803   0.296   0.470 -0.0296  0.5824 -0.0284
15061TIP3    H266675   4.952   0.268   0.467 -0.0176  0.5851  0.4945
15062TIP3   OH266676   0.440   1.995   4.731 -0.2904 -0.0548 -0.0580
15062TIP3    H166677   0.508   2.013   4.795 -1.7529  0.0058  1.4957
15062TIP3    H266678   0.395   2.079   4.720  0.0065 -0.0403 -1.2425
15063TIP3   OH266679   1.010   6.515  16.624 -0.0004 -0.1161  0.0731
15063TIP3    H166680   1.048   6.440  16.579 -0.8960 -0.8484  0.5320
15063TIP3    H266681   0.946   6.478  16.684  1.4098  0.8255  2.2016
15064TIP3   OH266682   5.159   0.092  11.831  0.4773  0.0113 -0.0895
15064TIP3    H166683   5.174   0.070  11.739  1.3637 -0.8598  0.2573
15064TIP3    H266684   5.209   0.027  11.880 -1.8744 -0.9985  1.0598
15065TIP3   OH266685   6.580   5.572  13.423 -0.1178  0.2417  0.1863
15065TIP3    H166686   6.529   5.512  13.368  0.9090 -1.8482  1.4379
15065TIP3    H266687   6.523   5.647  13.437 -2.1337 -1.2381  0.0646
15066TIP3   OH266688   1.074   4.066   4.042  0.8392  0.9339  0.2164
15066TIP3    H166689   0.992   4.111   4.061 -0.5598 -1.3892 -0.1573
15066TIP3    H266690   1.084   4.003   4.114  2.0796  0.9094  0.0394
15067TIP3   OH266691   5.181   5.286  13.455  0.2807 -0.0313  0.4259
15067TIP3    H166692   5.176   5.335  13.372  1.5553  0.0204  0.3675
15067TIP3    H266693   5.132   5.340  13.517 -1.1700 -0.3398 -0.4101
15068TIP3   OH266694   3.772   1.019  10.423  0.2365  0.7037  0.4753
15068TIP3    H166695   3.751   1.075  10.347  0.0457  1.4526  1.0765
15068TIP3    H266696   3.862   0.989  10.406  0.5734  1.7020  0.4535
15069TIP3   OH266697   3.325   0.714  16.047  0.1219  0.2216 -0.3079
15069TIP3    H166698   3.236   0.696  16.078  0.4074 -2.9101 -1.2001
15069TIP3    H266699   3.377   0.725  16.127  0.0921 -3.9747  0.3980
15070TIP3   OH266700   4.764   1.930  14.680  0.2541 -0.4971 -0.2117
15070TIP3    H166701   4.762   1.834  14.684 -0.0045 -0.6058 -2.0762
15070TIP3    H266702   4.743   1.959  14.768 -0.7033 -2.1668  0.1297
15071TIP3   OH266703   6.155   0.504   3.225  0.4505  1.0470 -0.0861
15071TIP3    H166704   6.149   0.530   3.133 -0.5141 -1.5448 -0.8028
15071TIP3    H266705   6.074   0.456   3.242 -0.2164  2.9710  2.6524
15072TIP3   OH266706   1.376   4.669  10.761 -0.4084 -0.0203  0.0918
15072TIP3    H166707   1.315   4.633  10.697 -0.4633  0.6083 -0.2044
15072TIP3    H266708   1.333   4.747  10.795 -0.0339  0.0901  0.3157
15073TIP3   OH266709   1.969   4.241  10.402  0.6682  0.2192  0.6210
15073TIP3    H166710   1.917   4.315  10.432 -0.7659 -1.9657  3.7309
15073TIP3    H266711   2.018   4.212  10.479  1.2651 -2.0226 -0.5496
15074TIP3   OH266712   2.509   0.740   5.390  0.0198 -0.1198  0.7861
15074TIP3    H166713   2.531   0.832   5.372 -0.2371 -0.4912 -1.6586
15074TIP3    H266714   2.594   0.696   5.397  0.1390  0.1490  1.0294
15075TIP3   OH266715   6.437   2.466  11.836 -0.2570  0.0617 -0.5370
15075TIP3    H166716   6.360   2.496  11.787 -0.2086 -0.3977 -0.8947
15075TIP3    H266717   6.410   2.384  11.876  0.4315 -0.7397 -1.6712
15076TIP3   OH266718   1.083   6.607  14.286 -0.6997 -0.1294 -0.5175
15076TIP3    H166719   1.102   6.700  14.272 -1.7795  0.0210 -1.0442
15076TIP3    H266720   1.118   6.564  14.208  0.5407 -0.2704  0.1078
15077TIP3   OH266721   3.956   1.147   2.248  0.0860 -0.2163  0.3061
15077TIP3    H166722   3.959   1.238   2.218  1.1420 -0.3299  0.0776
15077TIP3    H266723   4.041   1.132   2.290 -0.7034 -0.5913  1.8182
15078TIP3   OH266724   5.123   5.909   5.230  0.2106 -0.0509 -0.5459
15078TIP3    H166725   5.177   5.979   5.194  0.1156 -0.0838 -0.7591
15078TIP3    H266726   5.075   5.875   5.154  0.3402 -0.4216 -0.4648
15079TIP3   OH266727   1.564   4.351  12.209  0.2622 -0.2376 -0.2308
15079TIP3    H166728   1.503   4.420  12.181  1.0730  0.1820 -0.9901
15079TIP3    H266729   1.564   4.288  12.137  0.4078 -0.4508 -0.0453
15080TIP3   OH266730   2.693   1.368   3.825  0.2039 -0.0721  0.3681
15080TIP3    H166731   2.650   1.283   3.837 -0.3974  0.1984  0.1535
15080TIP3    H266732   2.641   1.411   3.757 -0.8320  1.3613  2.0386
15081TIP3   OH266733   4.150   2.745  13.827  0.3591  0.1653 -0.1572
15081TIP3    H166734   4.137   2.696  13.908 -0.7603  0.3674 -0.2117
15081TIP3    H266735   4.234   2.713  13.793  0.4853 -0.4379  0.7039
15082TIP3   OH266736   1.166   2.921  17.076 -0.2514 -0.1104 -0.8105
15082TIP3    H166737   1.191   2.885  17.161 -1.2779  0.1685 -0.3876
15082TIP3    H266738   1.077   2.952  17.088 -0.3730  0.0164 -1.9677
15083TIP3   OH266739   1.663   3.650   5.057  0.0810  0.1767 -0.0835
15083TIP3    H166740   1.754   3.621   5.052  0.0036  0.0262 -0.6160
15083TIP3    H266741   1.642   3.647   5.151  0.5745  0.0732  0.0260
15084TIP3   OH266742   2.156   4.743  13.104 -0.0045  0.6460  0.0326
15084TIP3    H166743   2.161   4.809  13.173  0.4759  1.2075 -0.5376
15084TIP3    H266744   2.193   4.786  13.027 -0.3526 -0.0489 -0.5220
15085TIP3   OH266745   2.324   6.724   3.305 -0.4095  0.7673 -0.2947
15085TIP3    H166746   2.314   6.788   3.375 -0.2767  1.9822 -1.3526
15085TIP3    H266747   2.247   6.737   3.249 -1.1469 -1.0162  0.2484
15086TIP3   OH266748   1.422   2.974  11.454  0.0716  0.0736  0.2227
15086TIP3    H166749   1.390   2.921  11.527  0.6586 -1.2442 -0.4666
15086TIP3    H266750   1.368   2.947  11.379 -1.1755  2.0887  0.3392
15087TIP3   OH266751   1.915   1.003  17.065  0.4373 -0.0757  1.1606
15087TIP3    H166752   1.945   0.912  17.062  0.3044 -0.1199  1.1740
15087TIP3    H266753   1.868   1.015  16.982 -0.3589 -0.2997  1.5792
15088TIP3   OH266754   5.002   5.923   2.208  1.0035 -0.1554 -0.4855
15088TIP3    H166755   4.971   5.956   2.293  1.1037  1.4633 -1.0561
15088TIP3    H266756   4.942   5.851   2.187 -0.4832  0.9374 -0.1294
15089TIP3   OH266757   5.985   2.360  13.348  0.3115  0.0075  0.1737
15089TIP3    H166758   5.902   2.328  13.312  0.7181 -2.6428  1.4727
15089TIP3    H266759   6.044   2.364  13.273  0.2608 -2.4567 -0.0388
15090TIP3   OH266760   1.950   2.528  12.118 -0.5179 -0.1974  0.0884
15090TIP3    H166761   1.988   2.601  12.167 -0.8359  0.1354 -0.1556
15090TIP3    H266762   1.880   2.495  12.174  0.4827 -1.1719  0.7843
15091TIP3   OH266763   4.440   5.892  10.940 -0.0688  0.2184 -0.4723
15091TIP3    H166764   4.411   5.839  10.866  3.1061 -0.1761 -1.4789
15091TIP3    H266765   4.511   5.946  10.905  1.0635  0.5008  2.1298
15092TIP3   OH266766   2.873   0.554  15.851 -0.2870  0.3554 -0.3052
15092TIP3    H166767   2.965   0.549  15.875 -0.2081 -1.2825 -0.9297
15092TIP3    H266768   2.868   0.517  15.763 -1.8165 -1.2803  0.4434
15093TIP3   OH266769   2.484   4.763  17.116  0.7067 -1.1709 -0.0637
15093TIP3    H166770   2.407   4.730  17.161  0.3530 -0.5319 -0.1863
15093TIP3    H266771   2.551   4.695  17.127  0.5156 -1.1683  1.1075
15094TIP3   OH266772   4.258   4.234  11.361  0.2781 -0.0826  0.5670
15094TIP3    H166773   4.181   4.291  11.358  0.6024  0.3282  0.0688
15094TIP3    H266774   4.247   4.175  11.287 -0.0723 -0.7030  1.0999
15095TIP3   OH266775   4.489   4.302  14.478  0.8499 -0.2865 -0.5881
15095TIP3    H166776   4.467   4.217  14.517  0.3930 -0.3163 -0.9097
15095TIP3    H266777   4.414   4.358  14.498  2.5285  1.0134  2.4669
15096TIP3   OH266778   3.088   4.573   2.111 -0.4576 -0.1142  0.6042
15096TIP3    H166779   3.062   4.633   2.040 -0.4470  0.9640  1.4921
15096TIP3    H266780   3.169   4.532   2.079  1.3004  2.6692  1.2175
15097TIP3   OH266781   0.885   6.655   5.572 -0.2224 -0.3767 -0.3271
15097TIP3    H166782   0.962   6.706   5.546  0.5116 -0.8133  0.9512
15097TIP3    H266783   0.836   6.712   5.631 -0.4739 -0.3970 -0.5124
15098TIP3   OH266784   3.809   1.859   1.475  0.3356  0.0936 -0.1209
15098TIP3    H166785   3.870   1.812   1.532  1.0241 -1.3009 -1.9583
15098TIP3    H266786   3.723   1.823   1.496  0.5837 -0.4034  0.0434
15099TIP3   OH266787   6.171   2.055  11.704 -0.5356  0.0789  0.0344
15099TIP3    H166788   6.140   1.965  11.702 -1.6367  0.4750 -1.4537
15099TIP3    H266789   6.160   2.082  11.795  0.0865 -1.3662  0.5580
15100TIP3   OH266790   0.908   5.677  11.706 -0.5028 -0.2709  0.1106
15100TIP3    H166791   0.882   5.586  11.722  0.6057 -0.4969  0.6385
15100TIP3    H266792   0.858   5.728  11.769 -1.1773 -0.5003 -0.2294
15101TIP3   OH266793   6.164   4.124   6.014 -0.0959 -0.4746  0.4681
15101TIP3    H166794   6.083   4.075   6.004 -1.0494  1.3373 -0.9735
15101TIP3    H266795   6.211   4.109   5.932  0.0564  0.2263  0.4294
15102TIP3   OH266796   5.732   5.124  13.930  0.0348 -0.0851  0.1403
15102TIP3    H166797   5.717   5.200  13.986  0.3617  0.4140 -0.4393
15102TIP3    H266798   5.673   5.136  13.856  0.7427  0.0919 -0.4102
15103TIP3   OH266799   6.098   6.351  13.121 -0.2725  0.2131  0.2544
15103TIP3    H166800   6.077   6.263  13.089 -0.2895  0.1680  0.3901
15103TIP3    H266801   6.172   6.338  13.181  0.9594  0.5144 -1.1564
15104TIP3   OH266802   5.027   2.053   1.279 -0.2848 -0.3882  0.8079
15104TIP3    H166803   4.976   2.071   1.358  0.5119 -0.8294  1.4295
15104TIP3    H266804   5.027   1.958   1.271 -2.1891 -0.2961 -0.9624
15105TIP3   OH266805   2.238   2.215   2.329 -0.2683  0.2970 -0.0657
15105TIP3    H166806   2.147   2.203   2.358  0.1357 -0.9062  0.7628
15105TIP3    H266807   2.262   2.130   2.291  0.4728  0.6525 -0.3922
15106TIP3   OH266808   2.235   1.008   4.907  0.1086  0.3552  0.1344
15106TIP3    H166809   2.238   1.066   4.832  0.3892 -1.0408 -0.9531
15106TIP3    H266810   2.325   0.979   4.919 -0.0153  0.1874  0.6933
15107TIP3   OH266811   4.757   2.517   3.522  0.1984  0.4959  0.2206
15107TIP3    H166812   4.812   2.494   3.597 -1.8688 -2.0043  1.0529
15107TIP3    H266813   4.779   2.452   3.455  0.7848  1.6658 -0.7532
15108TIP3   OH266814   4.294   2.498  14.355 -0.0206 -0.0726 -0.4746
15108TIP3    H166815   4.278   2.439  14.281  1.5729  2.0119 -2.5405
15108TIP3    H266816   4.321   2.580  14.315 -0.9032  1.6801  2.4024
15109TIP3   OH266817   4.197   2.165  17.264 -0.1153 -0.0087 -0.3304
15109TIP3    H166818   4.229   2.235  17.207  0.4086 -0.1491 -0.2101
15109TIP3    H266819   4.174   2.210  17.346  0.8545 -0.0784 -0.0221
15110TIP3   OH266820   6.379   1.400  16.852  0.3885  0.0367 -0.2180
15110TIP3    H166821   6.389   1.375  16.760 -1.2565  1.5309 -0.8274
15110TIP3    H266822   6.335   1.485  16.850  0.7175  0.2926  1.9454
15111TIP3   OH266823   0.871   2.183  10.751  1.0552 -0.0250  0.2238
15111TIP3    H166824   0.838   2.098  10.781 -1.1150  1.5009  2.2956
15111TIP3    H266825   0.889   2.232  10.832  0.4116  2.1942 -0.9423
15112TIP3   OH266826   0.346   5.355   5.333  0.7225 -0.1638  0.3320
15112TIP3    H166827   0.438   5.337   5.316  0.6570 -1.6359  1.4653
15112TIP3    H266828   0.299   5.305   5.266  0.7827  2.8282 -2.0748
15113TIP3   OH266829   2.607   3.592  15.556 -0.4234 -0.2282 -0.0686
15113TIP3    H166830   2.640   3.528  15.619 -2.0217  0.0276  1.0750
15113TIP3    H266831   2.662   3.581  15.479  1.4561 -0.6734  1.3038
15114TIP3   OH266832   4.750   0.897  16.444 -0.8010 -0.6933  0.0597
15114TIP3    H166833   4.844   0.898  16.423  0.1764 -0.2456  4.0796
15114TIP3    H266834   4.708   0.936  16.367  2.2951 -0.7320 -1.7388
15115TIP3   OH266835   4.838   6.362   4.698 -0.6566  0.8789  0.1553
15115TIP3    H166836   4.742   6.366   4.699 -0.6224  1.7988  2.0694
15115TIP3    H266837   4.866   6.454   4.696  0.2067  0.6043 -1.7882
15116TIP3   OH266838   6.055   3.474   4.479 -0.7577 -0.3545  0.1817
15116TIP3    H166839   6.063   3.438   4.567 -0.6349  0.3950  0.4777
15116TIP3    H266840   6.084   3.403   4.422  0.1349 -0.5045  0.7981
15117TIP3   OH266841   5.537   6.348   1.885  0.1265 -0.3588  0.0791
15117TIP3    H166842   5.615   6.400   1.868 -0.1030 -0.0658 -0.0787
15117TIP3    H266843   5.549   6.269   1.832  0.5085 -0.5067  0.3767
15118TIP3   OH266844   5.232   1.379   5.810  0.5597  0.1447 -0.4949
15118TIP3    H166845   5.295   1.367   5.739  0.3328 -0.9849 -0.5089
15118TIP3    H266846   5.270   1.448   5.864  2.0128 -0.8297 -0.2568
15119TIP3   OH266847   0.560   4.770   0.328  0.1169  0.1736  0.0755
15119TIP3    H166848   0.543   4.825   0.251 -1.9027 -0.6471 -0.1060
15119TIP3    H266849   0.527   4.821   0.402  0.6941  0.3380  0.2174
15120TIP3   OH266850   0.263   1.692  12.468 -0.1083  0.4409 -0.2689
15120TIP3    H166851   0.331   1.715  12.531  0.7393 -0.5385 -0.8276
15120TIP3    H266852   0.311   1.659  12.392 -1.2595 -2.2034  0.1079
15121TIP3   OH266853   2.617   4.908   2.616  0.0970 -0.0248 -0.2968
15121TIP3    H166854   2.615   5.001   2.594  0.1495 -0.1868 -0.9899
15121TIP3    H266855   2.531   4.890   2.654 -0.1411  0.1631 -0.7429
15122TIP3   OH266856   5.772   5.244   4.995 -0.4237 -0.3652  0.3740
15122TIP3    H166857   5.715   5.182   5.041 -1.3110  0.9169  1.0332
15122TIP3    H266858   5.832   5.276   5.062  0.3341 -0.8539 -0.0685
15123TIP3   OH266859   5.120   1.255   4.422 -0.0944 -0.3055 -0.0141
15123TIP3    H166860   5.040   1.224   4.464 -0.4839 -0.4531 -0.8663
15123TIP3    H266861   5.119   1.350   4.437 -1.6838  0.0412 -2.1347
15124TIP3   OH266862   4.034   5.327  15.599 -0.0992 -0.0186 -0.2278
15124TIP3    H166863   3.952   5.325  15.649 -0.1778  0.8052 -0.3298
15124TIP3    H266864   4.046   5.418  15.574  0.1879 -0.3393 -1.3101
15125TIP3   OH266865   2.546   1.317  12.153  0.1594  0.6193  0.3204
15125TIP3    H166866   2.572   1.291  12.065  1.9537 -0.0928  1.0349
15125TIP3    H266867   2.500   1.241  12.188 -3.2908  1.9606 -1.0267
15126TIP3   OH266868   0.430   4.042   2.043 -0.2047 -0.1710  0.0738
15126TIP3    H166869   0.437   4.137   2.057 -0.5652  0.0483 -1.1606
15126TIP3    H266870   0.517   4.009   2.064 -0.6320  0.1493  2.5114
15127TIP3   OH266871   0.760   6.411   4.324 -0.2160  0.3615 -0.2089
15127TIP3    H166872   0.762   6.346   4.395 -0.4828  0.8977  0.2966
15127TIP3    H266873   0.833   6.387   4.268 -0.0490 -0.1227  0.2096
15128TIP3   OH266874   4.596   4.263   4.948  0.6542 -0.1623 -0.3863
15128TIP3    H166875   4.625   4.185   4.996 -0.5389  0.1198  0.8526
15128TIP3    H266876   4.612   4.243   4.856  2.2583 -1.0511  0.0731
15129TIP3   OH266877   5.814   2.029   5.095  0.4078  0.1011  0.5249
15129TIP3    H166878   5.796   2.121   5.112 -0.4694 -0.1249  0.8467
15129TIP3    H266879   5.906   2.027   5.068  0.5511  1.0143  0.9256
15130TIP3   OH266880   3.839   5.767  15.766 -0.0203 -0.1468  0.4847
15130TIP3    H166881   3.882   5.828  15.707 -0.4219  1.9620  2.2860
15130TIP3    H266882   3.746   5.770  15.741  0.0368 -0.3731  0.2514
15131TIP3   OH266883   2.629   3.911   2.137  0.1847 -0.0117  0.2560
15131TIP3    H166884   2.567   3.982   2.151 -1.0266 -0.7772 -1.1319
15131TIP3    H266885   2.602   3.871   2.054  2.4012 -0.4846 -0.2678
15132TIP3   OH266886   1.930   4.386   1.139  0.0787 -0.5913 -0.0282
15132TIP3    H166887   1.980   4.444   1.080  0.5855 -1.0830 -0.0831
15132TIP3    H266888   1.997   4.331   1.180 -0.4256 -1.2889 -0.1435
15133TIP3   OH266889   0.941   2.743  13.023  0.1956  0.0577  0.8936
15133TIP3    H166890   0.903   2.678  13.082  1.7275  0.0009  1.8662
15133TIP3    H266891   0.914   2.715  12.936 -1.0273 -0.5963  1.4736
15134TIP3   OH266892   2.800   2.301  13.951  0.2579 -0.1331  0.1845
15134TIP3    H166893   2.866   2.241  13.915 -0.3836 -0.5736 -0.2804
15134TIP3    H266894   2.787   2.366  13.882 -0.8537 -0.8851 -0.3346
15135TIP3   OH266895   5.220   1.311   5.446  0.2819  0.2054 -0.0354
15135TIP3    H166896   5.295   1.309   5.505  0.8484 -0.6845 -0.7757
15135TIP3    H266897   5.144   1.295   5.503  0.3563  3.5165  1.1100
15136TIP3   OH266898   5.069   3.909  14.634  0.0690 -0.2705  0.1212
15136TIP3    H166899   4.987   3.920  14.682 -0.1226  1.1551 -0.4986
15136TIP3    H266900   5.133   3.958  14.684 -0.0335  0.8392 -0.8135
15137TIP3   OH266901   2.028   4.091   2.614 -0.1838 -0.7204 -0.6146
15137TIP3    H166902   2.012   4.114   2.522 -0.3451 -1.0011 -0.6560
15137TIP3    H266903   2.046   4.175   2.656 -1.4334 -0.4365 -0.6295
15138TIP3   OH266904   6.370   6.599  12.732  0.1770 -0.1688  0.0514
15138TIP3    H166905   6.282   6.612  12.765  0.4701  1.4289  0.2472
15138TIP3    H266906   6.404   6.525  12.782 -1.7533 -2.1617 -1.4922
15139TIP3   OH266907   3.859   4.063  15.456  0.1237  0.1985  0.2719
15139TIP3    H166908   3.897   3.979  15.480 -1.4823 -0.6624 -0.0719
15139TIP3    H266909   3.879   4.121  15.529  1.6636 -0.3542  0.2921
15140TIP3   OH266910   6.619   1.721  11.586  0.2138 -0.7393  0.4093
15140TIP3    H166911   6.574   1.663  11.524  0.7582  2.5211 -3.2018
15140TIP3    H266912   6.551   1.780  11.618  0.6997  0.1757 -0.2236
15141TIP3   OH266913   3.940   0.392   0.063  0.0655  0.2236 -0.2732
15141TIP3    H166914   3.936   0.365   0.154  0.4739 -0.7598 -0.5456
15141TIP3    H266915   3.864   0.349   0.022  0.4162 -0.0890 -0.5960
15142TIP3   OH266916   4.014   0.671  16.338  0.3696 -0.6429 -0.3134
15142TIP3    H166917   4.077   0.739  16.314 -1.3199  1.0660 -0.0325
15142TIP3    H266918   3.954   0.666  16.263 -0.2039 -0.9627  0.1599
15143TIP3   OH266919   4.405   2.643  12.246 -0.2355  0.6484 -0.2576
15143TIP3    H166920   4.321   2.689  12.241 -1.1230 -0.9620 -0.7857
15143TIP3    H266921   4.401   2.596  12.330 -0.3596 -0.3125 -0.7883
15144TIP3   OH266922   3.099   3.394   6.081  1.1576  0.1988 -0.4061
15144TIP3    H166923   3.148   3.370   6.160 -0.0107 -0.1591  0.2213
15144TIP3    H266924   3.164   3.438   6.025  2.0640  0.1971  0.6227
15145TIP3   OH266925   3.743   4.560   1.053  1.0345  0.5142 -0.2900
15145TIP3    H166926   3.815   4.571   0.990  1.2053 -0.5301 -0.2798
15145TIP3    H266927   3.738   4.644   1.099  0.2845  1.6520 -2.3588
15146TIP3   OH266928   3.933   2.158   2.559  0.3398  0.7019  0.3074
15146TIP3    H166929   3.967   2.069   2.564 -1.8443 -0.0718  2.6941
15146TIP3    H266930   3.861   2.153   2.496 -0.0848  0.6623  0.7915
15147TIP3   OH266931   3.572   0.592   1.464  0.0227 -0.3073 -0.1498
15147TIP3    H166932   3.634   0.590   1.391 -0.1249  0.3377 -0.2982
15147TIP3    H266933   3.612   0.538   1.532 -0.7945 -2.6584 -1.4823
15148TIP3   OH266934   3.426   0.152  16.042  0.2960 -0.0721 -0.0435
15148TIP3    H166935   3.360   0.208  16.000 -0.3033 -0.7089  0.0246
15148TIP3    H266936   3.480   0.212  16.093 -0.4342  0.4301  0.1557
15149TIP3   OH266937   5.224   0.470   1.149  0.6444  0.1395 -0.4808
15149TIP3    H166938   5.287   0.407   1.184 -0.6295 -1.8691 -1.7340
15149TIP3    H266939   5.266   0.555   1.163  2.6827 -0.9998  0.6455
15150TIP3   OH266940   3.384   2.740  12.040  0.3885  0.4846 -0.1691
15150TIP3    H166941   3.361   2.657  12.081  2.2745  0.5777  1.1226
15150TIP3    H266942   3.436   2.786  12.106  0.0109  2.3773 -1.1457
15151TIP3   OH266943   1.729   6.724   2.524 -0.2356 -0.4658 -0.5114
15151TIP3    H166944   1.640   6.720   2.489 -0.7427 -0.9909  0.7869
15151TIP3    H266945   1.763   6.635   2.515  0.3714 -0.1347 -1.5345
15152TIP3   OH266946   1.715   0.928   2.974  0.1276  0.3571 -0.0107
15152TIP3    H166947   1.637   0.878   2.949  0.0337  1.0012 -1.0455
15152TIP3    H266948   1.681   0.998   3.031  0.1186 -0.1161  0.5664
15153TIP3   OH266949   6.694   4.394  13.679  0.2465  0.6526  0.2713
15153TIP3    H166950   6.759   4.449  13.723  0.8364  0.8671 -0.8434
15153TIP3    H266951   6.612   4.441  13.691  0.6953  1.6369 -0.3917
15154TIP3   OH266952   1.710   1.952   4.519 -0.2825  0.0439 -0.1467
15154TIP3    H166953   1.783   1.913   4.470 -0.1910 -0.7065  0.5761
15154TIP3    H266954   1.637   1.951   4.457  0.5307  1.5837 -1.1599
15155TIP3   OH266955   2.344   6.147  15.898 -0.3370 -0.0093  0.7401
15155TIP3    H166956   2.365   6.233  15.861  2.2410 -0.8021  0.2977
15155TIP3    H266957   2.258   6.159  15.939  0.0090  2.7756  0.7281
15156TIP3   OH266958   3.517   4.732   0.173 -0.3247  0.7647 -0.1986
15156TIP3    H166959   3.541   4.669   0.105  0.9810 -0.4183  1.3115
15156TIP3    H266960   3.457   4.793   0.130 -1.7072 -1.5707 -1.6709
15157TIP3   OH266961   2.189   5.940   6.439 -0.2551 -0.3449  0.2922
15157TIP3    H166962   2.133   5.870   6.473  1.1905 -2.1075 -0.8389
15157TIP3    H266963   2.131   5.994   6.385 -1.2083 -1.2038  0.4458
15158TIP3   OH266964   6.065   6.119  10.691  0.0847  0.0101 -0.0570
15158TIP3    H166965   6.055   6.034  10.649 -1.0444 -0.4413  1.1044
15158TIP3    H266966   6.160   6.132  10.696  0.2793  0.3358 -3.1830
15159TIP3   OH266967   3.502   6.497  13.113  0.0643  0.4596  0.0396
15159TIP3    H166968   3.438   6.477  13.046  0.0026 -0.8832  0.4987
15159TIP3    H266969   3.457   6.556  13.173 -0.0739  1.1680 -0.7515
15160TIP3   OH266970   1.341   4.694  11.427  0.0563 -0.0315 -0.0072
15160TIP3    H166971   1.391   4.772  11.403 -0.7272  0.0512 -1.4139
15160TIP3    H266972   1.404   4.623  11.421  0.4165  0.2953 -0.1459
15161TIP3   OH266973   1.382   2.252  15.409  0.7479  0.3937  0.0812
15161TIP3    H166974   1.381   2.339  15.370  0.7517  0.2545 -0.2357
15161TIP3    H266975   1.303   2.249  15.464 -0.2115 -0.0115 -1.2817
15162TIP3   OH266976   5.984   0.791   5.015 -0.4814 -0.1860  0.1514
15162TIP3    H166977   6.036   0.780   5.094 -1.2408  0.5273  0.7509
15162TIP3    H266978   5.997   0.882   4.989  0.4372 -0.6292 -1.0369
15163TIP3   OH266979   3.742   3.475  12.123  0.2094  0.0311 -0.1964
15163TIP3    H166980   3.821   3.422  12.132  0.7419  0.7812 -0.4009
15163TIP3    H266981   3.670   3.412  12.120  0.5056 -0.5336  3.2566
15164TIP3   OH266982   0.215   4.555  12.760 -0.1058 -0.5828 -0.6514
15164TIP3    H166983   0.245   4.578  12.848  1.3824 -3.0795 -0.4557
15164TIP3    H266984   0.123   4.580  12.759 -0.0018  0.0070  1.4264
15165TIP3   OH266985   5.915   0.023  16.709 -0.3261  0.2274  0.0531
15165TIP3    H166986   5.923   0.110  16.669  1.0640  1.0328  1.9777
15165TIP3    H266987   6.004   0.000  16.735 -1.0685 -0.5215  2.0788
15166TIP3   OH266988   6.116   2.340  11.157  0.3450  0.1133 -0.3487
15166TIP3    H166989   6.087   2.367  11.071 -0.3818  1.7776  0.3980
15166TIP3    H266990   6.119   2.245  11.153 -0.2406  0.1573 -2.0185
15167TIP3   OH266991   3.046   4.474  10.801  0.0098 -0.2075  0.0597
15167TIP3    H166992   3.014   4.564  10.809 -1.1180 -0.5653 -0.2817
15167TIP3    H266993   3.110   4.478  10.730  0.3383  0.4229  0.3890
15168TIP3   OH266994   0.696   6.382  14.791  0.1514 -0.3364 -0.1999
15168TIP3    H166995   0.637   6.309  14.810 -1.1305  0.0021 -2.7131
15168TIP3    H266996   0.662   6.455  14.843 -0.4523 -0.6764 -0.1150
15169TIP3   OH266997   4.114   3.991  14.332  0.4312 -0.0255 -0.5027
15169TIP3    H166998   4.178   3.952  14.392 -0.8930 -1.8232 -0.2124
15169TIP3    H266999   4.163   4.008  14.252  1.8191  0.8356  0.5046
15170TIP3   OH267000   1.061   0.517   4.243 -0.2446  0.5273 -0.2537
15170TIP3    H167001   1.132   0.560   4.196 -0.1616 -2.5837 -3.2075
15170TIP3    H267002   1.105   0.448   4.293 -0.8773  0.4030  0.1330
15171TIP3   OH267003   2.210   2.295  12.037  0.4876 -0.2232 -0.2096
15171TIP3    H167004   2.197   2.205  12.067  0.0361 -0.3696 -0.8311
15171TIP3    H267005   2.156   2.301  11.958 -1.8866  1.4694  1.4800
15172TIP3   OH267006   3.098   3.293   5.759 -0.1209 -0.4529  0.3427
15172TIP3    H167007   3.061   3.376   5.728 -0.1645 -0.8577 -0.6865
15172TIP3    H267008   3.180   3.318   5.802 -0.5327  0.2073  0.7618
15173TIP3   OH267009   5.918   2.827   1.257 -0.5014  0.5744 -0.3367
15173TIP3    H167010   5.882   2.802   1.171  1.8614  0.7385 -1.4081
15173TIP3    H267011   5.908   2.922   1.260 -0.4432  0.5875 -0.5112
15174TIP3   OH267012   2.372   5.866  15.413 -1.0678 -0.0302 -0.3093
15174TIP3    H167013   2.405   5.883  15.325  1.0610  0.6685  0.5781
15174TIP3    H267014   2.428   5.796  15.447 -1.1021  0.5158  0.9057
15175TIP3   OH267015   0.947   2.672  11.954  0.2947  0.0772 -0.4778
15175TIP3    H167016   0.888   2.647  11.883  0.1949  2.1716 -1.1461
15175TIP3    H267017   0.931   2.606  12.022 -3.3170  0.9958 -0.3480
15176TIP3   OH267018   3.646   1.753   0.346 -0.1213 -0.6962  0.6970
15176TIP3    H167019   3.595   1.766   0.426 -0.3292  0.0042  0.4552
15176TIP3    H267020   3.593   1.794   0.278  0.0123 -1.3765  0.1844
15177TIP3   OH267021   0.781   1.640   5.217  0.5188 -0.2083  0.4264
15177TIP3    H167022   0.744   1.571   5.272 -1.6307  0.1045 -0.5536
15177TIP3    H267023   0.770   1.720   5.268  1.5598 -0.3741  0.9095
15178TIP3   OH267024   2.366   1.016  13.361  0.3272  0.2291 -0.3015
15178TIP3    H167025   2.294   1.051  13.413  2.2520  1.0475  1.9010
15178TIP3    H267026   2.354   0.921  13.363 -1.0674  0.3834 -0.5862
15179TIP3   OH267027   3.280   2.586   6.720 -0.1924  0.0831 -0.5462
15179TIP3    H167028   3.247   2.669   6.756  0.1500 -0.8386  1.9528
15179TIP3    H267029   3.361   2.569   6.768 -0.3339 -1.7887 -0.9439
15180TIP3   OH267030   3.424   5.325   5.133 -0.3915  0.1917 -0.3630
15180TIP3    H167031   3.371   5.313   5.054 -0.5955 -0.8202 -0.0729
15180TIP3    H267032   3.359   5.340   5.203 -0.3116 -1.4021  0.0564
15181TIP3   OH267033   5.842   4.632   2.255  0.0652 -0.4006 -0.3708
15181TIP3    H167034   5.863   4.724   2.269  0.8081 -0.7435  0.9042
15181TIP3    H267035   5.760   4.632   2.206  0.2718  0.9370 -0.7120
15182TIP3   OH267036   0.615   3.396   5.492  0.0182 -0.4861  0.3515
15182TIP3    H167037   0.624   3.491   5.483  3.0489 -0.7429  0.1781
15182TIP3    H267038   0.576   3.368   5.410 -0.2243  0.5287  0.1069
15183TIP3   OH267039   5.022   3.500  13.005 -0.1537  0.2846  0.1787
15183TIP3    H167040   4.973   3.579  13.025 -0.0159  1.0317 -2.2438
15183TIP3    H267041   4.998   3.438  13.075 -0.1414  2.4789  2.1705
15184TIP3   OH267042   3.286   0.214   3.998  0.0027  0.3224 -0.2241
15184TIP3    H167043   3.294   0.185   3.907  0.0735 -0.3413 -0.0092
15184TIP3    H267044   3.376   0.232   4.025  0.0372  0.0211 -0.1296
15185TIP3   OH267045   4.933   5.592  13.775 -0.0656 -0.5046 -0.0864
15185TIP3    H167046   4.884   5.510  13.781 -0.2593 -0.4715 -1.1347
15185TIP3    H267047   4.977   5.600  13.859  0.7729 -2.2098 -0.3467
15186TIP3   OH267048   6.815   5.089   3.839 -0.2110  0.1788  0.1730
15186TIP3    H167049   6.775   5.024   3.897 -0.9492  0.8722  0.4459
15186TIP3    H267050   6.871   5.037   3.780 -1.0696 -0.7458  0.1504
15187TIP3   OH267051   1.586   5.687   4.353  0.5569 -0.3494 -0.1320
15187TIP3    H167052   1.674   5.649   4.342  0.2550 -1.4666  1.2501
15187TIP3    H267053   1.565   5.673   4.445 -0.8516  0.4314 -0.3221
15188TIP3   OH267054   2.308   5.840  13.824  0.2719  0.0728  0.1725
15188TIP3    H167055   2.217   5.869  13.829  0.0382 -0.1338 -2.4457
15188TIP3    H267056   2.340   5.876  13.742  1.7345 -2.1646 -0.2657
15189TIP3   OH267057   2.587   2.137   2.561 -0.0164  0.0528  0.5082
15189TIP3    H167058   2.621   2.124   2.650 -3.0171 -1.8538  1.4344
15189TIP3    H267059   2.528   2.212   2.568  4.2237  3.8227 -1.2526
15190TIP3   OH267060   2.028   0.259  10.697 -0.3396 -0.2869 -0.5638
15190TIP3    H167061   2.080   0.328  10.738  0.5562 -0.7796 -0.8455
15190TIP3    H267062   2.024   0.284  10.604 -1.5967  0.3545 -0.3469
15191TIP3   OH267063   0.113   5.548   2.732 -0.1458 -0.1125  0.2948
15191TIP3    H167064   0.182   5.543   2.665 -0.7364 -3.0531 -0.1855
15191TIP3    H267065   0.132   5.474   2.791 -3.2788 -1.4557 -0.2730
15192TIP3   OH267066   2.537   4.453  12.346 -0.1417  0.1337 -0.2181
15192TIP3    H167067   2.630   4.458  12.324 -0.2006 -1.0606 -0.7931
15192TIP3    H267068   2.519   4.535  12.392  1.5243 -0.2256  1.1729
15193TIP3   OH267069   0.173   4.779   4.183 -0.1694  0.6566 -0.4003
15193TIP3    H167070   0.081   4.779   4.209  0.2414  0.6258  1.0847
15193TIP3    H267071   0.172   4.750   4.092 -1.6236  0.5825 -0.3702
15194TIP3   OH267072   2.472   1.933  14.565  0.4936 -0.0781  0.1649
15194TIP3    H167073   2.392   1.889  14.593  0.1292  0.6731  0.3151
15194TIP3    H267074   2.463   2.022  14.598  0.9968  0.2477 -0.5685
15195TIP3   OH267075   4.994   4.147   2.242  0.2830  0.1204 -0.3960
15195TIP3    H167076   4.926   4.208   2.270  1.7478  1.6782 -0.1960
15195TIP3    H267077   4.952   4.094   2.174 -1.3151  0.6553  0.1604
15196TIP3   OH267078   6.337   4.052   4.728  0.2395 -0.4297  0.2927
15196TIP3    H167079   6.276   4.004   4.784 -0.6077  0.0524 -0.2018
15196TIP3    H267080   6.283   4.117   4.684  0.9741 -0.4912 -0.7336
15197TIP3   OH267081   1.820   5.594   1.163 -0.1789  0.2963 -1.1507
15197TIP3    H167082   1.813   5.540   1.241 -0.3584  0.0040 -1.3705
15197TIP3    H267083   1.831   5.683   1.197 -0.1318  0.1546 -0.7935
15198TIP3   OH267084   4.159   2.595  16.765 -0.0921  0.3996  0.4764
15198TIP3    H167085   4.158   2.690  16.771  1.5447  0.5246 -0.8257
15198TIP3    H267086   4.248   2.570  16.791 -0.0542 -0.6506 -0.5973
15199TIP3   OH267087   0.244   6.721   1.030  0.1355 -0.5564  0.4755
15199TIP3    H167088   0.264   6.627   1.038  0.3188 -0.4297  1.5547
15199TIP3    H267089   0.232   6.750   1.120  0.9268  0.6447  0.1977
15200TIP3   OH267090   5.349   3.488   4.900 -0.5803  0.2247 -0.0532
15200TIP3    H167091   5.330   3.554   4.966  1.6611 -0.6209  1.5113
15200TIP3    H267092   5.271   3.432   4.898 -1.7066  1.7518 -0.0285
15201TIP3   OH267093   1.842   6.163  11.589 -0.5872 -0.4418 -0.3435
15201TIP3    H167094   1.901   6.209  11.530 -0.1981  1.1959  1.2946
15201TIP3    H267095   1.898   6.104  11.639 -0.5362  0.1387  0.2802
15202TIP3   OH267096   6.195   5.378  11.655 -0.0665 -0.3497 -0.1442
15202TIP3    H167097   6.283   5.346  11.639  0.5987  0.2682  2.0339
15202TIP3    H267098   6.174   5.432  11.579  0.7551 -1.8804 -1.4689
15203TIP3   OH267099   1.867   4.271  14.816  0.1065 -0.0103 -0.1773
15203TIP3    H167100   1.928   4.229  14.877 -0.3758 -0.8448 -0.2660
15203TIP3    H267101   1.793   4.297  14.871 -0.0346 -0.1699 -0.2904
15204TIP3   OH267102   4.463   6.036   4.063  0.6354  0.4920 -0.0834
15204TIP3    H167103   4.553   6.003   4.069  1.7106  3.3855  0.6775
15204TIP3    H267104   4.459   6.105   4.129 -2.2182  0.3077 -0.0203
15205TIP3   OH267105   6.083   1.167   5.900  0.0684  0.3022  0.3972
15205TIP3    H167106   6.091   1.262   5.896 -0.8038  0.4594  2.2292
15205TIP3    H267107   6.166   1.137   5.938 -0.2464  0.4313  1.1741
15206TIP3   OH267108   0.594   3.804  12.341  0.4407  0.5669  0.0666
15206TIP3    H167109   0.517   3.767  12.297 -0.2773  0.6008  1.2874
15206TIP3    H267110   0.668   3.766  12.295 -0.2816 -2.1423  1.0853
15207TIP3   OH267111   1.756   3.334   0.833 -0.0732  0.3000  0.1423
15207TIP3    H167112   1.730   3.330   0.741  2.0463 -1.0322 -0.4306
15207TIP3    H267113   1.767   3.428   0.850 -0.5862  0.5720 -0.9230
15208TIP3   OH267114   2.521   5.465  14.562 -0.0574  1.1571  0.6626
15208TIP3    H167115   2.556   5.477  14.650 -0.5150  2.1619  0.7148
15208TIP3    H267116   2.471   5.383  14.567 -1.8664  2.2984  1.9374
15209TIP3   OH267117   1.346   1.004   0.171 -0.1311  0.7448  0.1102
15209TIP3    H167118   1.298   1.018   0.089 -0.5220  1.4976  0.4679
15209TIP3    H267119   1.367   0.911   0.170 -1.2601  0.4802 -0.2446
15210TIP3   OH267120   6.338   5.203  15.428  0.2694  0.1712  0.1002
15210TIP3    H167121   6.292   5.150  15.363  0.2687  0.2463  0.0402
15210TIP3    H267122   6.419   5.155  15.445  1.5017  1.4635 -1.8882
15211TIP3   OH267123   4.062   3.168   5.509 -1.0543 -0.7334  0.1360
15211TIP3    H167124   3.988   3.198   5.562 -1.6314 -0.6643 -0.6976
15211TIP3    H267125   4.138   3.215   5.545 -1.6111  0.1239  0.2031
15212TIP3   OH267126   0.401   0.704   2.995 -0.1270 -0.1841  0.3744
15212TIP3    H167127   0.327   0.745   2.951 -0.2921 -1.3999 -0.5014
15212TIP3    H267128   0.473   0.767   2.986  0.0804 -0.7549 -2.3702
15213TIP3   OH267129   5.193   3.908   3.369 -0.1357 -0.0568 -0.0680
15213TIP3    H167130   5.255   3.965   3.324 -0.5254 -0.7279 -1.4895
15213TIP3    H267131   5.243   3.870   3.441  0.9534 -0.2039 -0.8890
15214TIP3   OH267132   6.033   0.155  15.464  0.3041 -0.2734 -0.1572
15214TIP3    H167133   6.028   0.242  15.503 -0.9715 -0.6920  0.6613
15214TIP3    H267134   6.087   0.166  15.386  0.0210  1.2827 -0.1432
15215TIP3   OH267135   5.270   5.878   1.002 -0.8663 -0.0088 -0.6190
15215TIP3    H167136   5.299   5.934   0.930  0.7675 -1.1048 -0.8437
15215TIP3    H267137   5.306   5.792   0.981 -0.5452 -0.3809  1.3997
15216TIP3   OH267138   3.439   4.800   6.174  0.2122 -0.3389 -0.5550
15216TIP3    H167139   3.447   4.865   6.244  1.5902 -0.0079 -1.0097
15216TIP3    H267140   3.467   4.718   6.214 -0.1971 -0.3917 -0.3720
15217TIP3   OH267141   2.538   3.898   4.749 -0.0297 -0.3329  0.2989
15217TIP3    H167142   2.540   3.812   4.790  0.9675 -0.0814  0.8164
15217TIP3    H267143   2.606   3.893   4.681 -0.7148 -0.3025 -0.3863
15218TIP3   OH267144   4.795   0.012  11.647  0.2991  0.0316  0.4365
15218TIP3    H167145   4.885  -0.008  11.676  0.0450 -0.2003  1.0673
15218TIP3    H267146   4.749  -0.072  11.654 -0.2697  0.4062  1.2447
15219TIP3   OH267147   0.301   0.979   5.572 -0.3030  0.4348  0.1066
15219TIP3    H167148   0.334   0.975   5.483  0.6635  0.9789  0.4372
15219TIP3    H267149   0.243   0.903   5.579 -0.0491  0.1417 -0.8437
15220TIP3   OH267150   4.419   4.027  13.921 -0.2705 -0.5396  0.6405
15220TIP3    H167151   4.453   3.943  13.890  1.4033  0.2261  0.3179
15220TIP3    H267152   4.386   4.070  13.842 -3.4818 -1.9066  1.1703
15221TIP3   OH267153   3.306   2.758   4.788 -0.7113 -0.2061  0.6005
15221TIP3    H167154   3.279   2.674   4.750 -0.0865  0.2904 -0.9671
15221TIP3    H267155   3.241   2.821   4.757 -0.8323  0.0123  1.2803
15222TIP3   OH267156   2.810   4.756   0.021 -0.8169 -0.3078  0.8125
15222TIP3    H167157   2.722   4.773   0.055 -0.7834  0.4943  0.5024
15222TIP3    H267158   2.865   4.822   0.063 -0.2693 -1.1089  1.3747
15223TIP3   OH267159   6.702   5.684  16.615 -0.3040 -0.0536  0.1046
15223TIP3    H167160   6.681   5.608  16.560  0.8232  0.8735 -1.6183
15223TIP3    H267161   6.783   5.659  16.659  0.5216  0.4642 -1.0958
15224TIP3   OH267162   3.396   4.124   0.342 -0.4237  0.5101  0.1218
15224TIP3    H167163   3.316   4.086   0.307 -0.4626  1.4661 -0.8657
15224TIP3    H267164   3.446   4.149   0.264  1.2012 -0.8201  0.7039
15225TIP3   OH267165   0.083   4.875   1.254  0.1433  0.2142  0.5111
15225TIP3    H167166  -0.008   4.903   1.266 -0.3681 -0.9223 -0.6323
15225TIP3    H267167   0.081   4.780   1.265  1.2576  0.2118  0.7719
15226TIP3   OH267168   5.770   4.355   2.246  0.8400 -0.0728 -0.2869
15226TIP3    H167169   5.692   4.397   2.280 -0.6344 -0.8172 -2.6270
15226TIP3    H267170   5.835   4.425   2.240 -0.7911  1.3447 -1.7425
15227TIP3   OH267171   3.626   4.050  12.594  0.5568 -0.0898  0.0670
15227TIP3    H167172   3.622   4.023  12.686  1.7885 -1.0568 -0.1434
15227TIP3    H267173   3.575   3.984  12.547 -0.0922  0.4178  0.0610
15228TIP3   OH267174   4.449   5.813   2.606 -0.1181 -0.0127 -0.0427
15228TIP3    H167175   4.468   5.804   2.513  1.7109  0.7040  0.2388
15228TIP3    H267176   4.513   5.877   2.637 -1.8361  1.0540  1.3548
15229TIP3   OH267177   5.745   0.906   6.223  0.1824 -0.5432 -0.2758
15229TIP3    H167178   5.822   0.850   6.233  1.8979  1.6532 -0.7047
15229TIP3    H267179   5.757   0.948   6.138 -2.1375 -1.0870 -0.9051
15230TIP3   OH267180   2.607   6.412   0.041  0.2909 -0.3319 -0.4003
15230TIP3    H167181   2.562   6.453  -0.033 -0.4336 -0.3333  0.0354
15230TIP3    H267182   2.538   6.396   0.105  0.6582 -1.7306 -0.3359
15231TIP3   OH267183   5.154   0.187   2.015  0.1300 -0.4495 -0.4287
15231TIP3    H167184   5.117   0.261   2.063  0.8702 -0.0933 -0.3878
15231TIP3    H267185   5.111   0.191   1.929  0.1919  0.0626 -0.4428
15232TIP3   OH267186   6.772   3.135  12.814 -0.3137 -0.1472 -0.2953
15232TIP3    H167187   6.749   3.213  12.764  0.2457 -0.9148 -1.7939
15232TIP3    H267188   6.718   3.140  12.893 -2.0622  0.5217 -1.5008
15233TIP3   OH267189   2.311   5.600   5.482  0.0221 -0.0315  0.0172
15233TIP3    H167190   2.239   5.559   5.434  1.0844 -1.3853 -0.4574
15233TIP3    H267191   2.296   5.575   5.573 -0.1934 -0.1638 -0.0537
15234TIP3   OH267192   3.321   4.888  12.232  0.2963 -0.0975  0.4628
15234TIP3    H167193   3.383   4.816  12.228 -0.0173 -0.4081  1.0991
15234TIP3    H267194   3.261   4.864  12.303 -2.3029 -1.2011 -2.0080
15235TIP3   OH267195   6.345   3.357   0.014  0.2449  0.2156  0.4198
15235TIP3    H167196   6.273   3.315  -0.034  1.5209 -2.1939  0.5214
15235TIP3    H267197   6.354   3.443  -0.026 -1.9182  0.0833 -0.3878
15236TIP3   OH267198   2.263   3.966   0.034  0.1945 -0.2234 -0.0361
15236TIP3    H167199   2.320   4.028  -0.011 -0.0582 -1.5654 -2.3022
15236TIP3    H267200   2.319   3.924   0.099  1.0388  0.4737 -0.3126
15237TIP3   OH267201   1.424   0.260   2.150  0.6290 -0.4657  0.6266
15237TIP3    H167202   1.509   0.224   2.125  2.1776  1.5468  2.7848
15237TIP3    H267203   1.439   0.355   2.158 -2.2128  0.1319 -0.5256
15238TIP3   OH267204   1.097   3.951  15.307 -0.0248 -0.4492 -0.7591
15238TIP3    H167205   1.071   4.035  15.345  0.0017 -0.8569  0.1615
15238TIP3    H267206   1.191   3.960  15.292  0.0150 -0.3853 -0.4737
15239TIP3   OH267207   4.372   4.426  12.636  0.2446  0.3043  0.5575
15239TIP3    H167208   4.443   4.362  12.647  1.0905  1.1647  0.2034
15239TIP3    H267209   4.360   4.432  12.541  2.0091  2.6161  0.4249
15240TIP3   OH267210   3.386   0.766  11.280 -0.6883 -0.2466  0.4912
15240TIP3    H167211   3.380   0.673  11.257 -1.0649  0.4285 -2.3235
15240TIP3    H267212   3.477   0.779  11.306 -0.5969 -1.3502  0.7486
15241TIP3   OH267213   1.175   1.574   3.833  0.0944  0.1202 -0.0170
15241TIP3    H167214   1.138   1.648   3.881  1.1576  0.3211  0.4898
15241TIP3    H267215   1.246   1.542   3.888  0.0878 -0.8501 -0.5612
15242TIP3   OH267216   0.637   5.645   4.928  0.5937  0.2037  0.0687
15242TIP3    H167217   0.648   5.737   4.954 -1.9738  0.2202  1.2486
15242TIP3    H267218   0.598   5.649   4.841  2.9862  0.1886 -1.0298
15243TIP3   OH267219   5.334   6.357  10.885 -0.2870  0.3919 -0.3689
15243TIP3    H167220   5.288   6.440  10.870 -1.3862 -0.1574 -0.0585
15243TIP3    H267221   5.302   6.299  10.815  1.0951  0.4655 -1.0813
15244TIP3   OH267222   0.383   5.473  13.143  0.1882 -0.4049  0.5789
15244TIP3    H167223   0.360   5.469  13.050  3.8901 -0.7048 -0.4291
15244TIP3    H267224   0.350   5.391  13.180 -0.2584 -0.8374 -0.7542
15245TIP3   OH267225   6.794   1.462   4.962 -0.0966 -0.3790  0.0249
15245TIP3    H167226   6.769   1.371   4.976 -1.8415  0.0498 -0.1324
15245TIP3    H267227   6.711   1.510   4.963  0.8602  1.3093  0.8356
15246TIP3   OH267228   5.271   6.541   4.474  0.1026  0.4098  0.2093
15246TIP3    H167229   5.202   6.542   4.408  1.0566  0.0042 -0.8169
15246TIP3    H267230   5.275   6.451   4.504 -1.6934  0.9797  2.3237
15247TIP3   OH267231   5.189   0.018  11.562 -0.1378 -0.4626  0.0104
15247TIP3    H167232   5.129  -0.055  11.575  1.2502 -1.3862  1.3453
15247TIP3    H267233   5.263  -0.019  11.513 -0.2648  0.4828 -0.9372
15248TIP3   OH267234   2.591   4.527  13.396 -0.1172  0.0373  0.1559
15248TIP3    H167235   2.632   4.481  13.322  1.1838  0.6804  0.4735
15248TIP3    H267236   2.502   4.544  13.366 -0.0012 -0.8957 -0.7575
15249TIP3   OH267237   1.348   3.952  13.023  0.6070  0.2726  0.2925
15249TIP3    H167238   1.261   3.911  13.023  1.6230 -1.9478  0.3606
15249TIP3    H267239   1.361   3.980  12.932 -0.1093  0.4899  0.2486
15250TIP3   OH267240   1.166   4.050  14.107  0.2578 -0.5333 -0.1125
15250TIP3    H167241   1.218   4.054  14.188  1.3648 -3.5943 -0.5932
15250TIP3    H267242   1.105   3.978  14.122 -1.4130  0.6773 -0.9723
15251TIP3   OH267243   1.061   1.109  14.299 -0.4304  0.5517  0.1069
15251TIP3    H167244   0.971   1.090  14.274  0.0374  0.4386 -1.5519
15251TIP3    H267245   1.074   1.062  14.381 -0.5710 -3.0082 -1.8433
15252TIP3   OH267246   4.366   2.067  11.561  0.0005  0.5955  0.5303
15252TIP3    H167247   4.409   2.039  11.641 -1.6466  1.9161  1.9036
15252TIP3    H267248   4.438   2.080  11.498  1.2887 -0.4961  1.7568
15253TIP3   OH267249   0.476   3.481  15.156  0.1670  0.9219  0.0438
15253TIP3    H167250   0.559   3.523  15.177  0.5483 -0.3963  1.3193
15253TIP3    H267251   0.499   3.411  15.095 -0.1360  1.1060 -0.2858
15254TIP3   OH267252   2.685   1.218   2.123 -0.1800 -0.0038  0.0712
15254TIP3    H167253   2.748   1.161   2.079 -0.8796 -0.5986 -0.1781
15254TIP3    H267254   2.632   1.254   2.052 -0.0688  0.5684  0.2729
15255TIP3   OH267255   3.889   4.791   5.547 -0.0583 -0.1607  0.1404
15255TIP3    H167256   3.898   4.854   5.477 -0.8674 -0.9343 -0.6738
15255TIP3    H267257   3.978   4.760   5.563  0.0195 -0.6492 -1.1786
15256TIP3   OH267258   4.183   2.243  11.853  0.3202  0.2219  0.2641
15256TIP3    H167259   4.204   2.286  11.936 -1.6100 -0.1094  0.9484
15256TIP3    H267260   4.150   2.314  11.798 -0.5417  0.0677  0.5663
15257TIP3   OH267261   5.614   3.917   5.351 -0.4345  0.3582  0.3998
15257TIP3    H167262   5.617   3.870   5.267 -1.3580  0.3262  0.3754
15257TIP3    H267263   5.594   4.007   5.327 -1.7955  0.1308  0.6501
15258TIP3   OH267264   5.499   2.123   0.285  0.2597  0.3457 -0.2389
15258TIP3    H167265   5.452   2.040   0.275  0.0282  0.1083  2.4974
15258TIP3    H267266   5.436   2.189   0.256  0.4420 -0.3980 -2.4309
15259TIP3   OH267267   0.821   1.576   2.353 -0.7824  0.9008  0.3049
15259TIP3    H167268   0.847   1.609   2.439  1.5200 -1.0945  0.4290
15259TIP3    H267269   0.742   1.526   2.370 -0.5437  0.8176  1.2170
15260TIP3   OH267270   6.631   2.704  13.600  0.2932  0.0106 -0.3606
15260TIP3    H167271   6.595   2.732  13.684  1.1875  0.0790  0.0096
15260TIP3    H267272   6.556   2.702  13.540 -0.4217 -0.4818  0.5482
15261TIP3   OH267273   2.959   3.772  10.587  0.7381  1.0031  0.4619
15261TIP3    H167274   2.940   3.861  10.557  3.4552  1.3002 -0.4965
15261TIP3    H267275   2.873   3.731  10.593 -0.3753  2.7954 -1.9273
15262TIP3   OH267276   0.766   5.705   0.082  0.2820  0.5471 -0.2272
15262TIP3    H167277   0.705   5.630   0.080  1.0633 -0.2515  3.0891
15262TIP3    H267278   0.709   5.782   0.088 -0.4716 -0.0201  0.0228
15263TIP3   OH267279   3.669   4.322   6.304  0.1910 -0.1927  0.0200
15263TIP3    H167280   3.672   4.226   6.304 -1.3575 -0.2479  0.8211
15263TIP3    H267281   3.751   4.348   6.347  0.1646 -1.1856  0.6911
15264TIP3   OH267282   0.656   1.451   0.971  0.4145 -0.3894  0.1243
15264TIP3    H167283   0.665   1.459   1.066  0.3200 -0.6002  0.1500
15264TIP3    H267284   0.668   1.541   0.939 -0.3607 -0.1804  0.4030
15265TIP3   OH267285   4.068   0.596  10.925  0.3853 -0.0178 -0.2727
15265TIP3    H167286   3.982   0.561  10.902  1.1477 -2.5004  0.4956
15265TIP3    H267287   4.059   0.691  10.917 -2.0171 -0.3301 -1.5485
15266TIP3   OH267288   5.955   0.427   0.747 -0.2724  0.2703  0.1263
15266TIP3    H167289   5.972   0.520   0.761 -2.7297  0.6833  0.5690
15266TIP3    H267290   5.865   0.423   0.715 -0.3097 -1.9884  0.3899
15267TIP3   OH267291   5.005   1.931   4.836 -0.0316  0.4451  0.9788
15267TIP3    H167292   4.910   1.923   4.830  0.0650 -0.8294  1.1660
15267TIP3    H267293   5.023   1.945   4.929 -0.0179  0.4365  0.9774
15268TIP3   OH267294   5.221   4.880   5.282 -0.4092 -0.2210  0.1501
15268TIP3    H167295   5.303   4.892   5.329 -1.3884  0.5352  1.7033
15268TIP3    H267296   5.224   4.944   5.211  0.9723 -1.2078 -0.6873
15269TIP3   OH267297   0.140   6.206   4.681 -0.2577  0.6761  0.2911
15269TIP3    H167298   0.170   6.293   4.655 -0.5773  0.7964  0.3194
15269TIP3    H267299   0.052   6.221   4.717 -0.0644  0.4282  0.8641
15270TIP3   OH267300   4.344   1.036  13.648  0.0342  0.3422 -0.2940
15270TIP3    H167301   4.351   0.995  13.735 -0.7594 -0.7958 -0.7427
15270TIP3    H267302   4.332   1.129  13.666 -2.0108 -0.1141  0.8922
15271TIP3   OH267303   1.335   1.542  14.593 -0.2827  0.0675 -0.1886
15271TIP3    H167304   1.273   1.536  14.520  0.8441  0.7999 -1.2458
15271TIP3    H267305   1.340   1.635  14.613 -0.0162 -0.0550  0.3293
15272TIP3   OH267306   1.341   6.553   4.937 -0.2115 -0.0811 -0.2779
15272TIP3    H167307   1.274   6.614   4.968  0.5301 -0.2552  1.6807
15272TIP3    H267308   1.317   6.469   4.977 -0.6685 -0.9108 -2.1810
15273TIP3   OH267309   4.565   1.556  11.133 -0.5753 -0.4385  0.4847
15273TIP3    H167310   4.657   1.531  11.136 -0.1531  0.9676 -0.3185
15273TIP3    H267311   4.566   1.652  11.129 -2.0065 -0.4893 -2.0099
15274TIP3   OH267312   5.560   6.570   0.564 -0.5182 -0.4099  0.0458
15274TIP3    H167313   5.488   6.508   0.550 -1.4136  0.1159  2.1252
15274TIP3    H267314   5.619   6.526   0.624 -0.4825  0.2374  0.4876
15275TIP3   OH267315   6.238   3.026   0.182 -0.1189 -0.1456  0.1021
15275TIP3    H167316   6.330   3.016   0.207  0.1036 -0.0779 -0.6687
15275TIP3    H267317   6.214   2.941   0.146 -0.0168  0.1911 -0.7747
15276TIP3   OH267318   2.399   5.820   5.825 -0.3124 -0.2923 -0.2090
15276TIP3    H167319   2.423   5.883   5.757 -1.0169 -0.2885 -0.4509
15276TIP3    H267320   2.372   5.874   5.899  0.3702 -0.2984  0.0562
15277TIP3   OH267321   1.155   0.705  16.399  0.1100 -0.0657 -0.2607
15277TIP3    H167322   1.217   0.632  16.395  0.8182  0.5490 -0.6012
15277TIP3    H267323   1.100   0.685  16.475 -0.1781 -1.3245 -0.7935
15278TIP3   OH267324   0.176   5.059  13.556 -0.1315 -0.0355 -0.9277
15278TIP3    H167325   0.153   5.082  13.466 -0.5368 -1.2948 -1.1603
15278TIP3    H267326   0.144   5.132  13.609 -1.9057 -0.3045 -1.5826
15279TIP3   OH267327   6.310   3.309  13.993 -0.0144  0.2643 -0.2585
15279TIP3    H167328   6.393   3.307  14.041 -0.1986  2.1683  0.1925
15279TIP3    H267329   6.243   3.320  14.060 -0.8723 -3.3968 -0.4281
15280TIP3   OH267330   0.500   2.695  13.778 -0.7581  0.3854 -0.0555
15280TIP3    H167331   0.422   2.651  13.745 -0.8742  1.2520 -0.9840
15280TIP3    H267332   0.573   2.638  13.754 -0.8719  0.8770 -1.5676
15281TIP3   OH267333   4.024   4.217  10.776  0.3099 -0.0640 -0.2324
15281TIP3    H167334   3.953   4.274  10.804  1.5854  1.1795  0.4670
15281TIP3    H267335   3.979   4.141  10.737 -1.4211 -0.2882  2.1232
15282TIP3   OH267336   2.288   3.208   4.637 -0.5530  0.0234 -0.4886
15282TIP3    H167337   2.279   3.184   4.545 -2.5137  0.7975 -0.5191
15282TIP3    H267338   2.382   3.208   4.652 -0.1984 -0.0680 -2.5063
15283TIP3   OH267339   4.165   2.188  10.565 -0.0666 -0.3757 -0.0483
15283TIP3    H167340   4.126   2.115  10.518  0.2764  0.4108 -1.5661
15283TIP3    H267341   4.090   2.232  10.606 -0.4469 -0.5961 -0.4980
15284TIP3   OH267342   0.509   4.980   2.583  0.0818  0.2903  0.3612
15284TIP3    H167343   0.574   4.910   2.593 -0.3452 -0.2706 -0.7488
15284TIP3    H267344   0.499   4.990   2.489  0.3689  2.0816  0.5117
15285TIP3   OH267345   0.447   4.632  13.854 -0.1378  0.1502  0.1732
15285TIP3    H167346   0.533   4.640  13.814 -0.9294  1.3478 -1.3459
15285TIP3    H267347   0.410   4.720  13.849 -2.5652 -0.9128 -1.7825
15286TIP3   OH267348   4.649   0.978   1.605 -0.3533  0.0671 -0.1900
15286TIP3    H167349   4.630   0.886   1.626 -0.3292  0.1636  0.2597
15286TIP3    H267350   4.595   1.028   1.665 -0.8834  0.3553 -0.8972
15287TIP3   OH267351   3.818   2.071  15.707 -0.7324  0.0107  0.8071
15287TIP3    H167352   3.747   2.049  15.768 -0.0173  0.5676  1.8471
15287TIP3    H267353   3.893   2.022  15.740 -0.5695 -0.3991 -0.1709
15288TIP3   OH267354   0.380   6.733  13.790 -0.1785 -0.4982 -0.4969
15288TIP3    H167355   0.420   6.687  13.717 -1.1715 -1.0997 -0.6736
15288TIP3    H267356   0.288   6.707  13.787 -0.3718  0.0379  0.5285
15289TIP3   OH267357   5.994   3.055  12.047 -0.6158  0.3692 -0.1571
15289TIP3    H167358   5.968   3.147  12.044  0.3058  0.6312 -0.1009
15289TIP3    H267359   6.085   3.054  12.017  0.2824 -0.1606  2.4703
15290TIP3   OH267360   4.280   3.509   3.700  0.1979 -0.1878 -0.0788
15290TIP3    H167361   4.275   3.415   3.684 -0.2836 -0.3453  0.9294
15290TIP3    H267362   4.262   3.519   3.794  0.1308  0.9152 -0.1932
15291TIP3   OH267363   6.278   1.524  11.937 -0.1723  0.0014 -0.8234
15291TIP3    H167364   6.283   1.550  11.845  0.7402 -0.0458 -0.7906
15291TIP3    H267365   6.192   1.482  11.945  0.1834 -0.9742 -1.9079
15292TIP3   OH267366   0.808   5.876  13.733 -0.8949  0.5265  0.1356
15292TIP3    H167367   0.878   5.930  13.769  0.4624 -0.5079 -0.9082
15292TIP3    H267368   0.769   5.834  13.809 -1.1996  2.0587  0.8423
15293TIP3   OH267369   0.209   0.253   4.959  0.2790  0.0171  0.3089
15293TIP3    H167370   0.253   0.211   5.032 -1.1224  0.5462  1.4786
15293TIP3    H267371   0.218   0.347   4.975  1.0140  0.1581 -0.8464
15294TIP3   OH267372   0.060   0.980  16.894 -0.1427  0.1823 -0.6684
15294TIP3    H167373   0.080   1.072  16.905 -0.2042  0.0717  0.3738
15294TIP3    H267374  -0.034   0.977  16.876 -0.2971  0.2588  0.1283
15295TIP3   OH267375   5.706   0.177   3.294 -0.6318  0.0290 -0.5362
15295TIP3    H167376   5.793   0.185   3.255 -0.1315  0.1202  0.5614
15295TIP3    H267377   5.689   0.082   3.296  0.6902 -0.1975  1.8527
15296TIP3   OH267378   0.977   4.694   2.846  0.3561 -0.4424  0.1121
15296TIP3    H167379   0.996   4.622   2.905 -0.0156 -0.6182  0.0181
15296TIP3    H267380   0.907   4.743   2.888  0.4147 -0.2949  0.0423
15297TIP3   OH267381   4.021   1.742  11.583 -0.2905  0.2867  0.4425
15297TIP3    H167382   4.038   1.817  11.639  1.7699 -0.0396  0.2974
15297TIP3    H267383   3.944   1.767  11.531 -0.0122  2.0091  0.8431
15298TIP3   OH267384   5.221   4.472  15.356 -0.2706 -0.0764 -0.0352
15298TIP3    H167385   5.162   4.522  15.412 -2.0864 -0.7760 -1.2736
15298TIP3    H267386   5.297   4.454  15.410  0.0171  3.2107  0.7556
15299TIP3   OH267387   3.203   3.745   1.697 -0.0616 -0.6006 -0.1625
15299TIP3    H167388   3.255   3.665   1.687  1.7032  0.4116  0.6869
15299TIP3    H267389   3.140   3.724   1.766 -0.9430 -1.9059 -1.3420
15300TIP3   OH267390   6.393   5.707   3.283 -0.7111 -0.5366  0.0354
15300TIP3    H167391   6.375   5.630   3.336  1.0852 -1.4616 -0.6596
15300TIP3    H267392   6.406   5.673   3.194  0.5265  0.5041 -0.1952
15301TIP3   OH267393   0.164   2.564   4.562  0.1341 -0.2721  0.2616
15301TIP3    H167394   0.119   2.481   4.549  0.2277 -0.6438  2.2074
15301TIP3    H267395   0.099   2.631   4.538  0.4136 -0.8793 -2.3755
15302TIP3   OH267396   0.050   2.810   1.789  0.2371  0.1970  0.6441
15302TIP3    H167397   0.012   2.788   1.705 -0.1684  1.7760  0.3981
15302TIP3    H267398   0.127   2.753   1.796  0.9339  0.8526 -1.3160
15303TIP3   OH267399   3.469   3.449  14.358  0.2448  0.2229  0.2788
15303TIP3    H167400   3.417   3.385  14.407 -0.3234 -0.1195 -0.7552
15303TIP3    H267401   3.478   3.523  14.418 -2.4780  0.7839  0.0955
15304TIP3   OH267402   4.460   4.274   3.054  0.3561 -0.5805 -0.2572
15304TIP3    H167403   4.400   4.267   2.980  1.9439 -1.9584 -1.4316
15304TIP3    H267404   4.495   4.186   3.066  1.1202 -0.0889  1.2768
15305TIP3   OH267405   2.455   3.517   4.605  0.2428 -0.0009  0.0464
15305TIP3    H167406   2.548   3.500   4.588  0.0988 -0.4948 -0.2585
15305TIP3    H267407   2.409   3.465   4.539 -0.2256  0.9854 -0.4217
15306TIP3   OH267408   2.204   1.690   3.041 -0.3538 -0.2291 -0.0341
15306TIP3    H167409   2.230   1.637   2.965  0.8863  2.1965 -1.3489
15306TIP3    H267410   2.225   1.635   3.117 -0.7646 -2.3212 -1.3963
15307TIP3   OH267411   4.520   6.141  11.563  0.4859 -0.2012 -0.6661
15307TIP3    H167412   4.610   6.116  11.581  0.2468  0.6233  1.9244
15307TIP3    H267413   4.520   6.237  11.562 -0.3834 -0.1878 -0.5120
15308TIP3   OH267414   6.079   3.275   3.589  0.6275 -0.7228 -0.1692
15308TIP3    H167415   6.124   3.295   3.507 -0.1204 -2.5327 -1.0407
15308TIP3    H267416   6.037   3.190   3.574 -1.0628 -0.2097  1.4604
15309TIP3   OH267417   0.133   4.172   2.765  0.4843  0.9533  0.2941
15309TIP3    H167418   0.220   4.205   2.787 -0.0917  0.7415  3.1482
15309TIP3    H267419   0.074   4.220   2.823 -1.0769 -0.3337 -0.1860
15310TIP3   OH267420   1.475   3.837  10.406 -0.1623  0.0329 -0.0219
15310TIP3    H167421   1.467   3.892  10.484  1.7057  1.4265 -0.7679
15310TIP3    H267422   1.443   3.893  10.335  2.4254  0.4767 -0.8993
15311TIP3   OH267423   2.606   5.874  14.491  0.2479 -0.5662  0.1420
15311TIP3    H167424   2.520   5.879  14.533 -0.3573  1.5285 -1.2664
15311TIP3    H267425   2.599   5.800  14.432 -1.2128  0.6239 -1.2346
15312TIP3   OH267426   1.026   6.504  12.453  0.4938 -0.2398 -0.7821
15312TIP3    H167427   1.015   6.484  12.546  1.4531  1.9637 -0.1760
15312TIP3    H267428   0.937   6.504  12.418  0.0507 -0.1923  0.3205
15313TIP3   OH267429   4.065   4.697  13.211  0.5132 -0.1602 -0.1287
15313TIP3    H167430   4.136   4.734  13.158  0.4658  0.0514 -0.0454
15313TIP3    H267431   4.035   4.621  13.161  0.8505 -0.2985 -0.1272
15314TIP3   OH267432   2.379   4.649   1.399  0.3516 -0.5563 -0.1434
15314TIP3    H167433   2.349   4.560   1.414  1.1393 -0.8803 -0.4836
15314TIP3    H267434   2.466   4.640   1.361  0.2435  0.3438 -0.6374
15315TIP3   OH267435   1.133   5.218  15.169 -0.1774  0.4102 -0.7130
15315TIP3    H167436   1.066   5.265  15.218 -0.8368 -1.0572 -0.1600
15315TIP3    H267437   1.203   5.201  15.233 -1.6936 -2.8269  0.2031
15316TIP3   OH267438   0.725   6.679   1.124  0.0206  0.4143  0.4537
15316TIP3    H167439   0.702   6.762   1.083  0.9546 -0.8211 -2.7786
15316TIP3    H267440   0.810   6.695   1.165 -0.0704  1.2052  0.3357
15317TIP3   OH267441   5.308   2.359  12.159 -0.0371  0.8704  0.0859
15317TIP3    H167442   5.225   2.383  12.201  0.6065  0.8210  1.3978
15317TIP3    H267443   5.371   2.422  12.194  1.2328 -1.3334  1.8765
15318TIP3   OH267444   2.339   5.793  12.647 -0.3799  0.2770 -0.2630
15318TIP3    H167445   2.392   5.855  12.598 -0.0225  0.3281  0.1748
15318TIP3    H267446   2.368   5.804  12.738 -0.3518 -0.4844 -0.1707
15319TIP3   OH267447   0.186   1.130   2.780  0.2904  0.2808  0.0659
15319TIP3    H167448   0.114   1.176   2.825  0.0500 -0.0187 -0.0138
15319TIP3    H267449   0.177   1.157   2.689 -1.0213 -1.4083 -0.3311
15320TIP3   OH267450   1.091   1.608  12.091 -0.4430  0.2423  0.0652
15320TIP3    H167451   1.038   1.529  12.086 -0.5308  0.3208 -0.2803
15320TIP3    H267452   1.131   1.616  12.004 -0.0359  0.3028  0.2545
15321TIP3   OH267453   3.676   2.556   2.604 -0.3962  0.3139 -0.5262
15321TIP3    H167454   3.625   2.617   2.657  0.2072  0.2455  0.1400
15321TIP3    H267455   3.611   2.502   2.559 -0.9241 -0.6727  1.3569
15322TIP3   OH267456   2.589   2.184   6.173  0.2209 -0.0952 -0.1308
15322TIP3    H167457   2.640   2.260   6.143 -1.3994  1.2356  0.4490
15322TIP3    H267458   2.574   2.133   6.094  1.5466  0.0333 -0.4844
15323TIP3   OH267459   6.338   5.990  13.678 -0.2201 -0.6401 -0.2092
15323TIP3    H167460   6.291   5.909  13.660 -0.4143 -0.6679  0.4254
15323TIP3    H267461   6.278   6.041  13.733  0.5859 -0.7754  0.8060
15324TIP3   OH267462   2.547   2.993   2.440  0.1454  0.3647 -0.1213
15324TIP3    H167463   2.465   2.994   2.489  2.0106  0.7291  3.1724
15324TIP3    H267464   2.563   3.085   2.418  1.0367  0.6546  1.6904
15325TIP3   OH267465   3.141   4.752   3.808  0.1067  0.1556  0.1513
15325TIP3    H167466   3.201   4.679   3.792  0.2553  0.4095 -0.4475
15325TIP3    H267467   3.057   4.710   3.827 -0.6416 -0.1354 -3.4748
15326TIP3   OH267468   1.899   0.349   3.819  0.0770  0.1902  0.8704
15326TIP3    H167469   1.823   0.371   3.872 -1.0060 -0.2409 -0.4902
15326TIP3    H267470   1.879   0.384   3.732  2.1162  1.4855  0.8647
15327TIP3   OH267471   6.506   0.913   6.929 -0.2032 -0.1737  0.0012
15327TIP3    H167472   6.414   0.893   6.911 -0.3498  1.0529 -0.6964
15327TIP3    H267473   6.521   0.998   6.886  0.6321  0.7418  2.0347
15328TIP3   OH267474   5.465   2.178  13.382  0.1621  0.0908 -0.2637
15328TIP3    H167475   5.464   2.260  13.432  0.4349  0.5768 -1.0460
15328TIP3    H267476   5.428   2.113  13.442 -2.7975  1.3524 -0.6698
15329TIP3   OH267477   1.334   0.931  15.849  0.3866  0.3885 -0.3499
15329TIP3    H167478   1.422   0.945  15.814  0.8943 -1.5396  0.1025
15329TIP3    H267479   1.302   0.853  15.803 -0.7503  0.5782  0.1031
15330TIP3   OH267480   4.630   6.576  12.586 -0.1148  0.6851 -0.0052
15330TIP3    H167481   4.564   6.642  12.606 -0.9220  0.0590 -0.5556
15330TIP3    H267482   4.656   6.596  12.496  1.7088  1.9872  0.7932
15331TIP3   OH267483   2.961   1.039  12.324  0.1455  0.4181 -0.4902
15331TIP3    H167484   2.915   1.119  12.348  1.3623  1.3666 -1.2890
15331TIP3    H267485   2.945   1.028  12.231  0.2196 -0.1107 -0.4423
15332TIP3   OH267486   4.481   2.300   6.051 -0.4510 -0.4734 -0.1082
15332TIP3    H167487   4.395   2.260   6.038 -0.5507 -0.0069 -0.9096
15332TIP3    H267488   4.485   2.317   6.145 -2.2042  1.6184 -0.3591
15333TIP3   OH267489   2.165   4.389   4.218 -0.6165  0.8584 -0.0090
15333TIP3    H167490   2.117   4.472   4.224 -0.0788  1.1179  0.9127
15333TIP3    H267491   2.255   4.415   4.198  0.1495  0.7134  2.9426
15334TIP3   OH267492   1.518   4.195  16.972 -0.6080  0.0596  0.0442
15334TIP3    H167493   1.608   4.227  16.963 -0.5720 -0.0592 -0.0134
15334TIP3    H267494   1.498   4.155  16.888 -1.9715  3.3008 -1.2662
15335TIP3   OH267495   5.218   3.840  11.515  0.2332 -0.0566  0.1536
15335TIP3    H167496   5.190   3.777  11.582  1.8100 -1.4206 -0.4295
15335TIP3    H267497   5.194   3.800  11.432  1.8649 -0.2440 -0.2562
15336TIP3   OH267498   2.020   0.788   2.057 -0.2824  0.6579  0.3003
15336TIP3    H167499   2.019   0.875   2.018 -0.6809  1.3382  1.8047
15336TIP3    H267500   1.985   0.800   2.145  1.8487 -0.6218  1.3736
15337TIP3   OH267501   0.783   4.241   5.373  0.3231 -0.0431  0.0643
15337TIP3    H167502   0.698   4.219   5.413  0.3750  3.3339  2.1895
15337TIP3    H267503   0.760   4.292   5.295  0.4080  0.3151  0.2767
15338TIP3   OH267504   6.246   1.653  16.842 -0.6472  0.2665 -0.0686
15338TIP3    H167505   6.270   1.660  16.750  3.3677 -0.7141  0.8296
15338TIP3    H267506   6.292   1.726  16.884 -0.2722 -0.8814  1.5463
15339TIP3   OH267507   4.343   2.411   3.616  0.1618 -0.0104  0.0333
15339TIP3    H167508   4.382   2.434   3.531  0.7521 -2.5698 -0.4207
15339TIP3    H267509   4.250   2.434   3.607  0.1998 -0.3782 -1.3528
15340TIP3   OH267510   0.252   5.587  14.606  0.1704  0.0818 -0.0277
15340TIP3    H167511   0.306   5.660  14.575 -1.3394  0.5662 -1.6581
15340TIP3    H267512   0.232   5.609  14.697  1.1141  0.8793 -0.0078
15341TIP3   OH267513   5.859   2.503   5.405  0.0804 -0.0131 -0.9371
15341TIP3    H167514   5.808   2.533   5.480 -0.4334 -1.8039 -0.5406
15341TIP3    H267515   5.935   2.561   5.403 -0.4972  0.8114  0.2447
15342TIP3   OH267516   1.259   1.030   1.767 -0.5192  0.2799 -0.5120
15342TIP3    H167517   1.182   1.010   1.821  0.4182 -0.1236  0.6966
15342TIP3    H267518   1.258   1.125   1.757 -0.1656  0.4483  1.0303
15343TIP3   OH267519   5.484   1.752  13.995 -0.3930 -0.2067 -0.1479
15343TIP3    H167520   5.563   1.779  13.948 -0.7122  0.2446 -0.4266
15343TIP3    H267521   5.507   1.667  14.032  0.9055  0.8107  1.4567
15344TIP3   OH267522   1.399   2.668  15.513 -0.0645 -0.6315 -0.3319
15344TIP3    H167523   1.370   2.746  15.466  2.4337  0.5649  0.0269
15344TIP3    H267524   1.472   2.635  15.460 -0.2785 -1.9838  0.2003
15345TIP3   OH267525   0.488   2.516  15.835 -0.1292 -0.6494  0.2834
15345TIP3    H167526   0.455   2.494  15.748  1.0456 -0.2227 -0.2824
15345TIP3    H267527   0.429   2.584  15.867  0.2069  0.1274 -0.7242
15346TIP3   OH267528   3.515   1.747  14.772  0.0152 -0.3392  0.0909
15346TIP3    H167529   3.508   1.827  14.720 -0.5407 -0.5002 -0.0838
15346TIP3    H267530   3.433   1.701  14.756 -0.0856 -0.4724  0.9676
15347TIP3   OH267531   4.170   3.434   5.887 -0.2786 -0.4009  0.2518
15347TIP3    H167532   4.093   3.398   5.931 -1.5417 -0.0087 -1.5835
15347TIP3    H267533   4.136   3.508   5.837  1.2636 -0.3488 -0.7367
15348TIP3   OH267534   1.312   6.514  15.028  0.1568 -0.0700  0.0911
15348TIP3    H167535   1.222   6.540  15.046  0.3609  1.2598 -0.7187
15348TIP3    H267536   1.337   6.564  14.950  1.2983 -1.1003 -0.2367
15349TIP3   OH267537   1.240   5.049  15.596 -0.5239 -0.4834  0.1937
15349TIP3    H167538   1.220   5.136  15.631 -1.0025  0.2963 -1.9565
15349TIP3    H267539   1.161   5.023  15.550 -0.4845 -2.2077  1.0770
15350TIP3   OH267540   1.833   5.972   1.027 -0.1850  0.0094  0.1948
15350TIP3    H167541   1.925   5.977   1.054  0.1980  0.0423 -1.1172
15350TIP3    H267542   1.801   5.890   1.065  0.7546 -0.6780 -0.4850
15351TIP3   OH267543   5.369   4.796  16.772 -0.5187 -0.3885  0.1131
15351TIP3    H167544   5.401   4.880  16.740  0.7525 -0.0790  2.1493
15351TIP3    H267545   5.275   4.810  16.787 -0.4954  0.3634 -0.4359
15352TIP3   OH267546   6.064   0.232   1.280 -0.1739  0.4506  0.0233
15352TIP3    H167547   6.063   0.315   1.233  0.2222  0.9767  0.9351
15352TIP3    H267548   6.139   0.239   1.340 -1.8748  0.6122  2.1983
15353TIP3   OH267549   4.003   2.709  16.304 -0.0513 -0.4195 -0.3622
15353TIP3    H167550   3.966   2.779  16.357  1.9051 -0.2672  0.8952
15353TIP3    H267551   3.944   2.635  16.316 -1.1534  0.4676 -0.2548
15354TIP3   OH267552   2.640   3.315   3.694  0.6171 -0.0359 -0.4570
15354TIP3    H167553   2.577   3.284   3.630  0.9915  1.3622 -1.5193
15354TIP3    H267554   2.661   3.404   3.666 -0.6944  1.3346  2.7198
15355TIP3   OH267555   2.213   2.915  12.107 -0.9021  0.5825  0.2620
15355TIP3    H167556   2.300   2.955  12.094 -0.8595  0.1588 -0.7641
15355TIP3    H267557   2.228   2.821  12.096 -1.6861  0.5937 -0.9802
15356TIP3   OH267558   4.468   0.400  12.120 -0.0282 -0.4389  0.2185
15356TIP3    H167559   4.377   0.383  12.143  0.4705 -2.4551  0.8438
15356TIP3    H267560   4.472   0.494  12.104 -2.1044 -0.2501  0.6759
15357TIP3   OH267561   2.450   1.775   4.828  0.1381 -0.3171  0.2481
15357TIP3    H167562   2.489   1.694   4.861 -0.8279 -1.0088 -0.2794
15357TIP3    H267563   2.374   1.746   4.777 -0.6978  0.9740  0.7361
15358TIP3   OH267564   2.896   6.558  15.151 -0.4428  0.5448 -0.6922
15358TIP3    H167565   2.902   6.474  15.196 -1.5454  0.3437 -0.9156
15358TIP3    H267566   2.802   6.578  15.150 -0.1457  1.9769 -0.2695
15359TIP3   OH267567   2.287   0.249  14.992 -0.2456 -0.3145 -0.3325
15359TIP3    H167568   2.311   0.318  14.930 -0.7344 -0.8670 -1.1572
15359TIP3    H267569   2.201   0.220  14.963 -1.6799  1.2232  2.2215
15360TIP3   OH267570   1.571   0.814   4.860 -0.3747  0.4581  0.3559
15360TIP3    H167571   1.555   0.827   4.766  1.9117  0.3971 -0.0698
15360TIP3    H267572   1.489   0.777   4.893 -1.4184  1.0329 -1.4928
15361TIP3   OH267573   0.215   5.780   5.908 -0.6589 -0.1566  0.3945
15361TIP3    H167574   0.193   5.867   5.940  3.1278  0.5124  1.3550
15361TIP3    H267575   0.235   5.730   5.988  2.2986 -0.3798 -0.4466
15362TIP3   OH267576   3.812   0.980   5.807  0.5731 -0.0207 -0.1032
15362TIP3    H167577   3.888   0.922   5.805 -0.5880 -1.5771 -0.2998
15362TIP3    H267578   3.752   0.939   5.869  0.7679  2.3545  1.7335
15363TIP3   OH267579   2.706   1.026  11.201  0.1371 -0.3901 -0.4162
15363TIP3    H167580   2.739   0.989  11.283  0.7249 -0.6188 -0.7524
15363TIP3    H267581   2.611   1.013  11.204  0.2614 -1.2473 -0.1972
15364TIP3   OH267582   5.580   2.107   4.899 -0.4860  0.3291  0.3321
15364TIP3    H167583   5.553   2.073   4.814 -2.2154  0.9809  0.5873
15364TIP3    H267584   5.660   2.059   4.920 -1.1594 -1.3195 -0.7215
15365TIP3   OH267585   6.643   2.560  11.499  0.0045 -0.1116 -0.0625
15365TIP3    H167586   6.664   2.587  11.589  2.1432  0.3862 -0.6777
15365TIP3    H267587   6.622   2.641  11.454  0.9060 -0.1161 -0.5030
15366TIP3   OH267588   5.994   4.044   5.483 -0.1989 -0.6719 -0.4492
15366TIP3    H167589   5.993   3.956   5.518 -2.3427 -0.3185  0.4519
15366TIP3    H267590   5.904   4.075   5.490  0.7421  2.0698  0.4824
15367TIP3   OH267591   0.306   3.766   4.486 -0.6219 -0.1861  0.1970
15367TIP3    H167592   0.384   3.782   4.538 -1.4240  2.6303  0.6100
15367TIP3    H267593   0.262   3.693   4.530  0.1322  0.3272  1.8353
15368TIP3   OH267594   5.334   2.425  13.832 -0.0112  0.4969 -0.4788
15368TIP3    H167595   5.309   2.418  13.924  0.7092 -0.1972 -0.3217
15368TIP3    H267596   5.262   2.384  13.783  0.7262 -1.3921 -0.0457
15369TIP3   OH267597   6.440   2.238  13.047  0.3474  0.0438 -0.7450
15369TIP3    H167598   6.430   2.293  13.124 -1.3314 -0.2378 -0.7473
15369TIP3    H267599   6.533   2.213  13.047  0.4875  0.5435  0.8351
15370TIP3   OH267600   5.077   4.628  14.907  0.1709 -0.3253  0.3530
15370TIP3    H167601   5.070   4.702  14.846 -0.6578 -1.5302 -1.0538
15370TIP3    H267602   5.165   4.635  14.943  0.4900  0.7233 -0.5938
15371TIP3   OH267603   6.197   5.636  12.271 -0.3240 -0.1667  0.4661
15371TIP3    H167604   6.135   5.651  12.342 -0.6335 -2.2470  0.6579
15371TIP3    H267605   6.217   5.724  12.238  0.0386  0.8731  3.2985
15372TIP3   OH267606   0.235   2.653   3.830  0.2318  0.0909 -0.2700
15372TIP3    H167607   0.330   2.648   3.843  0.2834 -0.5221 -0.9001
15372TIP3    H267608   0.200   2.673   3.917  0.8122 -1.2275  0.2743
15373TIP3   OH267609   4.764   4.411  12.376 -0.4341 -0.5376 -0.4057
15373TIP3    H167610   4.805   4.344  12.322 -1.3165 -1.6449  0.2673
15373TIP3    H267611   4.670   4.392  12.370 -0.5832 -0.3081  1.0369
15374TIP3   OH267612   1.347   0.162   2.418  0.4380  0.1016  1.0031
15374TIP3    H167613   1.352   0.147   2.323 -1.8329  0.2982  0.8251
15374TIP3    H267614   1.330   0.256   2.426 -1.1370 -0.2263  1.5376
15375TIP3   OH267615   5.921   1.490   6.773  0.6008 -0.1903 -0.5250
15375TIP3    H167616   5.877   1.409   6.796  0.2028 -0.2640 -1.5339
15375TIP3    H267617   5.989   1.464   6.712  1.1255  0.1068 -0.0668
15376TIP3   OH267618   6.690   5.247   4.933 -0.0365 -0.6592  0.0943
15376TIP3    H167619   6.624   5.234   5.002 -0.5409 -1.0145 -0.4468
15376TIP3    H267620   6.743   5.320   4.964 -0.5475 -0.5161  0.6446
15377TIP3   OH267621   3.055   4.655  13.635 -0.0166  0.4994  0.3496
15377TIP3    H167622   2.960   4.648  13.651 -0.2396  2.3052  0.0099
15377TIP3    H267623   3.095   4.634  13.720 -0.6964 -0.6837  0.3895
15378TIP3   OH267624   5.804   1.786  12.152  0.2190  0.4978 -0.2174
15378TIP3    H167625   5.839   1.805  12.065 -1.7612 -0.9019 -1.3630
15378TIP3    H267626   5.724   1.838  12.157 -0.0110  0.0748  0.4989
15379TIP3   OH267627   4.180   2.745   1.171 -0.5999  0.3546 -0.4315
15379TIP3    H167628   4.271   2.766   1.151 -0.3215  1.5256  1.9142
15379TIP3    H267629   4.133   2.827   1.157 -1.1367  0.0027 -0.7015
15380TIP3   OH267630   4.199   5.378  13.903  0.5988 -0.1326 -0.1927
15380TIP3    H167631   4.108   5.407  13.893  0.6809 -0.3372 -1.5230
15380TIP3    H267632   4.201   5.291  13.865  1.1212 -0.5809  0.8250
15381TIP3   OH267633   5.338   1.827  12.180 -0.0066 -0.3577 -0.3625
15381TIP3    H167634   5.301   1.903  12.225  0.3218 -0.3572 -0.0916
15381TIP3    H267635   5.357   1.858  12.092  0.7111  0.0580 -0.0732
15382TIP3   OH267636   4.676   4.512   1.098 -0.1898 -0.4144  0.3112
15382TIP3    H167637   4.694   4.561   1.178  0.0847  1.3793 -0.8177
15382TIP3    H267638   4.591   4.470   1.113  0.3284 -0.9245  1.9063
15383TIP3   OH267639   3.596   2.544  11.512  0.3650 -0.3883 -0.3567
15383TIP3    H167640   3.517   2.533  11.460  0.0064  0.3068  0.0329
15383TIP3    H267641   3.628   2.631  11.489  0.4397 -0.2483  0.2561
15384TIP3   OH267642   0.311   0.423  15.886  0.1945 -0.6151 -0.5275
15384TIP3    H167643   0.334   0.500  15.833  0.7417 -0.4480 -0.0499
15384TIP3    H267644   0.293   0.458  15.973  0.2487 -1.0005 -0.3594
15385TIP3   OH267645   2.479   4.064  16.322  0.2575 -0.1220  0.1028
15385TIP3    H167646   2.544   4.004  16.285 -1.8848 -2.8368  0.5936
15385TIP3    H267647   2.462   4.127  16.252  2.1070 -0.4293 -0.6462
15386TIP3   OH267648   5.411   6.682  11.515 -0.0162 -0.1296  0.1406
15386TIP3    H167649   5.422   6.692  11.610  2.2548  1.0456 -0.2133
15386TIP3    H267650   5.366   6.598  11.505  1.0809 -1.0054  2.1921
15387TIP3   OH267651   0.111   1.863   3.399 -0.1376  0.0468 -0.1819
15387TIP3    H167652   0.093   1.822   3.484  0.0344  0.8580  0.2527
15387TIP3    H267653   0.026   1.865   3.354 -0.1025 -0.9925 -0.3037
15388TIP3   OH267654   6.718   0.174  13.535 -0.0468  0.0869 -0.3937
15388TIP3    H167655   6.747   0.249  13.483 -0.4025  1.6585  1.6320
15388TIP3    H267656   6.760   0.185  13.620 -0.8676 -1.5102  0.2511
15389TIP3   OH267657   0.556   4.847  12.440 -0.1785 -0.1840  0.8547
15389TIP3    H167658   0.632   4.864  12.383  0.2563  0.1995  1.5422
15389TIP3    H267659   0.551   4.925  12.496 -1.2029 -0.1275  0.6795
15390TIP3   OH267660   0.642   4.720  16.673  0.8565  0.3497 -0.0674
15390TIP3    H167661   0.701   4.792  16.654  2.0882 -0.4621  0.6156
15390TIP3    H267662   0.697   4.641  16.668 -0.2090 -0.4385  0.3362
15391TIP3   OH267663   5.851   5.669  11.719 -0.2426 -0.0861 -1.0127
15391TIP3    H167664   5.893   5.583  11.725  0.0283  0.0203 -1.3721
15391TIP3    H267665   5.776   5.655  11.661 -0.3139 -0.1253 -0.9116
15392TIP3   OH267666   5.129   3.768  11.252 -0.8398 -0.3838 -0.3969
15392TIP3    H167667   5.198   3.761  11.186  0.4675  2.1028  0.6651
15392TIP3    H267668   5.048   3.772  11.202  0.1852  2.2744 -1.9131
15393TIP3   OH267669   5.028   2.691   4.976 -0.0818  0.5107  0.3158
15393TIP3    H167670   4.954   2.654   4.928 -0.1954  0.8190  0.2541
15393TIP3    H267671   5.083   2.729   4.908  2.3029 -3.4140 -0.1313
15394TIP3   OH267672   3.778   5.791   1.261  0.3276  0.3125  0.1430
15394TIP3    H167673   3.746   5.734   1.190  1.3547 -0.4871  0.3231
15394TIP3    H267674   3.873   5.793   1.249  0.2847  2.1347  0.0321
15395TIP3   OH267675   2.486   5.993   6.086  0.0479  0.3277 -0.3403
15395TIP3    H167676   2.531   5.971   6.167 -0.0678  2.1505  0.2392
15395TIP3    H267677   2.394   6.000   6.111  0.0178  0.9278 -0.6073
15396TIP3   OH267678   0.454   3.025  12.703 -0.0828  0.1434  0.0716
15396TIP3    H167679   0.387   2.984  12.758 -1.1275  0.3828 -1.0012
15396TIP3    H267680   0.527   2.963  12.703 -0.3211 -0.1456  1.2104
15397TIP3   OH267681   5.651   1.494  17.179  0.1478 -0.2270  0.1035
15397TIP3    H167682   5.730   1.532  17.141  0.6453 -0.4607  0.8937
15397TIP3    H267683   5.669   1.489  17.273 -0.0887 -1.9563  0.0811
15398TIP3   OH267684   4.019   0.512   4.659  0.1911 -0.4614 -0.1367
15398TIP3    H167685   3.966   0.540   4.585  0.0391  1.0005  0.5180
15398TIP3    H267686   4.109   0.537   4.636 -0.2523  2.8591  1.4920
15399TIP3   OH267687   6.145   0.009  13.397 -0.2543  0.0774 -0.0170
15399TIP3    H167688   6.174   0.100  13.388 -2.8388  1.2740  2.9980
15399TIP3    H267689   6.161  -0.012  13.489 -2.6111 -1.4729  0.0600
15400TIP3   OH267690   0.720   2.621   6.435  0.1014 -0.3641  0.2073
15400TIP3    H167691   0.678   2.538   6.412 -0.8983 -0.6256  2.7985
15400TIP3    H267692   0.659   2.663   6.496  0.8823  2.0137 -0.5597
15401TIP3   OH267693   2.113   4.795  14.418  0.1008 -0.4307  0.0627
15401TIP3    H167694   2.137   4.702  14.425  0.8877 -0.3387 -1.2669
15401TIP3    H267695   2.023   4.793  14.384 -0.1226 -0.7031  0.6473
15402TIP3   OH267696   3.368   0.055  12.200 -0.3275 -0.1722  0.6343
15402TIP3    H167697   3.396   0.028  12.113  0.1952  1.9468  0.1382
15402TIP3    H267698   3.331   0.142  12.189  0.7802  0.6050  2.7092
15403TIP3   OH267699   5.052   3.612  11.720  0.1751 -0.1618  0.4578
15403TIP3    H167700   5.072   3.595  11.812  0.8536 -1.7743  0.0352
15403TIP3    H267701   4.961   3.640  11.720  0.6411  1.4249  1.7851
15404TIP3   OH267702   4.240   1.238   2.004 -0.2305  0.2288  0.2511
15404TIP3    H167703   4.266   1.286   2.082  2.0293  1.0976 -0.9761
15404TIP3    H267704   4.256   1.299   1.932 -1.7825 -0.7388 -0.9412
15405TIP3   OH267705   1.396   3.165   4.840  0.0238 -0.0260 -0.2018
15405TIP3    H167706   1.350   3.087   4.809  0.1309 -0.5654  0.9761
15405TIP3    H267707   1.328   3.231   4.849 -0.5053 -0.7490  1.2904
15406TIP3   OH267708   1.344   0.054  16.639 -0.2960  0.3493 -0.2612
15406TIP3    H167709   1.255   0.067  16.669 -0.1138  0.0471  0.4283
15406TIP3    H267710   1.340   0.067  16.545 -1.0334  0.4928 -0.2107
15407TIP3   OH267711   6.397   2.628   2.313  0.2380  0.0208  0.0282
15407TIP3    H167712   6.405   2.690   2.386 -0.2682 -0.1034  0.1883
15407TIP3    H267713   6.352   2.678   2.245 -0.7758 -0.3827  0.4010
15408TIP3   OH267714   3.502   3.021  11.936 -0.6493 -0.1974 -0.0076
15408TIP3    H167715   3.514   2.930  11.963 -1.0771 -0.5030 -0.8355
15408TIP3    H267716   3.412   3.043  11.961 -1.4599 -0.8706 -2.2650
15409TIP3   OH267717   6.136   6.277  16.226 -0.1771  0.4220  0.0008
15409TIP3    H167718   6.080   6.254  16.301  0.3357  2.2425  0.9795
15409TIP3    H267719   6.137   6.199  16.172 -1.5869 -0.5105  1.2790
15410TIP3   OH267720   0.368   5.313  11.574 -0.2826 -0.0017  0.4396
15410TIP3    H167721   0.367   5.271  11.660  0.6286 -2.9256 -0.9027
15410TIP3    H267722   0.281   5.297  11.538 -0.4414  0.6238  0.5419
15411TIP3   OH267723   2.882   0.703   4.213  0.0312  0.1469  0.8316
15411TIP3    H167724   2.801   0.741   4.179 -1.3937 -4.2656 -1.0319
15411TIP3    H267725   2.859   0.674   4.301  0.5542  1.6105  1.4822
15412TIP3   OH267726   0.413   2.030   0.278 -0.3758  0.3445  0.2444
15412TIP3    H167727   0.374   1.944   0.291  0.7444 -0.4593 -1.5104
15412TIP3    H267728   0.487   2.032   0.339  1.2674 -1.0609 -1.6323
15413TIP3   OH267729   6.569   6.094  13.608  0.2095  0.0737  0.1158
15413TIP3    H167730   6.484   6.069  13.645 -0.9694 -1.5878 -3.5265
15413TIP3    H267731   6.629   6.027  13.640 -0.3081 -0.0572  0.8378
15414TIP3   OH267732   4.170   2.987  11.601 -0.6030  0.1984  0.0593
15414TIP3    H167733   4.146   2.914  11.544  1.6819  0.0509 -0.7947
15414TIP3    H267734   4.206   2.945  11.679  1.0405  0.3835 -0.5798
15415TIP3   OH267735   1.014   6.729   1.182 -0.0223  0.1555  0.1822
15415TIP3    H167736   1.103   6.732   1.218  0.0927  0.4237 -0.1147
15415TIP3    H267737   0.996   6.819   1.155 -0.1062 -0.0328 -0.4069
15416TIP3   OH267738   2.167   5.122   0.295 -0.1441 -0.0289  0.1139
15416TIP3    H167739   2.215   5.083   0.222 -2.0383 -0.3839 -0.9947
15416TIP3    H267740   2.075   5.113   0.270 -0.7956  0.6220  2.1707
15417TIP3   OH267741   2.742   3.357  13.370  0.2103  0.1974 -0.6403
15417TIP3    H167742   2.769   3.372  13.280  0.8680 -1.2581 -0.6893
15417TIP3    H267743   2.742   3.444  13.410  2.0114  0.6016 -1.4712
15418TIP3   OH267744   5.650   1.420   4.208 -0.3659 -0.2759 -0.3807
15418TIP3    H167745   5.708   1.489   4.175 -1.2486  0.4879 -0.3313
15418TIP3    H267746   5.613   1.380   4.129 -0.6967  0.0282 -0.3795
15419TIP3   OH267747   0.289   3.417  10.447  0.5107 -0.2435  0.0965
15419TIP3    H167748   0.229   3.480  10.487 -0.1867 -1.0089  0.2781
15419TIP3    H267749   0.376   3.453  10.463  0.0121  2.4750 -2.8983
15420TIP3   OH267750   1.373   0.896   3.338  0.4877 -0.8935  0.0259
15420TIP3    H167751   1.463   0.904   3.308  0.3176 -1.2916 -0.6191
15420TIP3    H267752   1.338   0.985   3.334  1.0246 -0.6357  0.8699
15421TIP3   OH267753   3.941   1.741   0.271 -0.1723 -0.1173  0.1796
15421TIP3    H167754   3.846   1.753   0.274 -0.6457 -3.5411  0.9671
15421TIP3    H267755   3.963   1.748   0.178 -1.2512  0.1842 -0.0626
15422TIP3   OH267756   0.740   1.070  16.851  0.0105 -0.2150 -0.2256
15422TIP3    H167757   0.673   1.112  16.797 -0.3027  0.8913  1.0145
15422TIP3    H267758   0.815   1.061  16.792 -0.9384 -0.7134 -1.3808
15423TIP3   OH267759   2.559   6.613  16.803 -0.2609 -0.1801 -0.4099
15423TIP3    H167760   2.643   6.594  16.846 -0.3415 -1.3612 -0.7464
15423TIP3    H267761   2.571   6.699  16.763  0.7090 -0.2272 -0.2286
15424TIP3   OH267762   3.213   4.276   4.381 -0.0302 -0.0693  0.3361
15424TIP3    H167763   3.204   4.264   4.287 -3.5119  0.3278  0.5745
15424TIP3    H267764   3.239   4.190   4.414  0.8011 -0.3082 -0.9278
15425TIP3   OH267765   2.915   2.600  14.499  0.4003 -0.2708 -0.3485
15425TIP3    H167766   2.900   2.506  14.492 -0.5533 -0.0337 -1.7244
15425TIP3    H267767   3.004   2.608  14.534  0.8026 -1.6761 -1.0197
15426TIP3   OH267768   0.864   6.067  11.606  0.4634  0.2598  0.3726
15426TIP3    H167769   0.933   6.004  11.624  0.1772  0.0694  0.8045
15426TIP3    H267770   0.831   6.044  11.519  0.0352 -0.4874  0.7268
15427TIP3   OH267771   2.606   0.312  14.615  0.1273 -0.0216  0.3044
15427TIP3    H167772   2.533   0.350  14.664  0.7030  0.4634  0.7903
15427TIP3    H267773   2.564   0.251  14.554 -0.6019 -0.5374  1.3035
15428TIP3   OH267774   5.601   6.686  10.342  0.0340  0.0969 -0.0069
15428TIP3    H167775   5.552   6.768  10.333 -0.4213 -0.2735 -0.9813
15428TIP3    H267776   5.684   6.702  10.299  0.1033  0.1738  0.1549
15429TIP3   OH267777   2.696   6.718   3.364  0.1687  0.1558 -0.4073
15429TIP3    H167778   2.636   6.769   3.418 -0.5809 -1.0220 -0.1205
15429TIP3    H267779   2.732   6.651   3.422  1.0276  0.2406 -0.8203
15430TIP3   OH267780   1.161   1.163  17.020 -0.1858  0.1877  0.2101
15430TIP3    H167781   1.069   1.190  17.011 -1.2343 -2.7770  1.4764
15430TIP3    H267782   1.183   1.182  17.112  0.3796  0.5726  0.0008
15431TIP3   OH267783   5.707   6.191  13.718 -0.0505 -0.2040 -0.0899
15431TIP3    H167784   5.616   6.177  13.694  0.3369 -0.1305 -1.7140
15431TIP3    H267785   5.704   6.248  13.795 -1.3580  0.5974 -0.7156
15432TIP3   OH267786   0.659   5.406   2.437  0.1837  0.6170  0.6650
15432TIP3    H167787   0.622   5.485   2.397  1.6495  0.0715 -1.9336
15432TIP3    H267788   0.741   5.437   2.478  0.2077  0.6425  0.5979
15433TIP3   OH267789   2.795   5.734   5.771  0.0972 -0.2613  0.1617
15433TIP3    H167790   2.752   5.804   5.820  1.9601  1.0182 -0.0133
15433TIP3    H267791   2.776   5.754   5.679 -1.3433 -1.3133  0.2109
15434TIP3   OH267792   5.689   5.692   6.020  0.0413 -0.0785  0.5130
15434TIP3    H167793   5.640   5.637   5.959 -1.7977  1.8659  0.1838
15434TIP3    H267794   5.716   5.632   6.090 -3.5345 -1.0950  1.1350
15435TIP3   OH267795   3.700   5.038  14.939 -0.6399 -0.1023  0.5600
15435TIP3    H167796   3.673   5.110  14.882  0.5612  1.2136  1.6157
15435TIP3    H267797   3.753   5.080  15.007  2.1110 -2.3005 -0.1477
15436TIP3   OH267798   6.199   2.277   1.666 -0.2987 -0.1255  0.0424
15436TIP3    H167799   6.204   2.347   1.731  1.4660 -0.0430 -0.1664
15436TIP3    H267800   6.254   2.207   1.701 -2.8978 -1.8913  0.7745
15437TIP3   OH267801   3.087   2.885   4.737  0.4482 -0.2261 -0.1552
15437TIP3    H167802   3.043   2.853   4.816 -1.4150  2.3474 -0.0938
15437TIP3    H267803   3.037   2.848   4.665 -2.4794  3.3192 -0.0935
15438TIP3   OH267804   3.179   5.369   1.880  0.0477  0.0935 -0.0272
15438TIP3    H167805   3.272   5.351   1.894  0.4811  1.9921 -0.2452
15438TIP3    H267806   3.164   5.345   1.789 -0.1782 -2.1166  0.5719
15439TIP3   OH267807   3.856   6.656   0.959 -0.2041 -0.7926 -0.5991
15439TIP3    H167808   3.837   6.747   0.980  0.3372 -0.6852 -0.5821
15439TIP3    H267809   3.774   6.623   0.921 -0.3647 -0.2725 -0.7070
15440TIP3   OH267810   1.039   1.492   4.575  0.3241 -0.1606 -0.0964
15440TIP3    H167811   1.098   1.489   4.650  0.6014  0.1972 -0.2942
15440TIP3    H267812   0.960   1.448   4.604  0.5314 -0.2601  0.3162
15441TIP3   OH267813   6.341   2.391   3.473  0.5778 -0.3583 -0.0655
15441TIP3    H167814   6.402   2.374   3.544 -0.0746  3.6853  1.6347
15441TIP3    H267815   6.258   2.413   3.517 -0.5741 -0.3432 -2.1576
15442TIP3   OH267816   5.025   6.115  11.043 -0.4363  0.4871  0.2138
15442TIP3    H167817   4.935   6.099  11.070 -0.2170  0.9871  1.2536
15442TIP3    H267818   5.032   6.073  10.957 -2.2145  2.0729 -0.7440
15443TIP3   OH267819   2.975   5.696   1.164  0.2392  0.6936 -0.7621
15443TIP3    H167820   2.889   5.656   1.152  0.3912  0.1433 -0.0666
15443TIP3    H267821   3.012   5.699   1.076  0.1377 -0.5111 -0.8551
15444TIP3   OH267822   4.201   0.241   4.474  0.4292  0.1727 -0.1762
15444TIP3    H167823   4.231   0.318   4.522  1.0531 -1.1075  1.5468
15444TIP3    H267824   4.249   0.168   4.514  0.1040 -1.0668 -2.0036
15445TIP3   OH267825   2.017   3.370   4.753  0.1028  0.3642 -0.4272
15445TIP3    H167826   2.077   3.416   4.812 -0.9678  1.2916 -0.0395
15445TIP3    H267827   1.993   3.290   4.799 -0.4715  0.9271  0.2539
15446TIP3   OH267828   3.894   2.206   1.998  0.2169  0.1128 -1.2299
15446TIP3    H167829   3.867   2.288   2.038  1.6307  0.1717 -0.3613
15446TIP3    H267830   3.812   2.161   1.977 -0.5561  0.2781  1.3083
15447TIP3   OH267831   0.582   0.201  13.037 -0.2339 -0.3082  0.2446
15447TIP3    H167832   0.635   0.245  12.970  0.8827  0.1267  1.3753
15447TIP3    H267833   0.604   0.108  13.028  0.7990 -0.1256  0.7436
15448TIP3   OH267834   1.338   6.368   1.217  0.6307  0.1158 -0.5077
15448TIP3    H167835   1.264   6.403   1.167  1.2678  0.8176 -0.9629
15448TIP3    H267836   1.416   6.395   1.168  1.1582 -1.5058 -0.5919
15449TIP3   OH267837   3.694   2.063   4.387  0.3686 -0.0445 -0.9786
15449TIP3    H167838   3.637   2.004   4.437 -0.8326  2.4053  0.6736
15449TIP3    H267839   3.775   2.066   4.437 -0.4087  1.4840  0.2221
15450TIP3   OH267840   4.094   3.705  12.279  0.6051  0.5025 -0.0017
15450TIP3    H167841   4.129   3.619  12.257 -0.9405  0.3100 -1.8016
15450TIP3    H267842   4.039   3.690  12.356 -0.2638 -0.2782 -0.7648
15451TIP3   OH267843   5.535   2.206  15.551  0.1508  0.7085  0.2513
15451TIP3    H167844   5.463   2.172  15.498 -0.4693  1.2603  0.7422
15451TIP3    H267845   5.566   2.283  15.504  0.4088  0.4858  0.0540
15452TIP3   OH267846   2.936   3.428   4.000  0.5076 -0.1925 -0.3102
15452TIP3    H167847   3.031   3.430   4.008  0.4995 -0.6041 -0.1199
15452TIP3    H267848   2.919   3.464   3.912  0.9782 -2.4076 -1.3317
15453TIP3   OH267849   0.939   6.246   4.199  0.1128 -0.5012 -0.5321
15453TIP3    H167850   0.986   6.225   4.119  0.0549 -0.3569 -0.6022
15453TIP3    H267851   0.918   6.160   4.237  1.4917 -0.5668  0.1171
15454TIP3   OH267852   1.482   1.566   0.748 -0.4326 -0.0335  0.3373
15454TIP3    H167853   1.440   1.515   0.679 -1.8725  0.0282  1.1359
15454TIP3    H267854   1.441   1.653   0.741 -0.9738 -0.1841  1.6049
15455TIP3   OH267855   6.083   4.794   3.518 -0.0315  0.2774  0.5795
15455TIP3    H167856   6.008   4.774   3.575 -1.3936  0.7457 -0.9963
15455TIP3    H267857   6.115   4.709   3.490 -2.6754  0.0734 -2.1151
15456TIP3   OH267858   5.011   5.456  16.809 -0.3015 -0.2030 -0.0709
15456TIP3    H167859   4.996   5.549  16.823 -2.4558 -0.2080 -2.1091
15456TIP3    H267860   4.928   5.423  16.775  1.0388 -2.4879 -1.2134
15457TIP3   OH267861   5.608   2.203   0.028  0.0222  0.6210  0.3598
15457TIP3    H167862   5.679   2.205  -0.037  0.1486  1.0827  0.5116
15457TIP3    H267863   5.632   2.271   0.091 -1.0387  1.4130 -0.0864
15458TIP3   OH267864   1.108   1.325  16.329  0.3811 -0.6108 -0.6534
15458TIP3    H167865   1.141   1.242  16.363 -2.8426 -0.5375  2.9067
15458TIP3    H267866   1.153   1.392  16.380  0.5944 -0.2519 -1.3059
15459TIP3   OH267867   6.706   6.812  15.949  1.0873 -0.0309  0.0462
15459TIP3    H167868   6.784   6.860  15.975  0.8531  0.8195 -0.7933
15459TIP3    H267869   6.646   6.879  15.916 -0.1625 -0.6095  1.0683
15460TIP3   OH267870   3.658   1.546  16.070  0.7766  0.0420  0.2861
15460TIP3    H167871   3.640   1.596  15.990  1.6044  2.7339  1.7013
15460TIP3    H267872   3.632   1.605  16.141  0.6228 -2.0593  2.0208
15461TIP3   OH267873   2.953   5.306  11.966 -0.0340  0.3198 -0.2069
15461TIP3    H167874   2.963   5.215  11.996 -0.2653  0.6147  0.7774
15461TIP3    H267875   3.040   5.332  11.937  0.8238  0.9237  2.7764
15462TIP3   OH267876   4.503   6.180   2.650  0.7267 -0.1607 -0.2939
15462TIP3    H167877   4.576   6.143   2.699  0.2449 -0.3226  0.3129
15462TIP3    H267878   4.537   6.192   2.562  1.9338  1.0955  0.3118
15463TIP3   OH267879   6.144   2.538   1.239 -0.1165 -0.2264  0.1594
15463TIP3    H167880   6.170   2.457   1.283 -1.2514 -0.3089  0.6871
15463TIP3    H267881   6.224   2.569   1.196  0.9198 -0.3394  1.9688
15464TIP3   OH267882   2.121   0.766  13.324 -0.6108 -0.0097  0.1881
15464TIP3    H167883   2.137   0.673  13.304 -0.3585  0.1530 -0.3537
15464TIP3    H267884   2.154   0.776  13.413 -0.3442 -0.3650  0.1330
15465TIP3   OH267885   2.421   5.406  12.862 -0.2934 -0.7490  0.3558
15465TIP3    H167886   2.357   5.440  12.801 -0.1058 -0.7048  0.1838
15465TIP3    H267887   2.411   5.459  12.941  1.4613  1.1532 -0.6383
15466TIP3   OH267888   6.785   6.389  14.796  0.2427  0.1582  0.3168
15466TIP3    H167889   6.720   6.319  14.796  0.5113 -0.0940  0.2736
15466TIP3    H267890   6.856   6.356  14.851  0.7317  0.0527 -0.3684
15467TIP3   OH267891   0.305   0.342  16.955 -0.8944 -0.0240  0.0301
15467TIP3    H167892   0.321   0.295  16.873 -2.0569  0.3043 -0.4033
15467TIP3    H267893   0.354   0.423  16.946 -0.2620 -0.4047  0.0528
15468TIP3   OH267894   2.085   0.516  16.825  0.4804  0.6476  0.1361
15468TIP3    H167895   2.151   0.582  16.846  0.6483  0.4145  0.3332
15468TIP3    H267896   2.051   0.488  16.910  0.8404  0.0341  0.0815
15469TIP3   OH267897   4.857   4.480  16.046  0.0933  0.1166 -0.3685
15469TIP3    H167898   4.830   4.513  16.132 -1.3463 -3.5909  0.7081
15469TIP3    H267899   4.780   4.434  16.013  1.2617 -0.2007 -2.7495
15470TIP3   OH267900   2.887   2.696  16.017 -0.0819  0.2443  0.2777
15470TIP3    H167901   2.966   2.750  16.010 -1.6343  2.4519 -1.0452
15470TIP3    H267902   2.816   2.759  16.023 -1.9108 -1.6696 -0.5945
15471TIP3   OH267903   5.013   3.629  13.651  0.2494 -0.0634  0.2968
15471TIP3    H167904   5.040   3.540  13.674  0.1090 -0.1407  0.1578
15471TIP3    H267905   5.062   3.685  13.711 -0.9148 -0.3231  1.4974
15472TIP3   OH267906   6.573   4.684   0.524  0.4139  0.2479  0.2677
15472TIP3    H167907   6.523   4.719   0.450 -1.9138 -0.3791  1.4865
15472TIP3    H267908   6.592   4.593   0.499 -0.2096  0.0936  0.3421
15473TIP3   OH267909   0.187   1.506  14.115  0.6337 -0.2955 -0.0481
15473TIP3    H167910   0.255   1.484  14.180  1.2682 -0.8835 -0.8954
15473TIP3    H267911   0.222   1.472  14.033  0.3413  1.4407 -0.8952
15474TIP3   OH267912   0.162   5.510  11.989 -0.4803  0.5854  0.1205
15474TIP3    H167913   0.229   5.574  12.013  1.9012 -1.7573  0.0049
15474TIP3    H267914   0.093   5.521  12.055  0.1817  2.7763  0.4797
15475TIP3   OH267915   2.950   3.522   4.989 -0.2948 -1.0396 -0.8235
15475TIP3    H167916   2.902   3.598   4.956  1.9775  0.4641 -0.7773
15475TIP3    H267917   3.014   3.502   4.921  1.7400 -0.4379  0.8430
15476TIP3   OH267918   6.390   6.139  15.166  0.5125 -0.0164 -0.0899
15476TIP3    H167919   6.340   6.211  15.204  0.9274  0.7459 -0.9964
15476TIP3    H267920   6.476   6.145  15.208 -0.3075 -1.7417  1.9912
15477TIP3   OH267921   1.149   4.616  16.126 -0.2263 -0.0722  0.0289
15477TIP3    H167922   1.092   4.547  16.092  0.2892 -0.6201  0.2628
15477TIP3    H267923   1.213   4.570  16.180  1.1230  0.4043 -1.1101
15478TIP3   OH267924   4.692   1.944   3.494 -0.5153  0.8229 -0.5672
15478TIP3    H167925   4.636   1.977   3.425  0.4012  0.1943 -1.6292
15478TIP3    H267926   4.776   1.926   3.451 -0.4126 -1.0669  0.3551
15479TIP3   OH267927   5.478   5.331   5.181  0.0386 -0.0626 -0.1221
15479TIP3    H167928   5.511   5.402   5.126  1.2143  0.0727  0.7502
15479TIP3    H267929   5.501   5.251   5.134  0.8778  0.0576  0.0790
15480TIP3   OH267930   1.468   1.254   1.145  0.3266  0.3365  0.8683
15480TIP3    H167931   1.381   1.241   1.183 -0.0053 -1.0235 -0.2783
15480TIP3    H267932   1.526   1.262   1.220 -0.7372  0.8882  1.6474
15481TIP3   OH267933   0.231   1.997   2.702  0.2022  0.1502  0.7902
15481TIP3    H167934   0.204   2.089   2.702 -0.8500 -0.1569  1.7861
15481TIP3    H267935   0.181   1.958   2.631 -0.7284 -0.0555  1.5598
15482TIP3   OH267936   4.962   1.888  14.056  0.7434  0.1969 -0.9944
15482TIP3    H167937   5.019   1.827  14.104  2.5736  0.3062 -2.9544
15482TIP3    H267938   4.905   1.832  14.004 -2.3135  0.0202  2.3156
15483TIP3   OH267939   1.843   1.502   4.866 -0.4253 -0.3917 -0.1373
15483TIP3    H167940   1.805   1.554   4.796  1.3418 -2.4919 -2.7609
15483TIP3    H267941   1.934   1.531   4.872 -0.2523 -1.0368  0.4749
15484TIP3   OH267942   3.773   6.149   2.517 -0.0086 -0.0076  0.3093
15484TIP3    H167943   3.793   6.056   2.527  0.9952  0.2903  1.0989
15484TIP3    H267944   3.833   6.179   2.448 -0.6261 -0.0304 -0.2464
15485TIP3   OH267945   6.711   1.944  15.259 -0.1976 -0.0773  0.0798
15485TIP3    H167946   6.627   1.956  15.304  0.3620 -1.3741  1.4963
15485TIP3    H267947   6.763   1.890  15.319  1.5440  0.4526 -0.9246
15486TIP3   OH267948   2.968   2.081  16.167 -0.3913  0.5270 -0.3953
15486TIP3    H167949   2.988   2.002  16.216 -0.1533  1.1981  0.6068
15486TIP3    H267950   3.002   2.065  16.079  2.3127  0.6823  0.5957
15487TIP3   OH267951   0.718   0.067  11.130  0.0457  0.1719 -0.7201
15487TIP3    H167952   0.719   0.105  11.043  1.6152  0.3987 -0.6322
15487TIP3    H267953   0.729  -0.027  11.116 -0.2990  0.1449 -0.7968
15488TIP3   OH267954   2.897   0.396  12.696  0.1403  0.6690  0.2226
15488TIP3    H167955   2.903   0.307  12.729  1.1264  0.7630  0.3196
15488TIP3    H267956   2.946   0.395  12.614 -0.8265  0.8482 -0.3632
15489TIP3   OH267957   2.186   3.166  15.117 -0.1534  0.1108  0.2476
15489TIP3    H167958   2.259   3.115  15.153  0.0865  0.0585 -0.3093
15489TIP3    H267959   2.108   3.128  15.158 -0.1231 -1.7805 -1.3593
15490TIP3   OH267960   3.668   3.044   5.160  0.0466  0.2545  0.6396
15490TIP3    H167961   3.637   3.095   5.085 -0.6646  1.0135  1.4566
15490TIP3    H267962   3.638   3.092   5.237  0.1855 -0.8878  1.4193
15491TIP3   OH267963   2.759   5.699  11.781  1.0897 -0.4485 -0.4349
15491TIP3    H167964   2.809   5.708  11.700  1.1309  1.0531 -0.2540
15491TIP3    H267965   2.816   5.736  11.848 -1.2416  3.7501 -0.5910
15492TIP3   OH267966   2.622   5.357  13.592 -0.5527  0.2507  0.8227
15492TIP3    H167967   2.616   5.263  13.576  0.7873  0.4176 -0.7361
15492TIP3    H267968   2.550   5.394  13.540  1.8959  0.4985 -2.5833
15493TIP3   OH267969   5.110   3.446   3.182 -0.1233 -0.0920  0.3134
15493TIP3    H167970   5.114   3.454   3.086  3.0788 -1.1932  0.2971
15493TIP3    H267971   5.131   3.534   3.214  1.5745 -0.3441 -0.0288
15494TIP3   OH267972   0.917   1.050  12.210  0.1695 -0.1069  0.0445
15494TIP3    H167973   0.849   0.986  12.190  1.4456 -1.2330 -0.8155
15494TIP3    H267974   0.893   1.085  12.296 -1.7662 -0.0809 -0.4853
15495TIP3   OH267975   2.893   3.214  10.304 -0.6662  0.2587 -0.0325
15495TIP3    H167976   2.959   3.273  10.339 -2.8165  2.6078  0.1972
15495TIP3    H267977   2.847   3.266  10.237 -2.5337 -1.1750  0.0826
15496TIP3   OH267978   5.097   2.744   2.260  0.1977 -0.4374 -0.2239
15496TIP3    H167979   5.045   2.670   2.293 -0.4896 -0.0079 -0.3337
15496TIP3    H267980   5.172   2.703   2.216 -0.4444 -1.0861 -0.7309
15497TIP3   OH267981   4.734   1.310  11.359  0.8127 -0.0663  0.2338
15497TIP3    H167982   4.708   1.382  11.416 -0.9367  1.1711 -2.0511
15497TIP3    H267983   4.773   1.353  11.282 -0.2060 -1.5236 -1.1341
15498TIP3   OH267984   1.642   1.135  15.478  0.3750 -0.3964  0.3751
15498TIP3    H167985   1.581   1.087  15.533  1.2279 -1.3582  0.4897
15498TIP3    H267986   1.591   1.159  15.401 -0.4252 -0.2940  0.9356
15499TIP3   OH267987   6.146   2.309   1.043 -0.1746 -0.3145  0.0532
15499TIP3    H167988   6.225   2.358   1.065 -0.3293  0.4151 -1.0040
15499TIP3    H267989   6.079   2.344   1.103  0.0950 -0.3490  0.3771
15500TIP3   OH267990   4.374   6.088  12.243  0.0408 -0.6126 -0.1724
15500TIP3    H167991   4.327   6.097  12.160  2.3010 -0.5907 -1.5122
15500TIP3    H267992   4.361   5.997  12.268 -2.5688 -0.0334  0.6680
15501TIP3   OH267993   1.149   5.456  12.199  0.3734  0.0340  0.1493
15501TIP3    H167994   1.152   5.499  12.284 -1.2315  0.4328  0.0253
15501TIP3    H267995   1.118   5.524  12.139 -1.0068 -0.9320 -0.2672
15502TIP3   OH267996   0.859   3.951   2.442 -0.9695 -0.0836  0.0905
15502TIP3    H167997   0.910   3.922   2.367 -1.2135  0.5155 -0.3150
15502TIP3    H267998   0.870   4.046   2.443 -1.1031 -0.0717  0.7152
15503TIP3   OH267999   5.299   6.067   5.597  0.1468 -0.1658  0.1942
15503TIP3    H168000   5.237   6.139   5.604 -1.0074 -1.2448  1.3404
15503TIP3    H268001   5.317   6.042   5.688 -2.1335 -3.5579 -0.1761
15504TIP3   OH268002   4.594   1.119   4.834  0.4637 -0.7521 -0.1395
15504TIP3    H168003   4.535   1.073   4.774 -1.3453 -0.6392  1.5005
15504TIP3    H268004   4.665   1.058   4.850 -0.3829 -1.8024 -0.3470
15505TIP3   OH268005   4.315   0.590  12.317  0.0224 -0.8032  0.0775
15505TIP3    H168006   4.284   0.671  12.356 -1.9375 -1.5179  0.0846
15505TIP3    H268007   4.375   0.617  12.247  1.4333  0.5434  1.7854
15506TIP3   OH268008   3.102   3.705   0.563  0.0649  0.2827  0.3537
15506TIP3    H168009   3.148   3.666   0.488 -1.7758  1.3843 -1.3980
15506TIP3    H268010   3.166   3.764   0.602  0.9199 -0.0000 -0.6027
15507TIP3   OH268011   6.062   4.710   5.968 -0.5660 -0.0133  0.1188
15507TIP3    H168012   6.010   4.778   5.925 -0.7165 -0.0231  0.2815
15507TIP3    H268013   6.145   4.709   5.921  0.5052  2.1708  1.8539
15508TIP3   OH268014   3.562   6.432  10.362  0.3737 -0.2813  0.4949
15508TIP3    H168015   3.534   6.503  10.303  0.0929 -0.3062  0.5961
15508TIP3    H268016   3.569   6.355  10.305  3.3922  0.4261 -0.1503
15509TIP3   OH268017   0.958   4.653  16.879  0.2332  0.4823  0.0511
15509TIP3    H168018   0.941   4.747  16.884  0.8958  0.6680 -1.1656
15509TIP3    H268019   0.913   4.624  16.800  1.4513  0.0850 -0.5081
15510TIP3   OH268020   5.214   2.137  14.888  0.2591  0.2244 -0.4518
15510TIP3    H168021   5.151   2.074  14.922 -0.0783  0.0527 -1.3673
15510TIP3    H268022   5.299   2.097  14.904  0.0291 -0.6789 -1.4170
15511TIP3   OH268023   2.655   0.874  14.330  0.7093 -0.2674  0.0699
15511TIP3    H168024   2.620   0.851  14.416 -0.5633  0.6008 -0.2125
15511TIP3    H268025   2.747   0.848  14.335  0.7239  0.0445  1.7973
15512TIP3   OH268026   5.714   6.676   5.063  0.4164  0.1203  0.2995
15512TIP3    H168027   5.747   6.752   5.015  1.4506 -0.9392 -0.6866
15512TIP3    H268028   5.772   6.669   5.139 -0.6002  1.1916  1.1948
15513TIP3   OH268029   5.972   6.645   5.283  0.0029 -0.3965  0.3267
15513TIP3    H168030   6.054   6.641   5.331  0.0967  0.3697  0.2326
15513TIP3    H268031   5.977   6.727   5.234 -0.7122 -0.4667  0.1340
15514TIP3   OH268032   3.251   5.660   0.763  0.4169  0.4464 -0.6560
15514TIP3    H168033   3.205   5.583   0.796 -2.2496  1.5935 -1.4943
15514TIP3    H268034   3.220   5.669   0.673  1.4034  1.9561 -0.8615
15515TIP3   OH268035   3.879   2.482   3.257  0.0933 -0.2994  0.0192
15515TIP3    H168036   3.954   2.422   3.255  0.4284  0.0676  1.1105
15515TIP3    H268037   3.903   2.553   3.197 -0.1232 -1.0358 -0.9482
15516TIP3   OH268038   0.129   6.078   5.028 -0.5250  0.6997  0.3607
15516TIP3    H168039   0.050   6.085   4.975  0.0572  0.2393 -0.5943
15516TIP3    H268040   0.098   6.072   5.118 -1.5190  1.7645  0.0986
15517TIP3   OH268041   2.326   6.323   1.428 -0.2724 -0.7603  0.1386
15517TIP3    H168042   2.350   6.319   1.335  0.6672 -1.9970  0.4298
15517TIP3    H268043   2.233   6.345   1.427  0.3305  2.0940 -1.0430
15518TIP3   OH268044   0.370   0.592  15.129  0.0262  0.7169  0.0463
15518TIP3    H168045   0.455   0.550  15.124 -0.3148  0.0680 -0.3979
15518TIP3    H268046   0.314   0.540  15.071 -1.2641 -0.2786  2.1574
15519TIP3   OH268047   4.214   3.143   0.064  0.4795 -0.2519 -0.0224
15519TIP3    H168048   4.292   3.184   0.100 -0.3485 -0.4992  2.1588
15519TIP3    H268049   4.165   3.216   0.024  0.2428  0.4840  1.5556
15520TIP3   OH268050   3.575   1.068   3.059  0.2107  0.3381 -0.7266
15520TIP3    H168051   3.559   1.108   3.145 -0.1028  1.7142 -1.4126
15520TIP3    H268052   3.488   1.043   3.028  0.0660  1.8251 -1.5766
15521TIP3   OH268053   1.834   5.827   6.354  0.1031 -0.2548 -0.0474
15521TIP3    H168054   1.861   5.817   6.263 -1.8189  1.0531 -0.7915
15521TIP3    H268055   1.905   5.786   6.404  0.7989 -1.7296 -2.1350
15522TIP3   OH268056   6.269   6.075  17.175 -0.0448  0.2774 -0.5953
15522TIP3    H168057   6.322   6.012  17.126  0.5417  0.2600  0.0554
15522TIP3    H268058   6.183   6.035  17.181 -0.1589  0.3286 -1.7084
15523TIP3   OH268059   3.245   5.275   4.577  0.6952 -0.0772  0.8918
15523TIP3    H168060   3.202   5.352   4.541  1.6350  0.1430  0.2264
15523TIP3    H268061   3.306   5.310   4.642  4.1522  0.1494 -2.2933
15524TIP3   OH268062   5.072   3.853   1.129  1.1318  0.0813 -0.2003
15524TIP3    H168063   5.016   3.852   1.207  0.9551 -1.1829 -0.3260
15524TIP3    H268064   5.136   3.923   1.147  0.4535  0.5052  0.6144
15525TIP3   OH268065   2.164   1.107  16.230  0.1806  0.3196 -0.1363
15525TIP3    H168066   2.223   1.148  16.294 -0.5510 -1.8389  1.9703
15525TIP3    H268067   2.090   1.168  16.223 -0.1659  0.1444  1.7750
15526TIP3   OH268068   0.498   3.594  15.693  0.3351  0.3641  0.2575
15526TIP3    H168069   0.577   3.617  15.644  0.1054  0.2450 -0.1682
15526TIP3    H268070   0.510   3.636  15.778  0.5686  0.8729 -0.0231
15527TIP3   OH268071   0.970   3.244  17.005  0.0154  0.1112  0.3073
15527TIP3    H168072   0.973   3.149  16.998  1.9370  0.3600 -3.1567
15527TIP3    H268073   0.904   3.271  16.942  0.0535  1.1512  0.6880
15528TIP3   OH268074   5.154   3.714  16.593  0.1098  0.0947 -0.7941
15528TIP3    H168075   5.181   3.782  16.653 -1.0057  1.5892 -1.9423
15528TIP3    H268076   5.119   3.644  16.649 -0.1895  1.1277  0.3237
15529TIP3   OH268077   1.195   4.212   0.025 -0.5783 -0.5650 -0.3555
15529TIP3    H168078   1.118   4.157   0.007  0.5218 -2.0181 -0.7299
15529TIP3    H268079   1.216   4.193   0.116 -2.1493  1.7496  0.5333
15530TIP3   OH268080   4.440   0.620  12.538 -0.5035 -0.6506 -0.5599
15530TIP3    H168081   4.462   0.707  12.505 -0.7104 -0.0150  0.9351
15530TIP3    H268082   4.403   0.574  12.463 -1.2002  0.8478 -1.1570
15531TIP3   OH268083   1.560   6.379   2.119 -0.1405  0.4742  0.0422
15531TIP3    H168084   1.562   6.334   2.203  1.9504  0.8207  0.2022
15531TIP3    H268085   1.473   6.417   2.114 -0.6664 -0.4955  1.5405
15532TIP3   OH268086   1.268   3.016   3.520 -0.4324 -0.2108  0.3741
15532TIP3    H168087   1.280   3.051   3.432 -1.4972 -0.2231  0.2226
15532TIP3    H268088   1.331   2.944   3.526 -0.1733 -0.0408 -0.2761
15533TIP3   OH268089   0.163   0.124  12.083  0.2622 -0.1741 -0.0294
15533TIP3    H168090   0.205   0.039  12.095  2.6482  0.6083 -2.3291
15533TIP3    H268091   0.146   0.129  11.989  1.0876  2.3054 -0.0728
15534TIP3   OH268092   2.959   2.881   5.277  0.0751 -0.5798 -0.2935
15534TIP3    H168093   2.991   2.870   5.367  1.2635  2.9144 -0.2215
15534TIP3    H268094   2.874   2.924   5.288  0.9703  1.3657 -0.8648
15535TIP3   OH268095   3.277   3.201  10.604  0.2917  0.1489 -0.0563
15535TIP3    H168096   3.356   3.247  10.632  1.0048 -1.6273  0.9169
15535TIP3    H268097   3.309   3.116  10.572 -1.0019  0.2810 -1.7351
15536TIP3   OH268098   1.593   3.013   1.553 -0.1985  0.3177 -0.6518
15536TIP3    H168099   1.624   3.034   1.641  0.5140 -1.2387 -0.5196
15536TIP3    H268100   1.656   3.056   1.494  1.1651 -1.2777 -0.3870
15537TIP3   OH268101   5.516   3.660  17.034  0.5467  0.0910 -0.1819
15537TIP3    H168102   5.561   3.744  17.041  0.6911 -0.0797  1.2208
15537TIP3    H268103   5.533   3.617  17.118 -2.2092  0.0313  0.3863
15538TIP3   OH268104   3.051   4.553  11.281 -0.5745  0.0160 -0.0114
15538TIP3    H168105   3.049   4.552  11.377 -0.3247 -2.1295  0.0029
15538TIP3    H268106   3.000   4.630  11.256 -2.1458 -0.4069  1.8070
15539TIP3   OH268107   6.711   0.543   2.549 -0.0704  0.2274 -0.3014
15539TIP3    H168108   6.640   0.479   2.539 -0.1149  0.0762  0.8891
15539TIP3    H268109   6.776   0.499   2.604  0.8133  0.4810 -1.1264
15540TIP3   OH268110   3.594   1.392  12.982  0.7216 -0.0452 -0.4311
15540TIP3    H168111   3.527   1.428  13.039  0.3864  0.8041 -1.3498
15540TIP3    H268112   3.631   1.319  13.032 -0.1192  0.1722  0.5300
15541TIP3   OH268113   6.213   1.636   0.730  0.2155 -0.5467  0.2161
15541TIP3    H168114   6.250   1.595   0.652  0.8918 -0.9329  0.7304
15541TIP3    H268115   6.221   1.569   0.798 -0.1628 -0.1336  0.6735
15542TIP3   OH268116   4.756   4.945  16.975  0.2570 -0.3445 -0.4262
15542TIP3    H168117   4.847   4.927  17.002 -0.1240 -1.7886 -0.0742
15542TIP3    H268118   4.739   4.882  16.905 -0.6016 -0.3384 -0.2271
15543TIP3   OH268119   6.712   3.167  14.522  0.0102 -0.0006  0.3218
15543TIP3    H168120   6.775   3.099  14.502 -0.3398  0.1233 -1.2010
15543TIP3    H268121   6.756   3.249  14.499  0.3818  0.3075  2.0266
15544TIP3   OH268122   4.947   0.775   1.700 -0.0150  0.3346  0.6420
15544TIP3    H168123   4.895   0.810   1.772  0.2617  2.5937 -0.2024
15544TIP3    H268124   5.028   0.827   1.702  1.4136 -1.8291  0.7598
15545TIP3   OH268125   3.270   2.757   1.338  0.2797 -1.0348 -0.5751
15545TIP3    H168126   3.189   2.803   1.318  0.9224  0.3393 -0.0560
15545TIP3    H268127   3.283   2.697   1.264 -1.3964 -1.5484 -0.4759
15546TIP3   OH268128   6.368   1.845   3.308  0.5173 -0.0111 -0.1822
15546TIP3    H168129   6.363   1.757   3.272  2.3766 -0.1897 -0.0531
15546TIP3    H268130   6.426   1.837   3.383  0.5876  1.3054 -0.0764
15547TIP3   OH268131   6.110   4.659   4.581 -0.1055  0.3750 -0.1233
15547TIP3    H168132   6.038   4.650   4.642 -1.0287  0.5392 -1.1678
15547TIP3    H268133   6.112   4.752   4.559 -0.7545  0.0878 -1.4774
15548TIP3   OH268134   2.701   3.622   2.212 -0.1687 -1.2805  0.2487
15548TIP3    H168135   2.741   3.601   2.297  0.7941 -0.7616 -0.0734
15548TIP3    H268136   2.704   3.717   2.207  1.9051 -1.3975 -1.3755
15549TIP3   OH268137   4.433   4.561   0.085  0.0761 -0.3383  0.1144
15549TIP3    H168138   4.433   4.640   0.139 -2.2828  0.9545 -1.6992
15549TIP3    H268139   4.517   4.562   0.041  1.2507 -0.4076  2.2844
15550TIP3   OH268140   1.637   4.810  14.105 -0.0550  0.4897 -0.5847
15550TIP3    H168141   1.580   4.739  14.074 -0.7918  0.1940  1.3884
15550TIP3    H268142   1.579   4.865  14.157  1.2367  0.7796  0.5621
15551TIP3   OH268143   0.934   3.477   1.014  0.0803  0.1950  0.1286
15551TIP3    H168144   0.951   3.394   1.059  0.0648 -0.4106 -0.9797
15551TIP3    H268145   0.844   3.470   0.982  0.0641  0.6583  0.0599
15552TIP3   OH268146   2.147   5.682  11.540 -0.0425  0.3002 -0.5195
15552TIP3    H168147   2.180   5.748  11.479  3.5081  0.1032  1.0817
15552TIP3    H268148   2.198   5.603  11.521 -0.3361 -0.3434  1.2907
15553TIP3   OH268149   0.494   0.578  10.858 -0.4064  0.5029 -0.1652
15553TIP3    H168150   0.409   0.539  10.882 -0.0874 -0.4408 -0.5223
15553TIP3    H268151   0.487   0.596  10.764  0.2667 -0.8631 -0.4907
15554TIP3   OH268152   0.662   0.225   0.372  0.3837  0.0360  0.3220
15554TIP3    H168153   0.576   0.187   0.357  0.6306 -0.5672  0.4236
15554TIP3    H268154   0.703   0.167   0.436  1.7545 -1.0483 -1.4639
15555TIP3   OH268155   4.470   1.541   5.367  0.7707  0.1003  0.1280
15555TIP3    H168156   4.509   1.454   5.353  2.1938  0.6638  0.4938
15555TIP3    H268157   4.378   1.522   5.388  0.9822 -1.3003 -0.1167
15556TIP3   OH268158   1.130   4.504  13.897  0.4587  0.3625 -0.4131
15556TIP3    H168159   1.176   4.421  13.912  1.9063  1.4392  1.1750
15556TIP3    H268160   1.049   4.495  13.948  1.0073  0.2578  0.4499
15557TIP3   OH268161   1.718   0.869   4.387  0.1173 -0.6342 -0.4333
15557TIP3    H168162   1.754   0.780   4.392 -1.6891 -1.3908 -0.2081
15557TIP3    H268163   1.628   0.856   4.356 -1.3025  0.7872  2.8386
15558TIP3   OH268164   1.522   3.505  11.560 -0.6885 -0.0878  0.4667
15558TIP3    H168165   1.487   3.508  11.649 -0.5793  1.5510  0.4587
15558TIP3    H268166   1.454   3.544  11.506 -0.3109 -0.1133 -0.0260
15559TIP3   OH268167   3.939   3.247   0.467 -0.2055  0.1670 -0.1641
15559TIP3    H168168   3.874   3.317   0.479  0.6949  1.0721 -0.4717
15559TIP3    H268169   3.901   3.171   0.512 -0.5888  1.2284  1.3604
15560TIP3   OH268170   6.132   4.619  16.551  0.1128  0.6428 -0.2243
15560TIP3    H168171   6.101   4.660  16.632  0.4344 -0.2048  0.3378
15560TIP3    H268172   6.146   4.527  16.575  1.0876  0.5824 -1.0084
15561TIP3   OH268173   3.910   6.367   1.274 -0.0231 -0.3358 -0.1443
15561TIP3    H168174   3.946   6.316   1.201 -1.2307 -2.2358  0.5719
15561TIP3    H268175   3.819   6.381   1.251 -1.0339 -2.8984  1.9885
15562TIP3   OH268176   3.535   1.745   0.627 -0.0158  0.0492  0.2377
15562TIP3    H168177   3.535   1.724   0.720  0.1182  0.0070  0.2290
15562TIP3    H268178   3.537   1.659   0.583 -2.9528 -0.0076  0.1678
15563TIP3   OH268179   4.187   3.651   4.947  0.3117 -0.7468  0.8641
15563TIP3    H168180   4.281   3.669   4.943 -0.6293  4.8914 -0.6522
15563TIP3    H268181   4.167   3.612   4.862  0.9451  0.5076  0.1025
15564TIP3   OH268182   2.278   5.834  10.918 -0.4644 -0.2635  0.1247
15564TIP3    H168183   2.262   5.772  10.848  0.5809 -2.0303  1.4158
15564TIP3    H268184   2.333   5.901  10.879  0.0622 -1.1964 -0.7544
15565TIP3   OH268185   3.879   4.059  14.180  0.1812 -0.1961  0.2588
15565TIP3    H168186   3.955   4.042  14.236  0.1351  1.0407  0.7167
15565TIP3    H268187   3.917   4.088  14.097  0.2232 -0.4922  0.1743
15566TIP3   OH268188   4.149   1.745  15.348 -0.6250  0.0886  0.2643
15566TIP3    H168189   4.119   1.830  15.316  1.1845 -0.0677 -2.0442
15566TIP3    H268190   4.072   1.689  15.345 -1.1715  0.8858 -1.1153
15567TIP3   OH268191   0.686   2.403  16.067  0.7786  0.4149 -0.2294
15567TIP3    H168192   0.781   2.404  16.075  0.7927 -0.3902 -0.2505
15567TIP3    H268193   0.664   2.487  16.028  1.3191  1.4173  1.5809
15568TIP3   OH268194   1.463   3.243   2.841 -0.4498  0.4199 -0.1242
15568TIP3    H168195   1.455   3.150   2.859  0.9422  0.2330 -0.4028
15568TIP3    H268196   1.428   3.254   2.752 -0.9372  0.2336  0.0417
15569TIP3   OH268197   5.986   4.406   1.205  0.2290  0.0867  0.0741
15569TIP3    H168198   5.996   4.332   1.145  0.6513 -1.2045  1.6791
15569TIP3    H268199   5.949   4.367   1.285 -0.9729  1.8695  0.4241
15570TIP3   OH268200   3.874   4.200   2.044  0.2482  0.4626 -0.1961
15570TIP3    H168201   3.877   4.123   2.101  0.1564 -0.0987 -0.9380
15570TIP3    H268202   3.828   4.266   2.095 -0.3668 -0.2260  0.1551
15571TIP3   OH268203   3.980   5.652  13.999  0.3478  0.1691  0.2670
15571TIP3    H168204   4.048   5.695  14.053 -0.6721  0.1028  1.6253
15571TIP3    H268205   3.975   5.563  14.034  0.3565 -0.1713 -0.5933
15572TIP3   OH268206   2.034   6.042   5.334 -0.0460 -0.2763 -0.0709
15572TIP3    H168207   2.087   6.042   5.413  0.0199 -1.8594 -0.0990
15572TIP3    H268208   1.944   6.039   5.365 -0.0104 -1.2523 -0.0524
15573TIP3   OH268209   2.405   1.094   5.395  0.0044  0.1734  0.2647
15573TIP3    H168210   2.454   1.175   5.383  1.5028 -0.7660 -0.0631
15573TIP3    H268211   2.437   1.058   5.478 -0.4737 -0.1950  0.2921
15574TIP3   OH268212   6.344   1.314  12.947  0.1904  0.2030 -0.4593
15574TIP3    H168213   6.285   1.342  12.877 -1.6868 -0.1929  0.9401
15574TIP3    H268214   6.307   1.231  12.979  1.5646 -0.1150  0.3709
15575TIP3   OH268215   5.736   6.088  13.204  0.4859 -0.0515  0.0058
15575TIP3    H168216   5.755   6.091  13.298 -0.8861  1.9749  0.2390
15575TIP3    H268217   5.657   6.035  13.198  1.0001 -0.8190 -0.0945
15576TIP3   OH268218   4.274   0.495  11.266 -0.0550 -0.2068  0.2920
15576TIP3    H168219   4.353   0.513  11.316  1.2840 -1.5379 -1.2741
15576TIP3    H268220   4.225   0.577  11.267  0.2660  0.0018  3.1374
15577TIP3   OH268221   2.994   1.499  14.698 -1.1286 -0.2926  0.5667
15577TIP3    H168222   2.931   1.474  14.629 -1.3757 -0.8753  0.9956
15577TIP3    H268223   3.036   1.417  14.722  2.7969  0.6195 -2.5797
15578TIP3   OH268224   6.634   0.883   5.985  0.3227  0.1063  0.1018
15578TIP3    H168225   6.553   0.929   6.003  0.3330  0.1485  0.0402
15578TIP3    H268226   6.673   0.868   6.071 -1.6553 -3.4400  0.4779
15579TIP3   OH268227   5.197   4.382  11.151  0.5034  0.1720  0.1201
15579TIP3    H168228   5.278   4.430  11.141  0.8028 -0.3169  0.1802
15579TIP3    H268229   5.213   4.299  11.106  0.5122 -0.4823  1.3191
15580TIP3   OH268230   0.923   0.882  15.979 -0.2952  0.1816 -0.1112
15580TIP3    H168231   0.901   0.811  15.919  0.0484  0.6618 -0.8172
15580TIP3    H268232   0.965   0.839  16.054  1.2705 -0.2316 -1.2159
15581TIP3   OH268233   4.884   4.856  11.438 -0.1239 -0.1321 -0.0560
15581TIP3    H168234   4.934   4.815  11.367  1.5382 -0.2266  1.1653
15581TIP3    H268235   4.873   4.947  11.410 -0.6944 -0.4920 -1.0695
15582TIP3   OH268236   1.237   0.113  14.615  0.1081 -0.1954 -0.1434
15582TIP3    H168237   1.291   0.061  14.675  0.9000  0.0489 -0.6443
15582TIP3    H268238   1.241   0.065  14.532 -0.4734 -0.1946 -0.1746
15583TIP3   OH268239   0.172   1.839   1.216  0.0476 -0.0393 -0.2415
15583TIP3    H168240   0.132   1.758   1.250 -0.4261  0.3956  0.2354
15583TIP3    H268241   0.263   1.833   1.242  0.2695 -0.9452 -1.1628
15584TIP3   OH268242   2.478   5.652  15.548 -0.0776  0.1059 -0.5627
15584TIP3    H168243   2.550   5.592  15.528 -1.1417 -1.3987  0.0061
15584TIP3    H268244   2.401   5.595  15.554 -0.8330  1.3050  1.6316
15585TIP3   OH268245   5.099   3.540   3.714  0.7305 -0.0929  0.2946
15585TIP3    H168246   5.103   3.623   3.762  0.6718 -0.6524  1.2780
15585TIP3    H268247   5.043   3.484   3.768  1.6150 -1.1146  0.1629
15586TIP3   OH268248   0.419   3.194   1.333  0.0479 -0.2072 -0.3768
15586TIP3    H168249   0.339   3.205   1.282  0.0002 -1.0869 -0.4834
15586TIP3    H268250   0.482   3.157   1.271 -0.2639 -2.1116  0.4187
15587TIP3   OH268251   1.685   0.031  14.846  0.2369 -0.6609 -0.7068
15587TIP3    H168252   1.709   0.118  14.877 -0.4770  0.3982 -3.0024
15587TIP3    H268253   1.758   0.005  14.790 -0.5012 -0.6424 -1.6868
15588TIP3   OH268254   2.469   0.317   3.528 -0.3052 -0.2417  0.2781
15588TIP3    H168255   2.380   0.352   3.522  0.4091  1.7854  1.2868
15588TIP3    H268256   2.520   0.371   3.468  1.0337  1.2467  2.6868
15589TIP3   OH268257   6.276   2.851  12.752 -0.7768  0.4420  0.1142
15589TIP3    H168258   6.329   2.931  12.760  1.5149 -1.0472  0.2231
15589TIP3    H268259   6.220   2.852  12.830  0.1227  1.3091  0.7651
15590TIP3   OH268260   6.482   3.655   2.082 -0.0468  0.2784 -0.1068
15590TIP3    H168261   6.527   3.587   2.032 -3.1887 -2.6609  0.8597
15590TIP3    H268262   6.416   3.690   2.021 -0.7979 -0.0750  0.4910
15591TIP3   OH268263   4.399   1.876  14.963  0.2187  0.3012 -0.0312
15591TIP3    H168264   4.436   1.922  14.888  2.9900 -0.1742  0.9846
15591TIP3    H268265   4.326   1.931  14.992  0.1619  1.3094 -2.0547
15592TIP3   OH268266   0.174   6.121  11.802  1.0012 -0.1223 -0.4367
15592TIP3    H168267   0.106   6.188  11.802  0.7387 -0.3884  0.4993
15592TIP3    H268268   0.161   6.074  11.719 -0.4497 -0.6582  0.0841
15593TIP3   OH268269   2.893   0.010   1.422  0.1820  0.1641  0.0537
15593TIP3    H168270   2.918   0.084   1.367  1.1526 -1.4556 -1.7696
15593TIP3    H268271   2.975  -0.025   1.455 -0.2951  0.1666  1.2557
15594TIP3   OH268272   2.551   5.073   5.491 -0.2522 -0.2791  0.1626
15594TIP3    H168273   2.632   5.107   5.529 -1.2703  4.0267 -1.1941
15594TIP3    H268274   2.498   5.047   5.566  0.6872  0.9964  1.2980
15595TIP3   OH268275   6.030   0.047   5.141 -0.2658 -0.0497  0.0795
15595TIP3    H168276   5.962   0.080   5.082  1.2804  3.5775  0.1964
15595TIP3    H268277   6.112   0.067   5.096  0.8860  0.9235  2.5277
15596TIP3   OH268278   4.866   2.311  15.055 -0.4597  0.2368 -0.2166
15596TIP3    H168279   4.880   2.340  14.965 -0.6273 -0.1076 -0.3538
15596TIP3    H268280   4.954   2.309  15.094 -0.3820  0.3327 -0.3866
15597TIP3   OH268281   3.464   0.421  13.784  0.2249  0.7013 -0.6052
15597TIP3    H168282   3.473   0.514  13.805 -0.1931  0.2442  1.6512
15597TIP3    H268283   3.475   0.376  13.867 -2.0419 -1.1410 -1.2454
15598TIP3   OH268284   1.014   4.263   2.231 -0.1961 -0.4402 -0.3388
15598TIP3    H168285   1.051   4.346   2.202  0.2630 -1.0981 -1.7137
15598TIP3    H268286   1.028   4.261   2.326  0.6887  0.6032 -0.4456
15599TIP3   OH268287   4.022   3.408  11.208  0.4917 -0.0849  0.4836
15599TIP3    H168288   4.094   3.346  11.216  1.1352  0.3506 -1.6599
15599TIP3    H268289   3.980   3.407  11.294  1.7444 -1.9387  1.1053
15600TIP3   OH268290   1.360   0.206   4.915  0.6567  0.5402 -0.1300
15600TIP3    H168291   1.302   0.166   4.851  0.0672  0.7981  0.2382
15600TIP3    H268292   1.449   0.189   4.882  0.4223 -1.1763  0.0997
15601TIP3   OH268293   6.614   4.091  15.749 -0.1838  0.2020 -0.0828
15601TIP3    H168294   6.520   4.073  15.741 -0.2746 -0.0963  1.4984
15601TIP3    H268295   6.619   4.177  15.791  0.2220 -0.4093  1.1595
15602TIP3   OH268296   1.857   0.934  12.593 -0.1908 -0.4351  0.1394
15602TIP3    H168297   1.928   0.945  12.657 -0.7931 -0.4530  0.8068
15602TIP3    H268298   1.781   0.908  12.645 -1.0625  0.9557 -0.4000
15603TIP3   OH268299   6.485   4.651  15.291 -0.2448 -0.6633 -0.8026
15603TIP3    H168300   6.505   4.705  15.214 -0.2746 -0.6211 -0.7814
15603TIP3    H268301   6.569   4.614  15.316 -0.4812 -1.8973 -1.7791
15604TIP3   OH268302   4.168   4.887   5.152 -0.2429  0.5701 -0.4214
15604TIP3    H168303   4.222   4.961   5.125 -0.0899  0.0491 -1.5918
15604TIP3    H268304   4.175   4.825   5.079 -0.4952 -0.5225  0.4719
15605TIP3   OH268305   1.873   5.378   4.706  0.0782  0.1439 -0.0614
15605TIP3    H168306   1.890   5.286   4.725 -0.3071 -0.1230 -0.9802
15605TIP3    H268307   1.785   5.379   4.669  0.0724  0.8885 -0.0344
15606TIP3   OH268308   1.761   3.471  13.385 -0.6927 -0.1640 -0.9093
15606TIP3    H168309   1.792   3.561  13.376 -1.3880  0.3323  1.3550
15606TIP3    H268310   1.669   3.474  13.357 -1.7462  0.6043  2.3679
15607TIP3   OH268311   0.417   3.377  17.063  0.3107 -0.0069 -0.1230
15607TIP3    H168312   0.355   3.313  17.098 -0.3280  1.9781  2.4824
15607TIP3    H268313   0.494   3.369  17.120  0.3550  1.2876  0.0116
15608TIP3   OH268314   0.698   3.464   3.848 -0.6461 -0.0044 -0.7469
15608TIP3    H168315   0.785   3.500   3.834 -0.9002  0.9185  0.0116
15608TIP3    H268316   0.668   3.504   3.930 -0.9887 -1.8150  0.0395
15609TIP3   OH268317   1.782   5.754  15.859 -0.1610 -0.1888 -0.3278
15609TIP3    H168318   1.713   5.688  15.868  0.9170 -1.2001  0.6931
15609TIP3    H268319   1.807   5.775  15.949  0.7230  0.3004 -0.6842
15610TIP3   OH268320   2.877   6.698  11.867  0.4616 -0.2939 -0.7440
15610TIP3    H168321   2.808   6.644  11.905  0.5312  0.6611  0.7779
15610TIP3    H268322   2.866   6.689  11.773  0.1385 -2.5401 -0.5234
15611TIP3   OH268323   3.462   2.786   0.321  0.1883  0.8541 -0.0656
15611TIP3    H168324   3.497   2.717   0.264 -0.1425  0.8989 -0.3215
15611TIP3    H268325   3.380   2.813   0.279 -0.3666  0.4566  0.7520
15612TIP3   OH268326   2.235   3.270   2.710 -0.2144 -0.0669  0.9138
15612TIP3    H168327   2.173   3.220   2.658  2.7790  0.5531 -3.5238
15612TIP3    H268328   2.199   3.359   2.711  0.0823  0.0875 -0.8407
15613TIP3   OH268329   3.646   0.328   3.062 -0.3082  0.3422  0.2660
15613TIP3    H168330   3.558   0.337   3.026 -0.1374 -2.3219 -0.9564
15613TIP3    H268331   3.695   0.402   3.027 -0.9842 -0.4618 -2.4503
15614TIP3   OH268332   1.871   3.932   4.960  0.4233  0.9325 -0.0597
15614TIP3    H168333   1.875   4.005   5.022 -0.5648  0.6080  0.3937
15614TIP3    H268334   1.823   3.967   4.885 -0.8432  0.4940  0.5296
15615TIP3   OH268335   6.345   5.908   6.046  0.4376  0.9674  0.5867
15615TIP3    H168336   6.308   5.945   5.966 -0.6382 -1.6674 -0.2003
15615TIP3    H268337   6.432   5.878   6.021 -0.5231 -1.3573 -0.0769
15616TIP3   OH268338   2.509   1.328   1.924  0.1393  0.0471 -0.2537
15616TIP3    H168339   2.508   1.423   1.931  0.4244  0.1220 -1.0897
15616TIP3    H268340   2.440   1.308   1.861 -0.5526 -0.3702  0.6312
15617TIP3   OH268341   5.223   0.756   4.010  0.0320 -0.2696  0.0491
15617TIP3    H168342   5.151   0.698   4.032 -0.2115 -0.4532 -1.2220
15617TIP3    H268343   5.184   0.844   4.008 -0.0007 -0.2847  0.0463
15618TIP3   OH268344   4.278   4.900   4.083  0.3724  0.5178  0.8424
15618TIP3    H168345   4.250   4.901   4.175  2.5563  3.4470  1.5876
15618TIP3    H268346   4.212   4.951   4.037 -0.6584 -0.8448  0.7837
15619TIP3   OH268347   2.773   4.602  14.497 -0.4314  0.2879  0.0207
15619TIP3    H168348   2.753   4.695  14.503 -0.6121  0.2060  0.7692
15619TIP3    H268349   2.726   4.562  14.570 -0.0230 -0.3335 -0.0449
15620TIP3   OH268350   3.313   0.666  11.570  0.3456 -0.1170  0.1545
15620TIP3    H168351   3.346   0.626  11.490 -1.9699 -0.8444 -0.4864
15620TIP3    H268352   3.309   0.593  11.633 -0.6358 -0.2012  0.0144
15621TIP3   OH268353   2.777   6.543  12.163 -0.3410  0.3558 -0.0533
15621TIP3    H168354   2.721   6.485  12.215 -0.9973  1.4590  0.4964
15621TIP3    H268355   2.750   6.631  12.188  3.2629  0.9853  2.0186
15622TIP3   OH268356   0.741   2.980   5.207 -0.2909  0.5345  0.6269
15622TIP3    H168357   0.692   2.990   5.125  0.5328  0.7648  0.1579
15622TIP3    H268358   0.833   2.987   5.181  0.0018 -0.0702  1.4733
15623TIP3   OH268359   5.071   1.495  16.301 -0.3357  0.1533  0.3498
15623TIP3    H168360   5.161   1.480  16.332 -0.8660  1.3730  2.6398
15623TIP3    H268361   5.030   1.408  16.303  0.5833 -0.2939 -0.0005
15624TIP3   OH268362   3.458   3.000  16.746 -0.5919 -0.8883  0.6139
15624TIP3    H168363   3.440   2.906  16.745 -1.3701 -0.7406 -1.0249
15624TIP3    H268364   3.532   3.011  16.686 -2.8655 -0.0540 -2.1957
15625TIP3   OH268365   6.512   0.811  13.679  0.2164  0.7156  0.8160
15625TIP3    H168366   6.554   0.860  13.609  0.2270 -1.0411 -0.4314
15625TIP3    H268367   6.537   0.857  13.759  2.5279  1.0925 -0.0987
15626TIP3   OH268368   4.526   1.017  13.443  0.3556  0.0218  0.4681
15626TIP3    H168369   4.464   1.016  13.516 -0.0243  0.7616  0.1582
15626TIP3    H268370   4.507   0.937  13.394  0.7677 -0.5939  1.3037
15627TIP3   OH268371   3.034   3.926  13.084 -0.0464 -0.3731  0.3684
15627TIP3    H168372   3.109   3.872  13.108  0.1819 -1.1070 -1.8156
15627TIP3    H268373   3.044   4.005  13.136  0.9082 -1.4610  1.8937
15628TIP3   OH268374   6.535   2.490  14.106  1.0052  0.5649  0.5504
15628TIP3    H168375   6.554   2.397  14.115 -1.9245 -0.0560  0.8569
15628TIP3    H268376   6.513   2.501  14.013 -1.6608  0.3087  1.1188
15629TIP3   OH268377   0.279   6.468   3.777 -0.2025  0.3908 -0.1604
15629TIP3    H168378   0.331   6.445   3.854 -0.2514 -0.0271 -0.2491
15629TIP3    H268379   0.315   6.551   3.748 -0.3640  0.6855  0.4745
15630TIP3   OH268380   0.185   3.137  12.599 -0.0251  0.0589 -0.1104
15630TIP3    H168381   0.249   3.107  12.535 -1.7228  3.6722 -3.7523
15630TIP3    H268382   0.213   3.226  12.621 -1.5497  0.1987  1.3794
15631TIP3   OH268383   2.028   6.647   1.964 -0.0043  0.5684 -0.0803
15631TIP3    H168384   2.085   6.699   1.907 -0.5444  0.9290 -0.3028
15631TIP3    H268385   1.943   6.646   1.918 -0.3613  0.6110  0.5718
15632TIP3   OH268386   1.551   1.925  13.281  0.3664 -0.7801  0.3752
15632TIP3    H168387   1.474   1.956  13.329  0.1010 -2.4647  1.0514
15632TIP3    H268388   1.571   1.840  13.319  1.8188 -0.9184 -0.6537
15633TIP3   OH268389   1.203   4.892   2.455  0.1559 -0.2643  0.4343
15633TIP3    H168390   1.293   4.869   2.481  0.2157  0.4637  0.8791
15633TIP3    H268391   1.150   4.873   2.532 -0.3354 -2.3055 -0.3884
15634TIP3   OH268392   3.764   4.934  13.546 -0.0496  0.4113  0.3758
15634TIP3    H168393   3.790   4.930  13.638 -3.3146 -1.0312  1.3010
15634TIP3    H268394   3.677   4.895  13.544 -0.3772  1.1661 -3.2266
15635TIP3   OH268395   0.520   6.610  13.575 -0.2815  0.3379 -0.4501
15635TIP3    H168396   0.553   6.521  13.566  1.6644  0.8531  1.2754
15635TIP3    H268397   0.567   6.660  13.509  1.7616  0.8871  1.3835
15636TIP3   OH268398   5.813   2.950   3.929 -0.6240 -0.1130  0.0505
15636TIP3    H168399   5.731   2.901   3.921  0.1109 -0.9778 -2.6299
15636TIP3    H268400   5.880   2.884   3.945 -0.1990  0.4227  0.5132
15637TIP3   OH268401   5.437   0.201   1.983  0.7396 -0.1429 -0.0390
15637TIP3    H168402   5.349   0.239   1.986  1.0171  0.4223  0.8084
15637TIP3    H268403   5.427   0.124   1.927 -0.7786 -1.3230  1.7943
15638TIP3   OH268404   5.989   4.096   1.608 -0.3452 -0.7298  0.2543
15638TIP3    H168405   5.924   4.103   1.677 -1.1260 -1.4157 -0.3988
15638TIP3    H268406   5.995   4.185   1.572  0.8659 -0.1195  1.8912
15639TIP3   OH268407   3.458   5.965  11.845 -0.6107 -0.1484  0.1107
15639TIP3    H168408   3.516   5.897  11.881 -0.5830  0.0286  0.4070
15639TIP3    H268409   3.372   5.945  11.883  0.1019  2.0512  3.0539
15640TIP3   OH268410   0.368   6.072  10.620 -0.2009 -0.2986  0.0322
15640TIP3    H168411   0.355   6.043  10.710  1.4739 -1.6254 -0.1326
15640TIP3    H268412   0.282   6.106  10.593 -1.0569 -1.0912  1.6817
15641TIP3   OH268413   0.958   2.947   1.778 -0.0651  0.2798 -0.2965
15641TIP3    H168414   0.910   3.010   1.833 -0.9487 -0.9150  0.3133
15641TIP3    H268415   0.960   2.989   1.692 -0.7648  1.0946  0.0674
15642TIP3   OH268416   5.989   4.471   1.558  0.5213  0.2147  0.0158
15642TIP3    H168417   5.986   4.534   1.631  2.9793  0.1805  0.1977
15642TIP3    H268418   6.014   4.523   1.482 -1.2696  0.1065 -0.6754
15643TIP3   OH268419   6.083   0.490   1.134 -0.3687  0.1830  0.1761
15643TIP3    H168420   6.043   0.555   1.076  0.7912 -0.9306 -1.9574
15643TIP3    H268421   6.175   0.487   1.106  0.3244 -0.0845  2.3854
15644TIP3   OH268422   0.643   5.391   5.031 -0.1833  0.1756 -0.8055
15644TIP3    H168423   0.662   5.482   5.009 -1.2366  0.6818  0.3279
15644TIP3    H268424   0.550   5.381   5.015  0.3532 -1.4237 -3.3044
15645TIP3   OH268425   5.624   1.312  16.356 -0.1557  0.0997 -0.1655
15645TIP3    H168426   5.710   1.296  16.317 -0.0758 -1.9149  0.7829
15645TIP3    H268427   5.642   1.354  16.440 -0.0395 -0.9327  0.3398
15646TIP3   OH268428   0.721   4.233  17.153 -0.6633 -0.1901  0.0138
15646TIP3    H168429   0.697   4.291  17.225 -2.1689 -0.6792 -0.0817
15646TIP3    H268430   0.805   4.267  17.122 -0.4828  0.6134  1.3594
15647TIP3   OH268431   4.228   5.907  15.026  0.5110  0.2837  0.1718
15647TIP3    H168432   4.176   5.888  15.104  0.4936 -0.6802 -0.0609
15647TIP3    H268433   4.218   5.828  14.972  2.1716  0.1185  0.1007
15648TIP3   OH268434   1.929   3.489  14.898 -0.1405  0.0469  0.4856
15648TIP3    H168435   1.876   3.453  14.971  0.0238 -2.6629 -0.6625
15648TIP3    H268436   2.012   3.513  14.939  0.3361 -2.4237  1.0548
15649TIP3   OH268437   1.510   2.146  12.033  0.5458  0.1741 -0.1480
15649TIP3    H168438   1.451   2.111  12.100  1.9726  0.2594  1.1735
15649TIP3    H268439   1.571   2.202  12.081  1.5860  0.2521 -1.5209
15650TIP3   OH268440   4.347   0.213  15.443 -0.4377 -0.2909 -0.6730
15650TIP3    H168441   4.356   0.246  15.354  0.6500  1.1621 -0.0491
15650TIP3    H268442   4.275   0.264  15.480 -2.1205 -2.1445 -1.2406
15651TIP3   OH268443   2.772   2.322  12.466 -0.4057 -0.1145 -0.2950
15651TIP3    H168444   2.829   2.370  12.406 -1.0590  0.2319 -0.6531
15651TIP3    H268445   2.715   2.270  12.408  1.1273 -2.3223  0.0970
15652TIP3   OH268446   6.778   5.687  14.902 -0.1336 -0.1409 -0.1885
15652TIP3    H168447   6.872   5.694  14.920 -0.2057 -0.9448  0.4876
15652TIP3    H268448   6.736   5.706  14.986 -0.5906  0.7027 -0.6056
15653TIP3   OH268449   5.474   3.524   6.298 -0.0078 -0.0778  0.2667
15653TIP3    H168450   5.438   3.612   6.295  1.4404  0.5021 -1.0762
15653TIP3    H268451   5.407   3.471   6.343 -1.8185  1.2489 -0.8277
15654TIP3   OH268452   2.534   6.644  11.549 -0.2266  0.1479  0.3619
15654TIP3    H168453   2.611   6.646  11.606  1.1528  0.2601 -1.4924
15654TIP3    H268454   2.513   6.551  11.540  0.6761  0.0105 -0.4234
15655TIP3   OH268455   4.530   0.307  14.063 -0.0161 -0.3185  0.1038
15655TIP3    H168456   4.598   0.367  14.031  0.8038 -2.5053 -2.3761
15655TIP3    H268457   4.576   0.250  14.124 -0.2482 -0.0458  0.5371
15656TIP3   OH268458   2.773   0.233  10.961 -0.0768 -0.7265 -0.0214
15656TIP3    H168459   2.720   0.170  11.010 -2.7844  1.1083 -0.5125
15656TIP3    H268460   2.748   0.219  10.870  0.8295 -0.3257 -0.3343
15657TIP3   OH268461   6.320   0.533  13.285  0.0403 -0.3620  0.0134
15657TIP3    H168462   6.411   0.546  13.259  0.4030 -0.5895  1.1226
15657TIP3    H268463   6.284   0.621  13.292  1.4911  0.0018  4.0620
15658TIP3   OH268464   5.001   5.348  12.717 -0.0455  0.4311  0.5280
15658TIP3    H168465   5.038   5.419  12.665  0.9023  0.6294  1.4579
15658TIP3    H268466   5.074   5.289  12.732 -1.1359 -1.4917 -1.4321
15659TIP3   OH268467   3.659   0.676  14.509  0.0475  0.0656  0.2406
15659TIP3    H168468   3.671   0.707  14.599  0.6976 -0.1456  0.2266
15659TIP3    H268469   3.746   0.645  14.482 -0.6336 -2.0633  0.3814
15660TIP3   OH268470   3.593   1.388  11.210 -0.3676 -0.0103  0.0998
15660TIP3    H168471   3.570   1.315  11.269  0.3889  0.7714  1.3966
15660TIP3    H268472   3.686   1.403  11.227 -0.4549  1.0754 -0.3678
15661TIP3   OH268473   4.183   1.125  12.199  0.2212  0.1252 -0.0045
15661TIP3    H168474   4.240   1.056  12.165 -0.9112 -0.8227  0.0244
15661TIP3    H268475   4.244   1.188  12.239  1.1250 -1.9128  1.9200
15662TIP3   OH268476   4.845   6.607  15.057  0.1309 -0.4859  0.7140
15662TIP3    H168477   4.760   6.637  15.088 -0.1716  2.0570 -2.3813
15662TIP3    H268478   4.907   6.670  15.093 -0.0024  1.2778 -2.0531
15663TIP3   OH268479   5.005   4.087  11.497 -0.0521  0.3919  0.0377
15663TIP3    H168480   4.968   4.034  11.567 -0.1506  0.3385 -0.0569
15663TIP3    H268481   5.067   4.146  11.542  0.4045 -0.1208  0.0821
15664TIP3   OH268482   1.045   0.732  15.623  0.5293 -0.1962  0.0663
15664TIP3    H168483   0.989   0.699  15.693  1.0335  0.1998  0.6701
15664TIP3    H268484   1.013   0.821  15.607 -1.2052 -1.1505 -1.9603
15665TIP3   OH268485   1.276   5.458   2.702  0.6249 -0.5169 -0.0224
15665TIP3    H168486   1.290   5.375   2.657 -0.5469 -1.5004  1.3629
15665TIP3    H268487   1.218   5.436   2.775 -1.2251  1.8629 -0.7227
15666TIP3   OH268488   5.279   4.699   0.478 -0.2565 -0.1055 -0.0059
15666TIP3    H168489   5.239   4.786   0.485  0.1140  0.0019  0.7884
15666TIP3    H268490   5.209   4.644   0.441 -1.0505  0.1437  1.1113
15667TIP3   OH268491   2.317   0.409   2.650  0.1006  0.2067 -0.4022
15667TIP3    H168492   2.348   0.487   2.697 -0.7312  0.9632 -1.0879
15667TIP3    H268493   2.366   0.411   2.567  1.0891 -0.7658  0.1469
15668TIP3   OH268494   4.083   4.444  13.646  0.0417 -0.9118  0.2016
15668TIP3    H168495   4.151   4.449  13.713  0.9915  1.4506 -0.9006
15668TIP3    H268496   4.130   4.448  13.563 -1.3421 -0.7674 -0.5951
15669TIP3   OH268497   0.026   5.543  11.604 -0.0498 -1.0817  0.3792
15669TIP3    H168498   0.110   5.570  11.641  0.4443  0.2077 -1.6749
15669TIP3    H268499  -0.034   5.613  11.628 -0.1574 -1.1689  0.3626
15670TIP3   OH268500   4.931   3.351   5.142  0.4696 -0.3967  0.1264
15670TIP3    H168501   4.968   3.414   5.203 -1.4441  1.2300 -0.3001
15670TIP3    H268502   4.962   3.380   5.056 -1.7760  1.0959 -0.2546
15671TIP3   OH268503   4.836   2.267  16.404 -0.5793 -0.0719 -0.3764
15671TIP3    H168504   4.876   2.290  16.320  0.5874 -0.4707  0.0580
15671TIP3    H268505   4.807   2.351  16.440 -2.7935 -0.0973 -2.0030
15672TIP3   OH268506   3.276   4.868   0.600 -0.0731 -0.4490  0.9898
15672TIP3    H168507   3.230   4.899   0.522  1.5144  0.2224  0.2841
15672TIP3    H268508   3.348   4.930   0.611 -0.1972 -0.6136  2.9269
15673TIP3   OH268509   5.978   1.251  10.777 -0.0609  0.4468  0.0752
15673TIP3    H168510   6.008   1.210  10.696  0.0517  3.6129 -1.5735
15673TIP3    H268511   5.890   1.282  10.757 -0.7893 -0.4523  1.8154
15674TIP3   OH268512   3.138   0.908  11.017 -0.5564  0.0871 -0.5685
15674TIP3    H168513   3.072   0.948  10.960 -1.8009 -0.1968  0.6400
15674TIP3    H268514   3.118   0.814  11.014 -0.6409  0.0795  0.3712
15675TIP3   OH268515   2.826   1.020   1.995 -0.1571  0.5860 -0.3767
15675TIP3    H168516   2.886   0.947   2.009 -0.9942 -0.0364 -0.0194
15675TIP3    H268517   2.836   1.042   1.903  0.8512  0.7014 -0.2514
15676TIP3   OH268518   5.523   4.639   1.793  0.0619 -0.1944  0.9959
15676TIP3    H168519   5.580   4.697   1.743  0.5575 -1.0188  0.5906
15676TIP3    H268520   5.474   4.697   1.851 -0.4883  0.7843 -0.4098
15677TIP3   OH268521   1.743   3.625   3.141  0.1428  0.6086 -0.0939
15677TIP3    H168522   1.819   3.583   3.182  0.7662  1.6612 -0.1460
15677TIP3    H268523   1.668   3.598   3.194  0.0429 -3.2509 -2.0116
15678TIP3   OH268524   3.705   3.131   5.991  0.2575 -0.0687 -0.1917
15678TIP3    H168525   3.688   3.141   6.085 -0.2578  2.3073 -0.4823
15678TIP3    H268526   3.794   3.096   5.985  0.2072 -0.4367  1.1849
15679TIP3   OH268527   0.525   4.952   0.119  0.5194  0.1777 -0.3781
15679TIP3    H168528   0.476   5.032   0.100  1.0567  0.6788  0.3133
15679TIP3    H268529   0.499   4.891   0.051 -1.8815  0.0799  0.5801
15680TIP3   OH268530   6.248   5.481   1.622  0.1695 -0.3264  0.0965
15680TIP3    H168531   6.300   5.404   1.645 -0.0081 -0.7928 -0.9910
15680TIP3    H268532   6.280   5.506   1.535 -0.6129  0.0898 -0.0802
15681TIP3   OH268533   5.034   2.819   3.430 -0.2294 -0.0835 -0.1820
15681TIP3    H168534   5.016   2.910   3.454  1.4181  0.5531 -1.2334
15681TIP3    H268535   4.962   2.795   3.371 -1.3849  0.0895  1.1361
15682TIP3   OH268536   4.499   3.658  15.903 -0.5920 -0.3641 -0.2015
15682TIP3    H168537   4.532   3.696  15.821  0.4777  0.8062  0.7589
15682TIP3    H268538   4.437   3.591  15.874  0.8275 -0.9542 -2.0056
15683TIP3   OH268539   5.811   4.257   0.161 -0.1990  0.5410 -0.2694
15683TIP3    H168540   5.906   4.257   0.170 -0.3229 -1.0251  1.4391
15683TIP3    H268541   5.779   4.286   0.247 -1.2573  2.1347 -1.1772
15684TIP3   OH268542   2.724   0.391  13.033 -0.2043  0.3715  0.4163
15684TIP3    H168543   2.788   0.320  13.019  0.4054  0.7729  1.1038
15684TIP3    H268544   2.776   0.471  13.025 -0.9630  0.7628 -0.7310
15685TIP3   OH268545   2.496   5.798   1.306  0.4840  0.5089  0.1280
15685TIP3    H168546   2.537   5.793   1.220  1.2496  0.9078  0.4616
15685TIP3    H268547   2.407   5.830   1.288  0.7558  0.9448 -0.4822
15686TIP3   OH268548   0.863   6.438  17.158 -0.0208  0.3647 -0.2963
15686TIP3    H168549   0.911   6.392  17.226  0.4244  0.5667 -0.4708
15686TIP3    H268550   0.930   6.466  17.095 -0.2045  1.7684  0.1094
15687TIP3   OH268551   0.681   5.688  16.715 -0.2553  0.8897 -0.5355
15687TIP3    H168552   0.768   5.714  16.746 -1.0675  1.3445  1.4303
15687TIP3    H268553   0.688   5.689  16.620  1.2134  3.2986 -0.4343
15688TIP3   OH268554   5.032   2.948  13.491  0.1847  0.2838 -0.5170
15688TIP3    H168555   5.123   2.962  13.518  0.5540  0.2653 -1.7583
15688TIP3    H268556   4.981   3.000  13.553  1.0950  1.0713 -0.4263
15689TIP3   OH268557   5.588   1.310  15.502 -0.1269  0.4107  0.3307
15689TIP3    H168558   5.657   1.244  15.501 -0.1225  0.4081  0.8694
15689TIP3    H268559   5.511   1.262  15.534 -0.7246  0.0684 -1.5504
15690TIP3   OH268560   0.493   3.604  16.253 -0.7896  0.5364 -0.1220
15690TIP3    H168561   0.561   3.654  16.299  0.5378 -1.8150  0.5570
15690TIP3    H268562   0.425   3.591  16.319 -0.1663 -0.3693  0.3628
15691TIP3   OH268563   4.043   5.922   4.684 -0.6466 -0.2008  0.1691
15691TIP3    H168564   3.986   5.965   4.748 -0.6651 -0.3774  0.2706
15691TIP3    H268565   4.081   5.848   4.731 -2.7861 -1.9715 -0.8021
15692TIP3   OH268566   5.142   5.530  16.566  0.1538 -0.7025 -0.6019
15692TIP3    H168567   5.052   5.544  16.536  0.5619  0.3225 -1.3765
15692TIP3    H268568   5.133   5.509  16.659 -0.7229  1.6780 -0.1280
15693TIP3   OH268569   4.052   0.818   6.074  0.1826 -0.5112  0.7631
15693TIP3    H168570   3.972   0.860   6.106 -0.2389 -0.3185 -0.5047
15693TIP3    H268571   4.031   0.725   6.069 -0.1000 -0.4177  0.0792
15694TIP3   OH268572   4.185   5.897   6.183  0.1302 -0.4946 -0.1202
15694TIP3    H168573   4.219   5.986   6.197  0.7434 -0.9402  1.3425
15694TIP3    H268574   4.262   5.840   6.190 -0.6296 -1.3603  1.5425
15695TIP3   OH268575   6.256   3.121   0.893  0.1691 -0.2276 -0.8345
15695TIP3    H168576   6.349   3.143   0.899 -0.2627  2.4836 -2.9896
15695TIP3    H268577   6.223   3.130   0.982  1.5622  0.8442 -0.4049
15696TIP3   OH268578   4.750   3.219  15.690  0.6957 -0.6594  0.2207
15696TIP3    H168579   4.677   3.158  15.687  1.1281 -1.1606 -0.2541
15696TIP3    H268580   4.824   3.170  15.654  0.7647  0.5128 -1.3091
15697TIP3   OH268581   1.583   6.656  13.426  0.4875  0.1675 -0.5517
15697TIP3    H168582   1.562   6.742  13.462  0.4366 -0.5568  1.2390
15697TIP3    H268583   1.521   6.643  13.354 -0.4071  1.0660  0.0445
15698TIP3   OH268584   2.130   6.302  16.007 -0.8207 -0.4444 -0.0755
15698TIP3    H168585   2.051   6.334  15.964  0.6770 -0.1219 -2.6886
15698TIP3    H268586   2.168   6.380  16.048  0.2442  0.2469 -2.2877
15699TIP3   OH268587   1.013   4.735   1.739  0.3850 -0.2417 -0.4119
15699TIP3    H168588   0.932   4.767   1.700  0.7206 -1.2003 -1.9440
15699TIP3    H268589   0.991   4.719   1.831 -1.4920 -1.6136 -1.0677
15700TIP3   OH268590   6.653   0.860  12.085 -0.1962  0.1452 -0.1725
15700TIP3    H168591   6.678   0.807  12.161  1.1962  0.7696 -0.1742
15700TIP3    H268592   6.650   0.798  12.012 -0.4639 -0.2629  0.1817
15701TIP3   OH268593   5.218   1.480  14.335  0.0399 -0.0111 -0.2724
15701TIP3    H168594   5.272   1.559  14.337 -1.9117  1.3435  0.3846
15701TIP3    H268595   5.229   1.441  14.421 -1.3346  1.1732  0.4480
15702TIP3   OH268596   3.671   4.376  11.772 -0.7518 -0.9292  0.3362
15702TIP3    H168597   3.694   4.469  11.776  4.4034 -2.1122  1.5742
15702TIP3    H268598   3.605   4.370  11.703 -0.7740  3.5494 -0.1364
15703TIP3   OH268599   2.397   5.466   2.536 -0.2345  0.6671  0.4592
15703TIP3    H168600   2.330   5.534   2.544 -0.1110  0.8729 -0.2481
15703TIP3    H268601   2.402   5.448   2.442 -1.1613 -1.2147  0.7496
15704TIP3   OH268602   2.333   4.478   4.745  0.2568  0.3026  0.4470
15704TIP3    H168603   2.278   4.524   4.682  1.3783  2.8857  1.2579
15704TIP3    H268604   2.271   4.426   4.797 -0.8288 -0.7202 -1.7718
15705TIP3   OH268605   4.579   2.394  12.808  0.1808 -0.6639 -0.4700
15705TIP3    H168606   4.558   2.310  12.848  1.5889 -0.1551  1.4516
15705TIP3    H268607   4.496   2.427  12.775 -1.3105 -0.6321  3.0702
15706TIP3   OH268608   6.431   1.952  14.583  0.1670 -0.2858 -0.1292
15706TIP3    H168609   6.481   2.034  14.586 -0.5472  0.1353  0.1643
15706TIP3    H268610   6.493   1.889  14.546  1.8268 -0.4102  2.6776
15707TIP3   OH268611   5.506   4.104   4.399  0.0706  0.3006 -0.3355
15707TIP3    H168612   5.452   4.110   4.477  0.0112 -0.9880 -0.2599
15707TIP3    H268613   5.559   4.184   4.399 -0.4576  0.6492  0.6189
15708TIP3   OH268614   5.934   0.818  13.516 -0.1718 -0.0574  0.6531
15708TIP3    H168615   5.959   0.726  13.524 -0.2062 -0.0533  0.8206
15708TIP3    H268616   5.941   0.852  13.605 -2.1254 -0.4036  0.9488
15709TIP3   OH268617   3.118   1.181  16.791 -0.3960  0.1195 -0.4099
15709TIP3    H168618   3.193   1.122  16.794 -0.4349  0.0211 -1.2621
15709TIP3    H268619   3.042   1.123  16.786 -0.6198  0.1909  1.8700
15710TIP3   OH268620   3.389   6.466  15.232 -0.0397 -0.3787  0.3034
15710TIP3    H168621   3.410   6.400  15.166  1.6349  0.2385  0.1778
15710TIP3    H268622   3.380   6.416  15.314  0.6961 -0.8371  0.1110
15711TIP3   OH268623   3.308   4.441  10.640 -0.3918  0.1326  0.4891
15711TIP3    H168624   3.320   4.533  10.615  0.0851  0.5159  2.0724
15711TIP3    H268625   3.385   4.421  10.694 -0.4420 -1.2297  0.0661
15712TIP3   OH268626   1.211   1.018  12.215  0.5058  0.3572 -0.3678
15712TIP3    H168627   1.156   0.994  12.289  2.0881 -1.2763  0.3249
15712TIP3    H268628   1.253   1.100  12.242 -1.0527  1.2852 -0.6529
15713TIP3   OH268629   6.383   4.965  12.268 -0.6796 -0.1577 -0.3662
15713TIP3    H168630   6.402   4.992  12.178  2.2448 -2.3531 -0.4926
15713TIP3    H268631   6.346   5.043  12.309  0.5580  1.7313 -2.7161
15714TIP3   OH268632   5.665   2.457  15.492  0.1721 -0.2029 -0.6068
15714TIP3    H168633   5.755   2.436  15.470  0.3832 -0.1006  0.1709
15714TIP3    H268634   5.661   2.553  15.493  0.5507 -0.1887  1.3579
15715TIP3   OH268635   6.396   4.047   1.255  0.1528  0.0285 -0.7476
15715TIP3    H168636   6.379   4.047   1.349  0.0646 -0.5577 -0.7619
15715TIP3    H268637   6.447   3.968   1.239  1.8755  1.1444 -0.8951
15716TIP3   OH268638   3.800   0.978   5.421  0.1470 -0.1874  0.1287
15716TIP3    H168639   3.768   1.009   5.506 -0.5719  0.0236 -0.2219
15716TIP3    H268640   3.867   0.913   5.443 -0.5614 -0.6708  0.8497
15717TIP3   OH268641   0.432   3.235   4.919 -0.4318  0.0039  0.4246
15717TIP3    H168642   0.390   3.247   4.834  1.5612 -0.7041 -0.7099
15717TIP3    H268643   0.460   3.323   4.945 -2.0318  0.3823  0.8959
15718TIP3   OH268644   6.362   3.609  13.083 -0.0274 -0.3385 -0.5045
15718TIP3    H168645   6.392   3.548  13.150 -3.7985 -1.3301  0.3777
15718TIP3    H268646   6.338   3.688  13.132 -1.1487 -0.4308 -0.9044
15719TIP3   OH268647   5.193   2.485   5.100  0.3482  0.4277 -0.7421
15719TIP3    H168648   5.222   2.455   5.014 -0.3877 -0.6581 -0.6134
15719TIP3    H268649   5.170   2.577   5.086  1.6305  0.6712 -1.3622
15720TIP3   OH268650   6.298   0.717  12.907  0.9546  0.2183 -0.3459
15720TIP3    H168651   6.320   0.728  12.815 -1.2595  3.5304 -0.6005
15720TIP3    H268652   6.204   0.736  12.911  1.2612  1.4658  2.7332
15721TIP3   OH268653   4.506   0.785  15.944  0.0046  0.2198  0.0958
15721TIP3    H168654   4.441   0.735  15.894  1.7959 -1.2456 -0.8449
15721TIP3    H268655   4.528   0.859  15.889 -2.3180  1.8416  1.2886
15722TIP3   OH268656   4.177   4.975  14.046 -0.4608 -0.0658 -0.3785
15722TIP3    H168657   4.245   4.921  14.086  0.3220  0.7027 -0.6760
15722TIP3    H268658   4.188   4.960  13.952  0.0973  1.0181 -0.4905
15723TIP3   OH268659   5.914   6.322  11.619  0.1680  0.9705  0.0127
15723TIP3    H168660   5.875   6.351  11.536 -0.1312 -0.7268 -0.4686
15723TIP3    H268661   5.994   6.276  11.592 -0.0102  0.2812  0.6548
15724TIP3   OH268662   4.849   1.314   4.352 -0.6851 -0.0874 -0.7855
15724TIP3    H168663   4.768   1.304   4.401  0.2419 -1.3915  0.5121
15724TIP3    H268664   4.873   1.225   4.326  1.7050 -0.0674  1.1372
15725TIP3   OH268665   1.686   4.891  16.135  0.2757  0.4427  0.0003
15725TIP3    H168666   1.667   4.916  16.045 -0.0041  0.8780  0.1807
15725TIP3    H268667   1.706   4.797  16.130 -0.2836  0.3410 -0.4373
15726TIP3   OH268668   3.529   6.543  11.633  0.1626  0.4125  0.4917
15726TIP3    H168669   3.490   6.560  11.718  0.0209  1.2594  0.2668
15726TIP3    H268670   3.617   6.581  11.639  0.3678 -0.0567  0.4601
15727TIP3   OH268671   4.584   6.040  13.488  0.8670  0.4669 -0.2991
15727TIP3    H168672   4.502   6.058  13.441  0.2966  1.4961  1.0486
15727TIP3    H268673   4.645   6.106  13.457  1.0738 -0.0712 -1.0357
15728TIP3   OH268674   0.715   2.944  16.432 -0.2830  0.7393 -0.1493
15728TIP3    H168675   0.786   2.908  16.485  0.0801 -0.2150 -1.2479
15728TIP3    H268676   0.755   3.017  16.384 -0.1332  0.4490 -0.4723
15729TIP3   OH268677   4.671   1.513  11.556  0.7319 -0.1459  0.0623
15729TIP3    H168678   4.672   1.603  11.589  0.2325  0.0634 -0.4843
15729TIP3    H268679   4.653   1.459  11.634 -0.0269  0.3128  0.2034
15730TIP3   OH268680   1.459   2.198   5.946 -0.6642  0.7815 -0.2904
15730TIP3    H168681   1.409   2.215   5.867  0.0014  0.6514 -0.7430
15730TIP3    H268682   1.542   2.243   5.933 -0.3447  0.3167  0.1015
15731TIP3   OH268683   6.500   6.515   5.932 -0.3086  0.1281  0.0019
15731TIP3    H168684   6.594   6.523   5.946 -0.3439 -2.7799  2.2829
15731TIP3    H268685   6.462   6.588   5.981  0.6345 -0.1266  1.1329
15732TIP3   OH268686   0.791   3.971   5.945  0.3624  0.2326  0.0114
15732TIP3    H168687   0.696   3.982   5.950  0.1927 -0.7290 -0.9360
15732TIP3    H268688   0.827   4.050   5.987 -0.8495  0.2969  0.9405
15733TIP3   OH268689   6.140   2.790   3.417 -0.7782  0.6374  0.3486
15733TIP3    H168690   6.054   2.759   3.445 -0.3438 -0.5788  0.3444
15733TIP3    H268691   6.158   2.742   3.336  0.1929  0.3997  0.7001
15734TIP3   OH268692   5.592   5.639  17.068 -0.6320  0.4257 -0.1492
15734TIP3    H168693   5.544   5.557  17.060  0.2121 -0.2286  1.3602
15734TIP3    H268694   5.601   5.653  17.163  2.0723  0.5784 -0.3868
15735TIP3   OH268695   1.592   5.840   0.422  0.0691  0.1578  0.2247
15735TIP3    H168696   1.581   5.747   0.441 -1.2163  0.1894 -0.3019
15735TIP3    H268697   1.687   5.853   0.420  0.2920 -1.4292 -1.0422
15736TIP3   OH268698   4.305   5.513  15.047 -0.2288  0.2805 -0.4104
15736TIP3    H168699   4.321   5.462  15.126  0.6588  0.9259 -0.1723
15736TIP3    H268700   4.213   5.537  15.052 -0.6188 -1.1316 -0.4285
15737TIP3   OH268701   5.730   2.095   2.234  0.0467  1.0460  0.1742
15737TIP3    H168702   5.818   2.110   2.268  0.6153  1.8258 -1.5800
15737TIP3    H268703   5.707   2.008   2.267  2.9408 -0.7814 -2.2665
15738TIP3   OH268704   4.120   5.262   3.367 -0.3316 -0.0334  0.6188
15738TIP3    H168705   4.207   5.290   3.338  0.9411 -2.7328  1.5868
15738TIP3    H268706   4.098   5.322   3.438  1.0226  0.3237  0.7626
15739TIP3   OH268707   2.056   6.015  12.410 -0.2414  0.1924  0.0270
15739TIP3    H168708   1.982   6.062  12.371 -1.2052 -1.0406  0.3139
15739TIP3    H268709   2.104   6.081  12.459  0.5711  1.6212 -2.6281
15740TIP3   OH268710   1.020   5.201  13.928 -0.9882  0.0758  0.4062
15740TIP3    H168711   1.111   5.183  13.952  0.2587  2.1727 -2.4550
15740TIP3    H268712   0.972   5.122  13.953  1.2230 -0.2389  3.9025
15741TIP3   OH268713   4.865   0.400  15.311 -0.2294 -0.5376 -0.2839
15741TIP3    H168714   4.899   0.485  15.283 -3.3643  0.1781 -2.1909
15741TIP3    H268715   4.942   0.348  15.330  1.8243  1.9308 -1.5899
15742TIP3   OH268716   1.722   1.660  13.765  0.1704 -0.5093  0.3290
15742TIP3    H168717   1.813   1.632  13.758  0.2114 -0.1305 -0.6965
15742TIP3    H268718   1.672   1.589  13.726  0.1456 -0.0072 -0.5736
15743TIP3   OH268719   3.632   0.670  16.826 -0.2570  0.3687  0.3316
15743TIP3    H168720   3.615   0.578  16.845  0.2917  0.1382 -0.2780
15743TIP3    H268721   3.562   0.718  16.871 -0.4683 -0.3370  0.7507
15744TIP3   OH268722   0.849   3.413  11.792  0.0512 -0.5512  0.1359
15744TIP3    H168723   0.815   3.329  11.823 -0.8648 -0.2171  0.0570
15744TIP3    H268724   0.774   3.472  11.795  1.0553  0.6792  1.6829
15745TIP3   OH268725   5.837   0.088   4.949  0.6839  0.3855  0.7390
15745TIP3    H168726   5.799   0.086   4.861  0.0453  0.3411  1.0147
15745TIP3    H268727   5.875   0.175   4.957  3.2193 -0.5343 -0.6181
15746TIP3   OH268728   5.080   4.320   5.626  0.2453  0.3145  0.4621
15746TIP3    H168729   5.008   4.323   5.688 -1.2308 -0.1307 -1.2050
15746TIP3    H268730   5.126   4.238   5.646 -1.3663 -0.7843 -0.2739
15747TIP3   OH268731   3.748   2.795  15.586  0.0499 -0.4912  0.0462
15747TIP3    H168732   3.737   2.716  15.640 -1.6580 -1.1990 -1.3145
15747TIP3    H268733   3.745   2.867  15.649  3.3381 -1.5420  1.5371
15748TIP3   OH268734   5.194   0.065  13.266  0.1035 -0.1657 -0.2065
15748TIP3    H168735   5.126   0.029  13.209  0.2391  1.2670 -1.2767
15748TIP3    H268736   5.180   0.020  13.350 -2.4373  0.3917 -0.2680
15749TIP3   OH268737   5.714   1.016  11.753 -0.0432  0.1005  0.0213
15749TIP3    H168738   5.707   1.000  11.659 -0.9918  0.0027  0.1007
15749TIP3    H268739   5.775   1.090  11.760  1.0570 -0.7402 -0.5795
15750TIP3   OH268740   3.631   5.674   2.194 -0.1711  0.1143  0.2120
15750TIP3    H168741   3.569   5.727   2.243 -0.0038 -0.0705  0.6261
15750TIP3    H268742   3.599   5.677   2.104 -0.3014  0.7128  0.2762
15751TIP3   OH268743   3.101   5.256   0.877  0.0544 -0.3509  0.5313
15751TIP3    H168744   3.065   5.303   0.952  2.0965  2.8902 -0.4139
15751TIP3    H268745   3.159   5.190   0.915 -0.3801  0.0185  1.8421
15752TIP3   OH268746   0.902   6.040   3.821 -0.0165  0.0332  0.5655
15752TIP3    H168747   0.932   6.105   3.884  1.0777  0.6059 -0.5370
15752TIP3    H268748   0.812   6.065   3.802 -0.0227  0.4557  1.1374
15753TIP3   OH268749   5.467   0.569  14.825  0.0325  0.2927 -0.2058
15753TIP3    H168750   5.475   0.507  14.752  1.0389  1.6449 -1.2823
15753TIP3    H268751   5.444   0.514  14.900 -1.2608 -1.1043 -1.5760
15754TIP3   OH268752   4.434   5.052   0.998  0.1984 -0.1593  0.2530
15754TIP3    H168753   4.349   5.027   0.962 -0.1398  0.1954  0.7924
15754TIP3    H268754   4.430   5.148   1.003  0.6163 -0.1441  0.3062
15755TIP3   OH268755   0.054   0.049  15.475  0.1411  0.0877  0.3101
15755TIP3    H168756   0.036  -0.030  15.527  0.6765  0.9235  1.7976
15755TIP3    H268757  -0.030   0.094  15.470 -0.0638 -0.3395 -0.1441
15756TIP3   OH268758   6.416   1.361   0.352  0.0780 -0.2775 -0.2237
15756TIP3    H168759   6.453   1.449   0.347  0.7477 -0.6109 -1.1430
15756TIP3    H268760   6.322   1.374   0.347 -0.0897  0.7269  3.8505
15757TIP3   OH268761   0.086   5.968  13.199  0.0293  0.2839  0.3081
15757TIP3    H168762   0.069   6.030  13.128 -0.3678  0.4734  0.5676
15757TIP3    H268763   0.095   6.023  13.277 -0.7758 -0.0158  0.6169
15758TIP3   OH268764   3.519   2.433  17.149 -0.1372  0.1142  0.0139
15758TIP3    H168765   3.430   2.398  17.140  0.4204 -0.6521 -2.8891
15758TIP3    H268766   3.511   2.524  17.122 -0.6694  1.0426  3.1023
15759TIP3   OH268767   5.131   3.740  15.943  0.0321  0.6156 -0.6871
15759TIP3    H168768   5.109   3.833  15.955 -0.3381  0.3944  0.3956
15759TIP3    H268769   5.049   3.699  15.915  0.1400  0.5690 -0.9345
15760TIP3   OH268770   0.639   3.820  16.410 -0.6578  0.1489 -0.6062
15760TIP3    H168771   0.690   3.759  16.464  0.3758  0.2699 -1.4243
15760TIP3    H268772   0.586   3.869  16.473  1.7858  1.4745  0.5231
15761TIP3   OH268773   5.767   0.193  15.605 -0.1403  0.3097 -0.1963
15761TIP3    H168774   5.750   0.111  15.559  1.7052  0.3377 -0.9496
15761TIP3    H268775   5.836   0.172  15.667 -0.2391  1.0962  0.1855
15762TIP3   OH268776   5.131   6.324   2.967 -0.1659 -0.0732 -0.4304
15762TIP3    H168777   5.143   6.335   2.873  1.1859  0.7771 -0.1851
15762TIP3    H268778   5.040   6.348   2.983 -0.1234  0.7586 -1.3928
15763TIP3   OH268779   2.322   0.396   5.551 -0.5828 -0.6094  0.1979
15763TIP3    H168780   2.253   0.352   5.600  0.1773 -1.9492  0.0878
15763TIP3    H268781   2.310   0.489   5.572 -0.0667 -1.1672  3.2524
15764TIP3   OH268782   0.767   3.403  16.898  0.3861  0.4071  0.1359
15764TIP3    H168783   0.742   3.476  16.955  0.9839  0.1098  0.7929
15764TIP3    H268784   0.839   3.438  16.845  0.4352  0.4113  0.2052
15765TIP3   OH268785   2.282   2.152   0.365 -0.9071 -0.0988  0.6350
15765TIP3    H168786   2.355   2.094   0.347 -0.1901  0.3119  2.1325
15765TIP3    H268787   2.282   2.214   0.292  0.2709 -0.0712  0.6463
15766TIP3   OH268788   4.573   5.899  15.657  0.4389  0.1579  0.0188
15766TIP3    H168789   4.579   5.817  15.608 -0.2564  0.2184 -0.1686
15766TIP3    H268790   4.486   5.932  15.638  0.5348  0.6914  0.4948
15767TIP3   OH268791   2.365   3.796   0.612 -0.0253  0.2185 -0.9990
15767TIP3    H168792   2.425   3.753   0.552  0.9551 -0.3620  0.3717
15767TIP3    H268793   2.338   3.876   0.567  2.6313  1.0410 -1.1676
15768TIP3   OH268794   0.136   4.951   1.757 -0.2742 -0.5296  0.0121
15768TIP3    H168795   0.215   4.992   1.791  0.4300 -1.7233 -0.1678
15768TIP3    H268796   0.141   4.860   1.787 -0.7443 -1.0357 -1.4114
15769TIP3   OH268797   0.577   3.078   3.360 -0.2453 -0.2008  0.1264
15769TIP3    H168798   0.555   3.109   3.273 -1.0119 -0.5074  0.2087
15769TIP3    H268799   0.673   3.071   3.360 -0.1217  1.3281 -0.1643
15770TIP3   OH268800   1.543   1.152  14.543 -0.2785  0.6904  0.4676
15770TIP3    H168801   1.462   1.101  14.536  0.3723 -0.6146  2.0884
15770TIP3    H268802   1.568   1.169  14.452 -1.4330 -0.4157 -0.0811
15771TIP3   OH268803   5.310   6.080   1.934 -0.0027 -0.3118 -0.2706
15771TIP3    H168804   5.258   6.149   1.892 -1.0558  0.2374  1.9012
15771TIP3    H268805   5.247   6.010   1.949  0.0578  0.0179  1.5818
15772TIP3   OH268806   3.214   1.264  10.324 -0.0634  0.1527  0.4023
15772TIP3    H168807   3.129   1.279  10.282  0.1103 -0.8013 -0.3247
15772TIP3    H268808   3.235   1.346  10.367 -1.2474  0.4705  0.3757
15773TIP3   OH268809   4.333   5.849   4.540  0.5601  0.1898 -0.2738
15773TIP3    H168810   4.280   5.769   4.539 -0.3730  0.7957  0.1446
15773TIP3    H268811   4.322   5.887   4.453  2.5276 -1.1129 -1.1192
15774TIP3   OH268812   0.403   6.633  15.974 -0.4041 -1.3342  0.3678
15774TIP3    H168813   0.398   6.629  15.879 -1.6850 -1.9637  0.4454
15774TIP3    H268814   0.496   6.621  15.994 -0.1516 -1.3643 -0.7905
15775TIP3   OH268815   6.794   1.665   0.520  0.9366  0.0164  0.0884
15775TIP3    H168816   6.833   1.616   0.593  1.9945 -0.5789 -0.8505
15775TIP3    H268817   6.796   1.756   0.548  2.8583 -0.0266  0.1349
15776TIP3   OH268818   2.680   4.252   4.627 -0.4861 -0.5402 -0.6577
15776TIP3    H168819   2.751   4.196   4.595 -1.2157 -0.0905 -3.2274
15776TIP3    H268820   2.700   4.339   4.592 -1.9426 -0.2736 -0.8700
15777TIP3   OH268821   4.158   6.196  14.057 -0.3490  0.8332 -0.1661
15777TIP3    H168822   4.129   6.131  14.121 -1.0445  0.4050 -0.9109
15777TIP3    H268823   4.078   6.238  14.027  0.1025  2.1951  0.4549
15778TIP3   OH268824   0.405   6.412   3.426 -0.7891 -0.0082  0.2500
15778TIP3    H168825   0.320   6.435   3.389  0.6737  2.1196 -1.9163
15778TIP3    H268826   0.399   6.439   3.518 -1.7899  1.9950 -0.3684
15779TIP3   OH268827   1.606   2.897   1.149 -0.4733  0.7867 -0.1142
15779TIP3    H168828   1.692   2.855   1.140  0.5006  2.2828  1.8392
15779TIP3    H268829   1.616   2.983   1.109 -1.2159  0.8049 -0.2782
15780TIP3   OH268830   4.064   1.414   3.338 -0.1994 -0.1740  0.3860
15780TIP3    H168831   4.113   1.346   3.384  0.7603  1.0265  1.1752
15780TIP3    H268832   4.034   1.473   3.407  0.1442  0.9323 -0.3908
15781TIP3   OH268833   1.038   2.077  16.628 -0.4650  0.1953  0.8402
15781TIP3    H168834   1.009   2.129  16.553 -0.1642  0.3282  0.8150
15781TIP3    H268835   1.131   2.059  16.610 -0.6231 -0.5175  0.7519
15782TIP3   OH268836   1.297   3.704   5.869 -0.1010  0.0834  0.8487
15782TIP3    H168837   1.369   3.767   5.867  0.7591 -0.8925 -2.1029
15782TIP3    H268838   1.225   3.751   5.911  0.9684  2.5438  0.0517
15783TIP3   OH268839   3.867   0.599  13.488 -0.6567  0.0131  0.2322
15783TIP3    H168840   3.839   0.573  13.575 -1.9402 -1.9114 -0.7272
15783TIP3    H268841   3.811   0.550  13.428 -0.0677  1.5887 -1.6897
15784TIP3   OH268842   5.482   3.390  12.059 -0.2153  0.8383 -0.3378
15784TIP3    H168843   5.527   3.426  11.983  1.2404 -0.0192  0.0942
15784TIP3    H268844   5.550   3.346  12.109 -0.6372  3.4312  2.7405
15785TIP3   OH268845   3.861   2.961   0.567 -0.2092  0.0074  0.2149
15785TIP3    H168846   3.793   2.936   0.504 -0.3255  1.9148 -0.4424
15785TIP3    H268847   3.943   2.957   0.517  0.0419 -1.1500  0.6958
15786TIP3   OH268848   6.793   5.351  12.369 -0.1340  0.0137 -0.1972
15786TIP3    H168849   6.807   5.293  12.444  1.7479 -2.1221 -2.1473
15786TIP3    H268850   6.715   5.401  12.393 -1.1191 -2.4686  2.0614
15787TIP3   OH268851   3.618   4.916   6.856  0.5024 -0.3084 -0.2243
15787TIP3    H168852   3.655   4.972   6.924 -0.3472  0.3431 -0.2886
15787TIP3    H268853   3.670   4.935   6.778 -0.7634  1.5628 -0.6457
15788TIP3   OH268854   4.168   6.667   2.661  0.7938 -0.2218  0.7033
15788TIP3    H168855   4.231   6.614   2.710 -0.7826 -2.2786  0.5831
15788TIP3    H268856   4.093   6.608   2.646 -0.2800  1.4982 -0.9771
15789TIP3   OH268857   2.273   5.623  12.436  0.1695 -0.0249  0.7009
15789TIP3    H168858   2.233   5.663  12.358  2.8549  0.0206 -0.7130
15789TIP3    H268859   2.306   5.697  12.486  0.4249 -0.1890  0.7733
15790TIP3   OH268860   6.705   1.920  12.628 -0.2627  0.2228  0.7094
15790TIP3    H168861   6.707   2.013  12.605 -1.0615 -0.1818 -1.0913
15790TIP3    H268862   6.710   1.875  12.544 -1.2392 -1.3545  1.4778
15791TIP3   OH268863   2.407   2.569  15.689  0.1299  0.3283 -0.2990
15791TIP3    H168864   2.500   2.569  15.669  0.3245  2.1262  0.4975
15791TIP3    H268865   2.367   2.620  15.619 -0.0683  0.7348  0.1039
15792TIP3   OH268866   4.565   3.752  14.604 -0.0834  0.4633 -0.4596
15792TIP3    H168867   4.602   3.701  14.532 -0.1872 -1.2593  0.6790
15792TIP3    H268868   4.642   3.786  14.651 -0.0085  3.0357 -2.3296
15793TIP3   OH268869   1.419   1.895   1.048  0.0806 -0.2119  0.0033
15793TIP3    H168870   1.497   1.882   1.102  0.8369  1.2751 -0.7001
15793TIP3    H268871   1.433   1.979   1.004 -2.3551  0.5701  0.6012
15794TIP3   OH268872   5.624   4.579  11.970  0.0942 -1.0822 -0.3995
15794TIP3    H168873   5.643   4.577  12.063 -0.1702 -1.5253 -0.3512
15794TIP3    H268874   5.652   4.665  11.941 -0.1743 -0.8021  0.1672
15795TIP3   OH268875   4.068   6.580   0.048  0.0957 -0.2342  0.1797
15795TIP3    H168876   4.120   6.659   0.028  1.5972 -1.0528  0.8024
15795TIP3    H268877   4.027   6.558  -0.036  1.6727 -0.2317 -0.6208
15796TIP3   OH268878   2.152   3.056   1.462 -0.7167  0.3487  0.2647
15796TIP3    H168879   2.066   3.063   1.420 -0.7074  2.3728  0.5545
15796TIP3    H268880   2.150   2.970   1.503 -1.7481 -0.5736 -1.5967
15797TIP3   OH268881   5.829   0.984   1.061  0.3745 -0.1025  0.5861
15797TIP3    H168882   5.857   0.960   0.973 -0.2870 -1.6072  0.7819
15797TIP3    H268883   5.868   1.071   1.075  1.0519 -0.1452 -0.9130
15798TIP3   OH268884   0.526   1.628   2.109 -0.3432  0.7395 -0.5140
15798TIP3    H168885   0.497   1.570   2.039 -1.2201  0.0120  0.4487
15798TIP3    H268886   0.491   1.714   2.085 -1.3972  0.3127 -0.5025
15799TIP3   OH268887   4.960   3.835   0.849 -0.2044 -0.1872 -0.2412
15799TIP3    H168888   5.016   3.892   0.796 -0.0511  0.9226  1.0811
15799TIP3    H268889   4.986   3.854   0.939 -0.1985 -2.3133  0.2342
15800TIP3   OH268890   2.716   6.016   3.227  0.4997  0.6752 -0.2009
15800TIP3    H168891   2.795   5.986   3.272 -0.6870  0.5275  1.8268
15800TIP3    H268892   2.694   6.098   3.271 -0.7898  0.4368 -0.3912
15801TIP3   OH268893   0.885   2.243  15.635  0.3549 -0.0424  0.1040
15801TIP3    H168894   0.827   2.319  15.638  0.5861  0.2683 -2.1827
15801TIP3    H268895   0.848   2.188  15.566 -0.3656 -2.4946  2.3741
15802TIP3   OH268896   3.907   2.014   3.882 -0.2184  0.2592  0.3562
15802TIP3    H168897   3.944   1.987   3.966  0.0804 -1.3551 -0.2732
15802TIP3    H268898   3.864   2.098   3.900 -0.0778 -0.0309  2.0893
15803TIP3   OH268899   4.227   4.577   3.843  0.3717 -0.0587  0.4589
15803TIP3    H168900   4.239   4.578   3.748  1.0544  0.4018  0.5485
15803TIP3    H268901   4.216   4.669   3.867  0.2737 -0.1673  0.8396
15804TIP3   OH268902   3.106   2.335  10.824  0.3777 -0.1397 -0.0622
15804TIP3    H168903   3.042   2.405  10.810  3.4727  2.7468 -0.4270
15804TIP3    H268904   3.166   2.371  10.889  1.9100 -2.5688 -0.1035
15805TIP3   OH268905   6.234   0.426  11.297  0.3533  0.5391  0.2254
15805TIP3    H168906   6.152   0.447  11.252  0.7155 -0.3489 -0.8613
15805TIP3    H268907   6.268   0.349  11.252  1.3707  0.3934  1.2091
15806TIP3   OH268908   0.073   3.314  11.585 -0.1545 -0.3058 -0.1803
15806TIP3    H168909   0.161   3.342  11.560 -0.5552 -1.5683 -3.1836
15806TIP3    H268910   0.021   3.394  11.581  0.4446  0.0889 -0.2641
15807TIP3   OH268911   1.897   3.239   4.951  0.0036 -0.3364 -0.5422
15807TIP3    H168912   1.924   3.315   5.003 -1.3292  0.9329 -1.6370
15807TIP3    H268913   1.866   3.176   5.016  1.2794 -0.0277  0.3983
15808TIP3   OH268914   1.274   3.772   1.358 -0.3277 -0.2916 -0.0438
15808TIP3    H168915   1.271   3.682   1.325 -0.2100 -0.4983  0.5045
15808TIP3    H268916   1.362   3.781   1.396 -0.9801 -0.5644  1.5999
15809TIP3   OH268917   6.384   3.524  14.178 -0.0678  0.4133 -0.2704
15809TIP3    H168918   6.410   3.568  14.097  1.5733  0.3037  0.1852
15809TIP3    H268919   6.288   3.519  14.172  0.0558 -0.0524 -2.4432
15810TIP3   OH268920   5.820   0.017  11.458  0.4868 -0.2208 -0.0833
15810TIP3    H168921   5.912   0.042  11.466  0.4252  0.1864 -0.5909
15810TIP3    H268922   5.790   0.062  11.379 -0.0022 -0.8036 -0.2292
15811TIP3   OH268923   3.936   0.872  12.224 -0.0599 -0.0691 -0.5890
15811TIP3    H168924   3.858   0.920  12.252 -0.2432 -0.2403 -0.8036
15811TIP3    H268925   3.991   0.938  12.181  1.3320  0.7320  2.3182
15812TIP3   OH268926   5.668   2.626   6.684  0.4841 -0.0217  0.5147
15812TIP3    H168927   5.596   2.670   6.728 -0.9067 -1.0339 -0.7071
15812TIP3    H268928   5.745   2.648   6.736 -0.8045  0.4756  2.2507
15813TIP3   OH268929   6.069   0.638  11.607 -0.2891 -0.2094 -0.2139
15813TIP3    H168930   5.990   0.632  11.554 -0.8914  0.6432  0.5690
15813TIP3    H268931   6.139   0.656  11.544 -0.8948  0.1258 -0.7983
15814TIP3   OH268932   2.217   0.785   2.958 -0.7207  0.2194  0.3330
15814TIP3    H168933   2.147   0.743   3.009 -0.2656 -0.6295  0.2657
15814TIP3    H268934   2.186   0.780   2.867 -0.7390  0.1675  0.3420
15815TIP3   OH268935   6.568   3.521  16.633  0.2517 -0.2872 -0.4128
15815TIP3    H168936   6.639   3.537  16.570 -0.7611  1.0653 -1.2292
15815TIP3    H268937   6.601   3.557  16.715  0.4162  0.5779 -0.8510
15816TIP3   OH268938   1.927   0.901   0.871 -0.5819 -0.2324 -0.6650
15816TIP3    H168939   1.961   0.989   0.883 -0.5089 -0.3380 -0.0468
15816TIP3    H268940   1.834   0.908   0.892 -0.3897 -0.4846  0.3184
15817TIP3   OH268941   4.452   1.129  11.797  0.2679  0.4908 -0.1389
15817TIP3    H168942   4.435   1.209  11.747 -1.1250  0.9788  1.0483
15817TIP3    H268943   4.365   1.093  11.813  0.9017 -1.3792 -0.8196
15818TIP3   OH268944   3.504   6.591  14.943  0.5303  0.2998 -0.2177
15818TIP3    H168945   3.518   6.611  15.035 -0.4619 -0.3601  0.0866
15818TIP3    H268946   3.445   6.515  14.943 -0.7339  1.2510 -1.3982
15819TIP3   OH268947   4.083   0.618  12.165 -0.3350  0.0485  0.0099
15819TIP3    H168948   4.030   0.694  12.190  0.6562  0.5199  0.6839
15819TIP3    H268949   4.151   0.612  12.231  0.8698 -0.1507 -1.2179
15820TIP3   OH268950   1.754   3.049   5.116 -0.2623 -0.1980 -0.8831
15820TIP3    H168951   1.758   3.022   5.208 -0.9752  0.3610 -0.6930
15820TIP3    H268952   1.661   3.063   5.099 -0.0214  0.8703 -1.3535
15821TIP3   OH268953   0.483   4.549  16.826 -0.0894 -0.5517  0.0437
15821TIP3    H168954   0.547   4.603  16.779 -0.0030 -0.1095  0.6672
15821TIP3    H268955   0.408   4.543  16.767 -0.7564  1.6009  0.6261
15822TIP3   OH268956   0.316   2.236  12.092 -0.0498  0.4798 -0.1696
15822TIP3    H168957   0.239   2.294  12.094  0.3955  1.0723 -0.0900
15822TIP3    H268958   0.290   2.164  12.034  0.4096  2.2066 -2.5775
15823TIP3   OH268959   0.574   1.447  12.074 -0.1605 -0.0699 -0.2067
15823TIP3    H168960   0.613   1.495  12.001 -0.5686 -0.4634 -0.6896
15823TIP3    H268961   0.641   1.447  12.142  0.3990 -0.1017 -0.7563
15824TIP3   OH268962   1.045   0.749  11.673 -0.4762  0.1621  0.4306
15824TIP3    H168963   1.017   0.771  11.585  0.5648 -0.3747 -0.0468
15824TIP3    H268964   0.967   0.715  11.716 -0.7081 -0.7418 -0.6838
15825TIP3   OH268965   1.634   4.167  16.018 -0.0212  0.2044 -0.0265
15825TIP3    H168966   1.719   4.199  16.049  0.9429 -1.7902 -0.5583
15825TIP3    H268967   1.627   4.078  16.052 -0.3597 -0.8977 -2.8492
15826TIP3   OH268968   1.768   5.060  17.063  0.1429  0.1633 -0.5190
15826TIP3    H168969   1.820   5.001  17.008 -1.3940  0.0403 -1.8750
15826TIP3    H268970   1.718   5.001  17.121 -0.0656  0.1940 -0.6642
15827TIP3   OH268971   3.796   6.618  15.719  0.2488 -0.0002  0.3786
15827TIP3    H168972   3.718   6.583  15.763 -0.0110  0.2926  0.1572
15827TIP3    H268973   3.784   6.713  15.721  0.5619  0.0409  0.2762
15828TIP3   OH268974   1.998   1.692   0.507  0.1142 -0.0134  0.9249
15828TIP3    H168975   2.034   1.633   0.441  1.6217  0.7455  1.0639
15828TIP3    H268976   1.905   1.700   0.482  0.2594 -1.1146 -0.0614
15829TIP3   OH268977   2.351   4.480   1.152 -0.2287  0.3079 -0.8310
15829TIP3    H168978   2.395   4.396   1.140 -0.4086  0.0786  0.0437
15829TIP3    H268979   2.290   4.464   1.224  0.0424  1.3061 -0.3745
15830TIP3   OH268980   5.402   4.806   1.492 -0.0764  0.5081  0.5056
15830TIP3    H168981   5.411   4.798   1.397  2.9633  1.4091  0.6495
15830TIP3    H268982   5.338   4.739   1.516  2.1407 -2.5945 -1.7161
15831TIP3   OH268983   2.755   4.024   1.475  0.7503  0.3228 -0.1115
15831TIP3    H168984   2.676   4.077   1.471  0.3367 -0.0643  2.2281
15831TIP3    H268985   2.776   4.005   1.383 -1.8417  0.4211 -0.7563
15832TIP3   OH268986   3.833   0.879  15.401 -0.0392  0.2771 -0.4058
15832TIP3    H168987   3.876   0.884  15.316  0.0448 -0.4277 -0.4086
15832TIP3    H268988   3.791   0.964  15.412 -0.9972 -0.0190 -1.6513
15833TIP3   OH268989   5.040   2.662   2.572 -0.3710 -0.2061  0.1440
15833TIP3    H168990   5.070   2.577   2.540  0.9235  0.0750  0.6050
15833TIP3    H268991   5.118   2.717   2.571 -1.4703  1.3944 -1.4549
15834TIP3   OH268992   4.412   1.203   3.824 -0.0393  0.3521 -0.2957
15834TIP3    H168993   4.480   1.198   3.757  1.8698  1.5323  1.4821
15834TIP3    H268994   4.392   1.111   3.844  2.0199 -0.0505  0.0843
15835TIP3   OH268995   6.252   6.671   3.113  0.1138  0.4154  0.6366
15835TIP3    H168996   6.260   6.713   3.199  1.0802  2.5923 -0.4614
15835TIP3    H268997   6.326   6.610   3.110 -1.1872 -1.2693  2.1803
15836TIP3   OH268998   1.823   0.584   5.352 -0.5779  0.0748  0.0640
15836TIP3    H168999   1.795   0.672   5.328 -1.0748 -0.0660  0.1337
15836TIP3    H269000   1.808   0.578   5.446 -0.0074  0.1136  0.1604
15837TIP3   OH269001   5.191   1.247  13.837 -0.5941  0.9242 -0.3920
15837TIP3    H169002   5.100   1.244  13.868 -1.5032  1.3618 -2.9169
15837TIP3    H269003   5.194   1.184  13.766  1.9278 -1.3859  1.6525
15838TIP3   OH269004   3.534   1.193  13.310  0.2938 -0.2578  1.0571
15838TIP3    H169005   3.612   1.213  13.259  0.3858  0.7464  1.5707
15838TIP3    H269006   3.462   1.193  13.247  0.8848 -2.6952  0.3172
15839TIP3   OH269007   4.138   6.319   0.168 -0.2007 -0.4033  0.1988
15839TIP3    H169008   4.119   6.237   0.124 -1.1423 -0.2036  0.2250
15839TIP3    H269009   4.116   6.387   0.104 -1.0652 -0.1293  0.7696
15840TIP3   OH269010   1.435   4.707  14.399  0.4347  0.7950 -0.0703
15840TIP3    H169011   1.448   4.792  14.356 -1.4103  1.7551  1.1771
15840TIP3    H269012   1.445   4.643  14.329  1.3836  2.0570 -1.1308
15841TIP3   OH269013   1.615   0.919   5.826 -0.6094 -0.3165 -0.0197
15841TIP3    H169014   1.654   0.986   5.883 -0.2957  0.4174 -1.0742
15841TIP3    H269015   1.682   0.902   5.760 -0.9907 -1.1094 -0.2034
15842TIP3   OH269016   1.397   1.576   5.622  0.3828 -0.1119 -0.2396
15842TIP3    H169017   1.457   1.582   5.547  0.0955  2.9835 -0.3199
15842TIP3    H269018   1.455   1.558   5.697  1.2643  1.2683 -0.5595
15843TIP3   OH269019   3.429   5.361  12.353 -0.4409  0.2337  0.2591
15843TIP3    H169020   3.468   5.290  12.302 -1.2257  0.6178 -0.8964
15843TIP3    H269021   3.459   5.441  12.311 -1.1394  0.5574  0.3595
15844TIP3   OH269022   0.911   3.550   4.370 -0.2072  0.4259  0.2297
15844TIP3    H169023   0.986   3.524   4.423 -0.0031 -2.2254 -1.2965
15844TIP3    H269024   0.949   3.583   4.288 -0.6098  2.4572  0.8184
15845TIP3   OH269025   5.867   5.657  17.255  0.2348 -0.4172  0.3469
15845TIP3    H169026   5.783   5.687  17.291 -0.3013 -1.9348  0.3850
15845TIP3    H269027   5.922   5.641  17.331  0.1362 -0.6312  0.3747
15846TIP3   OH269028   1.907   0.436  14.237 -0.0811  0.2284  0.3492
15846TIP3    H169029   1.966   0.372  14.198  0.4676  2.0475 -1.8777
15846TIP3    H269030   1.956   0.470  14.312  1.2198  0.8173 -0.7453
15847TIP3   OH269031   0.501   2.602   3.823  0.1848  0.3116  0.0772
15847TIP3    H169032   0.580   2.588   3.875  0.5624  1.5035 -0.1720
15847TIP3    H269033   0.516   2.551   3.743 -0.7623 -2.2351  1.4511
15848TIP3   OH269034   0.399   3.017   5.725  0.1205 -0.3843 -0.1920
15848TIP3    H169035   0.309   3.017   5.691  0.0195  0.2353  0.0594
15848TIP3    H269036   0.453   3.028   5.647  0.0379 -1.8893 -0.4662
15849TIP3   OH269037   4.031   0.006  17.051 -0.2158  0.2957  0.4944
15849TIP3    H169038   3.936   0.012  17.056 -0.1332  1.7162  0.6277
15849TIP3    H269039   4.048  -0.084  17.021 -1.6420  0.4605 -0.9049
15850TIP3   OH269040   2.241   3.278   3.134  0.1071 -0.1123 -0.6770
15850TIP3    H169041   2.253   3.345   3.068  0.2831  0.7740  0.2352
15850TIP3    H269042   2.260   3.195   3.089  1.3305  0.5627 -1.4288
15851TIP3   OH269043   6.548   5.550   0.287  0.3478 -0.2043  0.2520
15851TIP3    H169044   6.583   5.569   0.374  0.1969  0.2371  0.2186
15851TIP3    H269045   6.470   5.605   0.280  0.2815 -0.3425 -0.1090
15852TIP3   OH269046   0.350   4.891  16.669 -0.1784 -0.2366  0.3403
15852TIP3    H169047   0.302   4.947  16.730 -0.1782 -0.9043  0.9430
15852TIP3    H269048   0.441   4.897  16.697  0.6924  3.5818 -2.6892
15853TIP3   OH269049   1.266   3.076   4.187 -0.0173 -0.3761  0.1200
15853TIP3    H169050   1.316   3.142   4.234 -0.0122  0.0668 -0.5026
15853TIP3    H269051   1.318   2.996   4.195  0.1860 -0.2077  0.5094
15854TIP3   OH269052   6.424   5.661   4.096 -0.4139  0.6516 -0.2815
15854TIP3    H169053   6.512   5.647   4.130  0.0843  1.1006 -1.3895
15854TIP3    H269054   6.370   5.675   4.175 -0.0874 -2.6508  0.6012
15855TIP3   OH269055   4.310   2.104   6.318  0.2465 -0.2566 -0.5082
15855TIP3    H169056   4.217   2.116   6.338  0.1848  1.6009 -1.7359
15855TIP3    H269057   4.349   2.191   6.333  1.8336 -1.0680  0.2039
15856TIP3   OH269058   3.504   2.230   3.095  0.4361  0.1714 -0.1957
15856TIP3    H169059   3.591   2.196   3.071 -0.7733 -1.8039 -1.8697
15856TIP3    H269060   3.505   2.232   3.191  2.8305  1.5231 -0.2080
15857TIP3   OH269061   6.607   0.222   3.820 -0.0339 -0.1387  0.1239
15857TIP3    H169062   6.582   0.243   3.730 -0.4836 -0.6135  0.1401
15857TIP3    H269063   6.551   0.149   3.845  1.0571 -0.9368  0.3068
15858TIP3   OH269064   6.701   3.497  14.139  0.5076  0.5855  0.3013
15858TIP3    H169065   6.777   3.453  14.176 -0.3978 -2.0691 -0.8786
15858TIP3    H269066   6.632   3.431  14.140 -0.7168  1.7591 -2.1100
15859TIP3   OH269067   3.767   1.987  13.335  0.2953 -0.1949 -0.2751
15859TIP3    H169068   3.676   2.008  13.354  0.4855 -0.5157  1.0147
15859TIP3    H269069   3.799   1.945  13.415  1.3435 -0.8181 -1.0137
15860TIP3   OH269070   0.148   0.348   4.018 -0.7351 -0.4072  0.0645
15860TIP3    H169071   0.219   0.393   3.973 -1.6706  2.9914  1.7926
15860TIP3    H269072   0.068   0.381   3.977 -1.4225 -1.7280  0.3007
15861TIP3   OH269073   5.028   1.651   1.418 -0.5248 -0.8291  0.3344
15861TIP3    H169074   5.037   1.672   1.325 -0.6611 -1.1199  0.2555
15861TIP3    H269075   5.093   1.583   1.434  1.1146  0.8503  0.9843
15862TIP3   OH269076   5.969   2.163  15.826  0.6979 -0.4471  0.1963
15862TIP3    H169077   6.052   2.209  15.807  0.5400 -0.7994 -1.3927
15862TIP3    H269078   5.944   2.124  15.743 -0.1539 -1.8570  1.1081
15863TIP3   OH269079   4.290   4.619   0.436 -0.8365  0.5961 -0.4885
15863TIP3    H169080   4.198   4.602   0.459 -1.1386 -0.6216 -2.4917
15863TIP3    H269081   4.335   4.538   0.457 -0.3399  0.9488 -0.1920
15864TIP3   OH269082   4.802   3.053   5.136  0.3780  0.1680  0.1970
15864TIP3    H169083   4.771   3.135   5.097  1.2604  1.5569  2.3169
15864TIP3    H269084   4.898   3.062   5.139  0.6035 -1.6078 -0.9572
15865TIP3   OH269085   2.194   5.982   3.482  0.0287 -0.0623  0.1256
15865TIP3    H169086   2.212   5.960   3.391 -1.3176  3.1114 -0.9977
15865TIP3    H269087   2.258   6.050   3.504  0.8381 -1.3356  1.8105
15866TIP3   OH269088   5.155   0.095  10.322 -0.2574 -0.7743 -0.4581
15866TIP3    H169089   5.201   0.011  10.326  0.0760 -0.5825 -0.2082
15866TIP3    H269090   5.223   0.160  10.338 -0.3240 -0.3938 -1.6971
15867TIP3   OH269091   4.667   3.444  12.234 -0.0270  0.2747 -0.4755
15867TIP3    H169092   4.707   3.501  12.300 -1.4933  1.1080 -0.2809
15867TIP3    H269093   4.576   3.473  12.229 -0.2761 -0.6876 -1.8881
15868TIP3   OH269094   0.356   5.652   6.104 -0.1079  0.4608 -0.4260
15868TIP3    H169095   0.429   5.703   6.139  0.5828 -0.7252 -0.0900
15868TIP3    H269096   0.301   5.634   6.180 -0.2043  0.4649 -0.4946
15869TIP3   OH269097   3.681   4.501   5.538  0.1804  0.4733  0.0201
15869TIP3    H169098   3.731   4.583   5.538  0.7343  0.1444  1.6309
15869TIP3    H269099   3.635   4.502   5.454  2.1084  1.2564 -1.0706
15870TIP3   OH269100   2.165   4.402   5.919  0.1519  0.4891  0.4105
15870TIP3    H169101   2.144   4.469   5.854  0.5709 -0.3462 -0.5982
15870TIP3    H269102   2.124   4.433   6.000 -2.0132  0.6107 -0.6932
15871TIP3   OH269103   5.522   0.076   4.441 -0.2197 -0.2342 -0.0112
15871TIP3    H169104   5.528   0.018   4.366 -0.8131  1.8534 -1.7360
15871TIP3    H269105   5.429   0.074   4.466  0.0666 -1.3147  1.0115
15872TIP3   OH269106   6.409   2.906  13.438  0.2371 -0.1504 -0.3893
15872TIP3    H169107   6.451   2.893  13.352  1.2900 -0.5115  0.1744
15872TIP3    H269108   6.431   2.996  13.461 -0.8089  0.2490 -0.8979
15873TIP3   OH269109   2.250   6.523   4.966 -0.3079  0.5635  0.0834
15873TIP3    H169110   2.189   6.523   4.893 -1.8115  2.6277  1.2705
15873TIP3    H269111   2.333   6.491   4.930 -1.3173  0.5195 -2.2228
15874TIP3   OH269112   2.160   4.017  15.645  0.3617 -0.2454  0.2528
15874TIP3    H169113   2.100   3.971  15.587  0.0494  1.9864 -1.2288
15874TIP3    H269114   2.205   4.080  15.589  2.2958 -0.1579  1.8288
15875TIP3   OH269115   1.453   2.204   0.245  0.1753  0.2394 -0.0128
15875TIP3    H169116   1.478   2.127   0.193 -0.1498  0.0393  0.1249
15875TIP3    H269117   1.534   2.255   0.253  0.4480 -0.2102  0.1057
15876TIP3   OH269118   3.677   2.687   2.001 -0.2779  0.6623  0.1339
15876TIP3    H169119   3.634   2.678   1.916 -1.2976 -0.4979  0.7538
15876TIP3    H269120   3.679   2.598   2.036  3.7583  0.4299 -0.3887
15877TIP3   OH269121   1.543   2.179  14.590 -0.3026  0.0142  0.0174
15877TIP3    H169122   1.484   2.143  14.656 -1.1920 -2.0940 -1.8706
15877TIP3    H269123   1.571   2.103  14.539  3.2926  1.1052  0.2431
15878TIP3   OH269124   4.467   1.682  12.113  0.2007 -0.3522  0.2197
15878TIP3    H169125   4.371   1.679  12.109  0.1764  0.1949  0.4134
15878TIP3    H269126   4.495   1.679  12.022 -0.0562  1.3188  0.0720
15879TIP3   OH269127   6.684   2.125   6.081  0.0268  0.6715 -0.3885
15879TIP3    H169128   6.629   2.051   6.055  0.9877 -0.2991  0.3092
15879TIP3    H269129   6.622   2.193   6.109 -0.8048 -0.6791  1.1252
15880TIP3   OH269130   6.614   3.519   0.168  0.8094  0.4114 -0.4078
15880TIP3    H169131   6.522   3.519   0.192  1.1648 -0.3361  1.0316
15880TIP3    H269132   6.634   3.610   0.148 -0.3584  0.4953 -1.2153
15881TIP3   OH269133   1.812   6.128  12.346  0.0859  0.2847  0.6590
15881TIP3    H169134   1.740   6.082  12.389  1.3070  0.5211  3.0320
15881TIP3    H269135   1.772   6.205  12.307 -1.6684 -1.7952 -1.7542
15882TIP3   OH269136   0.476   0.760  14.875 -0.0498  0.2429  0.5244
15882TIP3    H169137   0.387   0.725  14.874  0.4921 -1.1942 -1.0566
15882TIP3    H269138   0.465   0.855  14.878 -1.6358  0.0753  0.3152
15883TIP3   OH269139   1.389   1.023   2.690  0.0133  0.1983 -0.2695
15883TIP3    H169140   1.410   1.040   2.782  0.5972 -1.3844 -0.1118
15883TIP3    H269141   1.415   0.932   2.675 -0.6540  0.2526 -1.8364
15884TIP3   OH269142   5.390   2.812   3.592 -0.0113 -0.5450 -0.5638
15884TIP3    H169143   5.366   2.867   3.518  0.5719 -0.8730 -1.0042
15884TIP3    H269144   5.362   2.862   3.669  1.8215  1.0533 -0.8888
15885TIP3   OH269145   2.147   0.059  11.488  0.3072 -0.4075 -0.6072
15885TIP3    H169146   2.153   0.004  11.409 -0.7921 -0.4277 -0.6745
15885TIP3    H269147   2.184   0.005  11.557 -1.7790 -1.6737 -0.4540
15886TIP3   OH269148   0.556   5.086  12.612 -0.0226  0.1564 -1.0163
15886TIP3    H169149   0.564   5.089  12.707 -1.6104  0.1280 -0.8700
15886TIP3    H269150   0.566   5.177  12.584  0.4805  0.1594 -0.8266
15887TIP3   OH269151   2.562   1.019   5.606 -0.3002  0.4001  0.4740
15887TIP3    H169152   2.541   0.949   5.668 -0.2981  1.4421  1.6705
15887TIP3    H269153   2.658   1.021   5.604 -0.2311  2.7282  3.2133
15888TIP3   OH269154   2.848   1.724  15.117  0.0662  0.4835 -0.3365
15888TIP3    H169155   2.830   1.688  15.030  0.5531  0.0753 -0.2750
15888TIP3    H269156   2.903   1.657  15.159  0.1630  0.8593  0.1386
15889TIP3   OH269157   5.907   0.570  11.382 -0.0421 -0.1105 -0.3077
15889TIP3    H169158   5.979   0.580  11.320  0.0005  0.5245 -0.1575
15889TIP3    H269159   5.830   0.602  11.336 -0.3155 -1.2053 -0.6263
15890TIP3   OH269160   6.002   6.533   5.004  0.3133  0.3713 -0.4695
15890TIP3    H169161   6.001   6.565   4.914  1.3375 -1.7447 -1.2801
15890TIP3    H269162   6.077   6.576   5.045 -0.3804  1.6265 -0.4989
15891TIP3   OH269163   4.600   1.678  14.492 -0.1658  0.1215 -0.5549
15891TIP3    H169164   4.589   1.758  14.544 -0.9433 -0.6674  0.5028
15891TIP3    H269165   4.688   1.647  14.515  0.2274  0.7825 -1.1373
15892TIP3   OH269166   1.127   2.808   1.111  0.1792 -0.7722  0.3388
15892TIP3    H169167   1.205   2.810   1.055 -0.0307 -2.2115  0.0010
15892TIP3    H269168   1.054   2.800   1.051 -0.2123  0.0545  0.6910
15893TIP3   OH269169   0.473   2.354  13.816 -0.1266  0.6388 -0.0307
15893TIP3    H169170   0.450   2.339  13.908  0.6613  1.8655  0.3774
15893TIP3    H269171   0.553   2.406  13.819  0.7059 -0.5291 -1.4304
15894TIP3   OH269172   6.238   4.356   6.538 -0.6014 -0.1709  0.1121
15894TIP3    H169173   6.309   4.418   6.520  0.3958 -0.7477  1.9262
15894TIP3    H269174   6.280   4.270   6.530 -1.0887 -0.5119  1.1920
15895TIP3   OH269175   1.831   1.239  12.764 -0.2521 -0.3448  0.3002
15895TIP3    H169176   1.839   1.187  12.844 -0.5835 -0.5334  0.2105
15895TIP3    H269177   1.787   1.181  12.703  0.4565 -0.3796 -0.1839
15896TIP3   OH269178   1.295   3.390  10.812  0.1418 -0.1656  0.3965
15896TIP3    H169179   1.385   3.356  10.816 -0.0965 -0.7726  0.6587
15896TIP3    H269180   1.292   3.441  10.731  0.6708 -0.2973  0.2909
15897TIP3   OH269181   3.848   2.382   5.134  0.7534  0.1955 -0.4234
15897TIP3    H169182   3.803   2.454   5.091  1.0429 -1.2026 -3.1706
15897TIP3    H269183   3.786   2.350   5.200 -1.0126  0.3663 -1.9588
15898TIP3   OH269184   3.416   4.141   5.794  0.4618  0.1381  0.6827
15898TIP3    H169185   3.465   4.208   5.746 -0.3355  1.1014  1.1979
15898TIP3    H269186   3.447   4.149   5.884  1.6473 -1.3835  0.4215
15899TIP3   OH269187   6.797   1.124   2.073  0.1763 -0.1470  0.4480
15899TIP3    H169188   6.890   1.104   2.080  0.4204  1.2672  1.4669
15899TIP3    H269189   6.767   1.074   1.997  1.9906  0.2629 -0.5521
15900TIP3   OH269190   3.286   1.635   1.573 -0.3146 -0.0599  0.0841
15900TIP3    H169191   3.293   1.599   1.484  2.4311 -0.0742  0.2550
15900TIP3    H269192   3.230   1.574   1.620 -0.4853 -0.9152 -1.2025
15901TIP3   OH269193   1.675   0.176  16.214 -0.2364 -0.2647  0.5014
15901TIP3    H169194   1.713   0.204  16.298 -1.9650  0.2600  1.1240
15901TIP3    H269195   1.637   0.090  16.233 -1.7905  0.4273  0.6256
15902TIP3   OH269196   4.932   5.125  13.355  0.7657 -0.6220  0.2403
15902TIP3    H169197   4.928   5.190  13.285 -0.0914  0.5739  1.3664
15902TIP3    H269198   4.951   5.176  13.434 -1.3058 -1.5471  1.3742
15903TIP3   OH269199   2.846   3.922   5.129 -0.0601 -0.3831  0.6322
15903TIP3    H169200   2.753   3.933   5.109  0.2663 -0.7913 -1.2398
15903TIP3    H269201   2.885   3.893   5.046  1.5871 -1.0704  1.6214
15904TIP3   OH269202   3.288   4.993  11.978  0.3354  0.0752  0.9137
15904TIP3    H169203   3.374   5.034  11.971  0.5604 -0.3625  1.1461
15904TIP3    H269204   3.284   4.960  12.067  0.5962 -1.4085  0.3848
15905TIP3   OH269205   4.728   5.226   0.897  0.4554  0.4792  0.0283
15905TIP3    H169206   4.744   5.146   0.947  2.7377  1.6847  1.2865
15905TIP3    H269207   4.648   5.207   0.848  1.9102 -3.2378 -1.1117
15906TIP3   OH269208   4.211   2.624   4.355  0.3544 -0.0484  0.2449
15906TIP3    H169209   4.264   2.576   4.419 -0.0746 -0.3761  0.3643
15906TIP3    H269210   4.257   2.613   4.272  0.6651 -0.0215  0.4125
15907TIP3   OH269211   1.995   0.406   5.651  0.4210 -0.1555  0.5618
15907TIP3    H169212   1.927   0.341   5.635 -0.4413  1.0141 -0.6921
15907TIP3    H269213   2.074   0.355   5.667 -0.5661 -1.5189  1.1829
15908TIP3   OH269214   1.480   0.404   1.179  0.0943  0.6476  0.2479
15908TIP3    H169215   1.522   0.489   1.192 -0.1649  0.7213  0.6015
15908TIP3    H269216   1.448   0.380   1.266  0.6817 -0.0848  0.2684
15909TIP3   OH269217   2.964   0.453  15.634  0.3466  0.5218  0.4940
15909TIP3    H169218   2.912   0.477  15.557 -0.5774 -0.8879  0.6473
15909TIP3    H269219   2.990   0.362  15.617  0.7502  0.4435  1.5083
15910TIP3   OH269220   4.455   1.107  10.603 -0.6159  0.0823  0.4176
15910TIP3    H169221   4.427   1.080  10.516  0.0795  1.3446 -0.2099
15910TIP3    H269222   4.550   1.094  10.604 -0.5525  0.5162  0.8097
15911TIP3   OH269223   6.042   4.858  14.089  0.3134  0.3610 -0.4565
15911TIP3    H169224   5.984   4.788  14.058  0.3315 -0.0485  0.4393
15911TIP3    H269225   6.130   4.825  14.072  0.4046 -0.9774  2.3661
15912TIP3   OH269226   4.028   6.345  12.970 -0.5699  0.5484  0.4196
15912TIP3    H169227   3.942   6.307  12.989 -0.8838  1.0296 -0.0255
15912TIP3    H269228   4.040   6.412  13.037 -0.9823  1.1669 -0.1257
15913TIP3   OH269229   3.853   6.391   5.302  0.3786  0.1267  0.1504
15913TIP3    H169230   3.843   6.477   5.260  0.2407 -0.6155 -1.3725
15913TIP3    H269231   3.848   6.329   5.229 -1.6333 -1.3037  1.4556
15914TIP3   OH269232   4.263   3.452   2.507 -0.0024 -0.4839  0.0938
15914TIP3    H169233   4.173   3.437   2.536  0.2789 -0.8318  0.7843
15914TIP3    H269234   4.292   3.527   2.559 -0.4164  0.6373 -1.2533
15915TIP3   OH269235   2.826   3.197   1.711  0.5977 -0.1677  0.3431
15915TIP3    H169236   2.792   3.277   1.672  1.0960  0.6278  1.5100
15915TIP3    H269237   2.843   3.140   1.636 -1.5350  0.0946 -0.3717
15916TIP3   OH269238   6.739   1.906  12.000 -0.1784  0.5121 -0.5447
15916TIP3    H169239   6.725   1.823  12.046 -1.0314  0.9382 -0.0153
15916TIP3    H269240   6.681   1.968  12.045  0.7469  1.4841 -0.6921
15917TIP3   OH269241   1.965   0.353   2.997  0.5063  0.1288  0.2673
15917TIP3    H169242   2.022   0.350   2.920 -0.7486 -1.5036 -0.6200
15917TIP3    H269243   1.877   0.359   2.961 -0.1807 -1.8034  1.5592
15918TIP3   OH269244   3.120   1.041   6.659 -0.0972  0.5615  0.4599
15918TIP3    H169245   3.117   0.992   6.741  1.4297 -0.9100 -0.3366
15918TIP3    H269246   3.110   1.133   6.685 -0.6455  0.0187  2.1834
15919TIP3   OH269247   4.902   1.156   2.996 -0.0104  0.3739 -0.0579
15919TIP3    H169248   4.832   1.171   3.059 -0.1475 -0.4427 -0.0066
15919TIP3    H269249   4.974   1.121   3.048 -0.0968 -0.2284 -0.3336
15920TIP3   OH269250   0.873   5.422   1.173 -0.4683  0.2960  0.0432
15920TIP3    H169251   0.799   5.427   1.112 -0.1053 -0.5473 -0.4816
15920TIP3    H269252   0.859   5.495   1.234 -0.6600  1.3375 -1.2338
15921TIP3   OH269253   5.480   4.947  12.762 -0.1574 -0.8986  0.2812
15921TIP3    H169254   5.434   4.949  12.846  1.0565 -0.0761  0.9495
15921TIP3    H269255   5.547   4.879  12.774  0.9776  0.2506  0.5085
15922TIP3   OH269256   0.760   2.099   6.308 -0.3876 -0.1454 -0.1979
15922TIP3    H169257   0.682   2.148   6.282  0.0146  1.4951  1.5890
15922TIP3    H269258   0.822   2.165   6.337  1.6067 -1.4636 -1.3655
15923TIP3   OH269259   4.550   4.493   1.525 -0.2427 -0.9416  0.5245
15923TIP3    H169260   4.574   4.562   1.586  0.3100 -1.3197  0.7407
15923TIP3    H269261   4.493   4.435   1.575 -1.2189 -0.3047  0.1558
15924TIP3   OH269262   6.469   6.334   1.397 -0.3503  0.6354 -0.4671
15924TIP3    H169263   6.441   6.423   1.376 -0.0993  1.2493  1.7178
15924TIP3    H269264   6.390   6.281   1.388 -1.1929  1.5816  1.1357
15925TIP3   OH269265   4.041   0.335  15.239  0.1295  0.0149  0.5034
15925TIP3    H169266   4.129   0.338  15.201 -0.1592  1.8684 -0.0254
15925TIP3    H269267   4.033   0.245  15.271  1.0496 -1.1190 -2.2548
15926TIP3   OH269268   3.886   6.696   2.836  0.1472  0.2289 -0.0633
15926TIP3    H169269   3.854   6.714   2.748  0.6658 -0.0647 -0.3168
15926TIP3    H269270   3.824   6.740   2.894  0.3976  1.3002 -0.6069
15927TIP3   OH269271   5.197   0.614  17.162  0.1477 -0.4682 -0.4299
15927TIP3    H169272   5.188   0.585  17.071 -0.2093 -1.2421 -0.1576
15927TIP3    H269273   5.258   0.552  17.201  1.3000  0.6299 -0.4703
15928TIP3   OH269274   4.626   5.102  12.975 -0.2043 -0.1296 -0.3108
15928TIP3    H169275   4.632   5.023  12.921 -4.3304 -0.1419 -0.8705
15928TIP3    H269276   4.541   5.095  13.019  0.2929  2.9784  1.3107
15929TIP3   OH269277   0.957   2.282  12.305 -0.1387  0.0862 -0.2460
15929TIP3    H169278   0.975   2.239  12.388 -1.1397 -0.4896 -0.3211
15929TIP3    H269279   0.862   2.274  12.294 -0.1057  0.8406 -1.0647
15930TIP3   OH269280   4.745   1.615   3.986 -0.2070  0.3545 -0.0502
15930TIP3    H169281   4.707   1.674   3.921  0.8392  0.5887 -0.4415
15930TIP3    H269282   4.824   1.581   3.945 -1.6370 -2.5851 -0.4632
15931TIP3   OH269283   2.953   4.823  16.224  0.1104 -0.2569 -0.4499
15931TIP3    H169284   2.871   4.789  16.260  0.1025 -0.8271 -1.0068
15931TIP3    H269285   3.021   4.777  16.273  0.1063 -0.0236 -0.2172
15932TIP3   OH269286   3.969   5.762  13.237 -0.1728  0.0473 -0.2801
15932TIP3    H169287   4.054   5.806  13.237 -0.3206  0.3474 -1.0176
15932TIP3    H269288   3.983   5.683  13.289  1.0028 -0.7409 -1.7531
15933TIP3   OH269289   4.928   0.798  14.251  0.7481 -0.0874  0.0942
15933TIP3    H169290   4.964   0.871  14.201  0.7368 -0.5975 -0.6652
15933TIP3    H269291   4.981   0.722  14.225  0.7011 -0.3712  0.7998
15934TIP3   OH269292   5.700   4.737   3.333  0.1212  0.3592  0.1187
15934TIP3    H169293   5.640   4.663   3.333 -0.3516  0.7353  1.5332
15934TIP3    H269294   5.786   4.698   3.318 -0.1394 -0.4738  0.7814
15935TIP3   OH269295   4.523   5.145   1.365  0.1659  0.5238 -0.2336
15935TIP3    H169296   4.549   5.106   1.281 -3.0227 -5.1322  1.1467
15935TIP3    H269297   4.433   5.176   1.350  0.1595  0.9380  0.6352
15936TIP3   OH269298   1.211   6.550  13.369 -0.0294  0.1381 -0.4846
15936TIP3    H169299   1.221   6.489  13.297 -1.1004 -1.5829  0.7895
15936TIP3    H269300   1.118   6.546  13.392  0.6016 -0.7319  2.1514
15937TIP3   OH269301   0.978   1.202   1.158 -0.5605 -0.3888  0.0627
15937TIP3    H169302   0.942   1.226   1.073 -1.1322 -0.0501  0.4036
15937TIP3    H269303   1.062   1.161   1.137 -1.7212 -2.3812 -0.8232
15938TIP3   OH269304   1.027   4.050  12.331  0.5410  0.1602 -1.2818
15938TIP3    H169305   1.048   4.122  12.391 -2.3020  0.1653 -0.2422
15938TIP3    H269306   0.992   4.092  12.253  2.3949  0.0480 -2.2095
15939TIP3   OH269307   4.616   2.060  11.465  0.1093  0.5651  0.3912
15939TIP3    H169308   4.681   1.993  11.445 -0.4933  0.0694  0.0805
15939TIP3    H269309   4.660   2.118  11.528  0.3907 -0.5367  1.2339
15940TIP3   OH269310   0.433   1.706   4.408 -0.1463  0.3539  0.2728
15940TIP3    H169311   0.381   1.628   4.388 -0.2499  0.6017 -0.4372
15940TIP3    H269312   0.380   1.754   4.472 -0.6513  0.4493 -0.2130
15941TIP3   OH269313   0.073   0.529   5.646 -0.2714  0.4067  0.1168
15941TIP3    H169314   0.099   0.437   5.652 -0.2093  0.2489 -2.1500
15941TIP3    H269315  -0.002   0.537   5.704 -0.6338 -1.2191 -0.1122
15942TIP3   OH269316   0.227   1.735  12.163 -0.7182 -0.1749  0.5545
15942TIP3    H169317   0.300   1.754  12.103 -0.9030  1.2738  0.7818
15942TIP3    H269318   0.252   1.653  12.205 -0.2375 -0.8388 -0.9707
15943TIP3   OH269319   2.674   6.452   4.510 -0.4878 -0.1110 -0.3313
15943TIP3    H169320   2.617   6.525   4.485  1.5754  1.2816 -1.0564
15943TIP3    H269321   2.624   6.405   4.576 -2.6446  0.8678 -1.2198
15944TIP3   OH269322   0.016   0.509  12.376  0.4716 -0.0395  0.0011
15944TIP3    H169323  -0.038   0.512  12.455 -0.0141 -0.9543 -0.2946
15944TIP3    H269324   0.005   0.421  12.341 -0.6722  0.8594 -2.0272
15945TIP3   OH269325   2.692   0.938   3.512  0.2584 -0.2220  0.3798
15945TIP3    H169326   2.670   1.027   3.486 -0.3568 -0.5097 -0.0911
15945TIP3    H269327   2.747   0.905   3.442 -0.1495 -0.4771  0.1796
15946TIP3   OH269328   0.087   3.875   3.064 -0.3351  1.3490  0.5621
15946TIP3    H169329   0.118   3.815   2.997  0.1789  0.9303  1.1707
15946TIP3    H269330   0.110   3.833   3.147  0.0489  2.3941  0.9995
15947TIP3   OH269331   5.978   3.030  15.783  0.6895  0.1723  0.3728
15947TIP3    H169332   6.032   2.951  15.789 -0.3772 -0.5564  0.3619
15947TIP3    H269333   5.912   3.019  15.851  0.0232  0.6724 -0.1944
15948TIP3   OH269334   4.710   2.241  17.143  0.1054  1.0082  0.3439
15948TIP3    H169335   4.633   2.210  17.191 -0.0610 -0.6254 -0.9214
15948TIP3    H269336   4.770   2.272  17.210 -1.1920  1.2205  1.4208
15949TIP3   OH269337   6.052   2.017  13.441 -0.3218  0.7893  0.1762
15949TIP3    H169338   5.965   2.056  13.426 -2.1266 -2.1532  2.3818
15949TIP3    H269339   6.089   2.069  13.512  0.0004  2.3845 -1.1135
15950TIP3   OH269340   5.562   1.731  12.909 -0.5807  0.1291  0.7138
15950TIP3    H169341   5.504   1.691  12.974  1.4865  0.4084  2.8112
15950TIP3    H269342   5.586   1.815  12.947  1.5515 -0.1833  0.1204
15951TIP3   OH269343   2.783   0.616  13.414 -0.6216 -0.6102 -0.0793
15951TIP3    H169344   2.801   0.573  13.497  0.6770  0.8170  0.4130
15951TIP3    H269345   2.712   0.677  13.433  1.8921  2.1687  0.8910
15952TIP3   OH269346   2.998   1.246   4.074  0.3359 -0.6249 -0.1433
15952TIP3    H169347   3.085   1.222   4.107 -0.2437  0.7373  2.5826
15952TIP3    H269348   2.944   1.169   4.093  0.9429 -1.5160 -1.9413
15953TIP3   OH269349   0.083   5.476  13.244 -0.3594  0.5358 -0.1987
15953TIP3    H169350   0.094   5.522  13.161  0.7672 -1.3171 -1.0907
15953TIP3    H269351   0.051   5.543  13.304  0.9023  2.4022 -1.5579
15954TIP3   OH269352   3.972   1.904   2.554 -0.4468 -0.2323  0.0462
15954TIP3    H169353   3.981   1.812   2.580  0.6804 -0.4189 -0.9451
15954TIP3    H269354   4.047   1.920   2.497 -1.0645  1.0904 -0.4164
15955TIP3   OH269355   4.267   4.129   1.506 -0.4493  0.5145 -0.1254
15955TIP3    H169356   4.214   4.054   1.533 -0.9652  1.0684  0.4115
15955TIP3    H269357   4.228   4.157   1.423  0.0453 -0.1072 -0.5703
15956TIP3   OH269358   3.500   5.939   4.134 -0.0465 -0.0343 -0.0338
15956TIP3    H169359   3.544   5.905   4.056  0.6419  1.6334 -0.3797
15956TIP3    H269360   3.551   6.016   4.159 -2.6850  1.8630 -0.3682
15957TIP3   OH269361   1.217   5.722   4.618  0.2450 -0.2436 -0.1656
15957TIP3    H169362   1.202   5.663   4.692 -2.0044 -0.7676 -1.0077
15957TIP3    H269363   1.184   5.675   4.542  0.9900  0.9719 -1.2736
15958TIP3   OH269364   0.788   5.033   1.773  0.2561 -0.6964  0.3292
15958TIP3    H169365   0.867   5.087   1.780  0.0227 -0.3071  0.0076
15958TIP3    H269366   0.721   5.094   1.742 -0.9285 -0.2676  3.5424
15959TIP3   OH269367   0.892   2.677  14.606  0.3348 -0.1372  0.0339
15959TIP3    H169368   0.928   2.741  14.545 -2.0414  1.4655  0.2559
15959TIP3    H269369   0.872   2.601  14.551 -4.0382  2.1594 -1.7566
15960TIP3   OH269370   0.333   6.728   0.023  0.3863  0.0462  0.0632
15960TIP3    H169371   0.305   6.641   0.050  2.0629 -0.0424  1.5953
15960TIP3    H269372   0.312   6.732  -0.070  2.4294 -2.8737 -0.5816
15961TIP3   OH269373   4.844   5.084   3.443 -0.2080 -0.5113  0.0159
15961TIP3    H169374   4.903   5.157   3.464 -1.4647  0.0143  1.8042
15961TIP3    H269375   4.896   5.006   3.457  0.2313 -0.0344  1.0926
15962TIP3   OH269376   0.621   0.900   2.988  0.4721  0.0797  0.1888
15962TIP3    H169377   0.626   0.898   3.083  0.2574  3.8421  0.3456
15962TIP3    H269378   0.706   0.937   2.960  0.5252 -0.9537 -1.0840
15963TIP3   OH269379   2.528   0.209   0.643 -0.0193  0.2307  0.6833
15963TIP3    H169380   2.598   0.265   0.676  1.1694 -1.0201  0.3278
15963TIP3    H269381   2.463   0.270   0.608  0.3794  1.4419  2.0042
15964TIP3   OH269382   5.232   3.214   0.966  0.5416 -0.2045 -0.0145
15964TIP3    H169383   5.201   3.299   0.995  0.0652 -0.0672 -0.9159
15964TIP3    H269384   5.327   3.218   0.976  0.3183 -0.6476  2.8340
15965TIP3   OH269385   1.634   0.393  12.361 -0.7880 -0.2260 -0.2088
15965TIP3    H169386   1.597   0.473  12.397  0.9890  0.1732  0.7834
15965TIP3    H269387   1.687   0.422  12.287  0.3502 -0.4143  0.5280
15966TIP3   OH269388   3.879   5.233   2.857 -0.3173 -0.0018 -0.1094
15966TIP3    H169389   3.923   5.282   2.925 -1.8394  0.9976  0.1837
15966TIP3    H269390   3.850   5.299   2.794 -0.3715 -0.7482 -0.8796
15967TIP3   OH269391   5.713   2.730   2.829 -0.4881 -0.5286 -0.1820
15967TIP3    H169392   5.798   2.702   2.796  0.0695  0.3434  0.4766
15967TIP3    H269393   5.727   2.743   2.923 -0.9705  0.9450 -0.2957
15968TIP3   OH269394   3.305   2.193   4.561 -0.3357  0.8108 -0.4549
15968TIP3    H169395   3.210   2.187   4.564 -0.3910  1.7685 -0.0021
15968TIP3    H269396   3.327   2.184   4.468 -0.6435 -2.1330 -0.3076
15969TIP3   OH269397   4.244   4.809  12.997 -0.0814  0.5194 -0.1725
15969TIP3    H169398   4.275   4.729  12.954 -1.2425 -0.3753  0.6542
15969TIP3    H269399   4.160   4.828  12.956  0.3216  1.5065 -0.5758
15970TIP3   OH269400   5.968   1.369  13.384 -0.0004 -0.5902  0.4377
15970TIP3    H169401   6.014   1.287  13.404  1.2610  0.0436  0.1477
15970TIP3    H269402   6.009   1.400  13.303 -0.0474  0.6580  0.8840
15971TIP3   OH269403   0.291   4.527   5.314  0.5910  0.3036  0.2537
15971TIP3    H169404   0.238   4.456   5.278  1.8209 -1.3276  1.5602
15971TIP3    H269405   0.228   4.592   5.344 -0.4976  1.9633 -5.1295
15972TIP3   OH269406   5.029   6.351  12.524 -0.1809 -0.0426  0.2777
15972TIP3    H169407   5.079   6.417  12.476 -0.3747  0.5072  0.8266
15972TIP3    H269408   5.092   6.313  12.586 -0.0118 -0.5338 -0.1904
15973TIP3   OH269409   4.452   4.951  11.304  0.3002  0.3602 -0.5473
15973TIP3    H169410   4.401   4.914  11.376 -1.0041  1.2302 -1.0188
15973TIP3    H269411   4.514   5.010  11.347  0.2011  0.1047 -0.0514
15974TIP3   OH269412   0.194   5.592   1.768 -0.3001  0.5417  0.0299
15974TIP3    H169413   0.235   5.545   1.695 -0.0728 -0.1757  0.6097
15974TIP3    H269414   0.117   5.539   1.790 -0.3422  0.7311  0.3355
15975TIP3   OH269415   0.659   1.638   0.525 -0.1460 -0.3089 -0.0955
15975TIP3    H169416   0.717   1.648   0.601 -0.5218 -0.4539  0.2099
15975TIP3    H269417   0.579   1.686   0.549 -0.3178 -0.4693 -0.3452
15976TIP3   OH269418   6.518   2.556   5.037 -0.1198  0.1237 -1.0391
15976TIP3    H169419   6.536   2.650   5.032  1.2324 -0.0109  0.6669
15976TIP3    H269420   6.437   2.549   5.087  0.5495  0.3543  0.1077
15977TIP3   OH269421   6.201   1.585   2.879  0.4976 -0.5668 -0.3659
15977TIP3    H169422   6.216   1.573   2.786  1.4090 -2.3842 -0.0091
15977TIP3    H269423   6.106   1.582   2.889  0.4142 -0.6771 -1.1967
15978TIP3   OH269424   3.746   2.866  12.840  0.4609 -0.9303 -0.2072
15978TIP3    H169425   3.769   2.898  12.927  0.3333 -1.5522  0.0624
15978TIP3    H269426   3.651   2.855  12.842  0.3839 -0.3554 -0.6296
15979TIP3   OH269427   4.578   0.839  12.806 -0.3428  0.1451 -0.6134
15979TIP3    H169428   4.580   0.932  12.780  0.5464  0.1477 -0.5563
15979TIP3    H269429   4.485   0.820  12.819 -0.3762  1.6515  1.6342
15980TIP3   OH269430   3.858   6.791  13.563 -0.7438 -0.6416 -0.6277
15980TIP3    H169431   3.906   6.772  13.644 -2.2221 -0.2205  0.3700
15980TIP3    H269432   3.869   6.885  13.550 -0.4493 -0.7216 -0.9533
15981TIP3   OH269433   6.452   5.259   2.964  0.9668  0.6633 -0.0891
15981TIP3    H169434   6.457   5.187   2.900  2.4699 -0.0211  0.7850
15981TIP3    H269435   6.520   5.320   2.936 -0.1254  1.6485 -0.6670
15982TIP3   OH269436   4.725   5.074  15.584 -0.1065 -0.6936 -0.6652
15982TIP3    H169437   4.673   5.025  15.520  1.2819 -0.1469 -2.2333
15982TIP3    H269438   4.661   5.130  15.629 -1.0303 -0.8190 -1.8111
15983TIP3   OH269439   4.483   3.727  13.814 -0.1553 -0.0475 -0.5989
15983TIP3    H169440   4.555   3.701  13.871 -0.2353  0.0888 -0.4344
15983TIP3    H269441   4.411   3.670  13.840 -0.1161 -0.1607 -0.7395
15984TIP3   OH269442   3.012   3.182  13.193 -0.2633 -0.5114  1.2492
15984TIP3    H169443   2.969   3.267  13.194 -0.5896 -0.6770  1.6050
15984TIP3    H269444   3.104   3.201  13.174 -0.8655 -0.3294 -1.5962
15985TIP3   OH269445   3.172   6.627   0.738 -0.3601 -0.1256  0.3616
15985TIP3    H169446   3.086   6.669   0.733  0.4679  1.5438 -0.1680
15985TIP3    H269447   3.203   6.625   0.648  1.4519  2.0766  0.8967
15986TIP3   OH269448   3.405   3.679   0.308  0.2145  0.9302 -0.0135
15986TIP3    H169449   3.496   3.696   0.284  0.0927  0.0288 -1.1096
15986TIP3    H269450   3.404   3.589   0.340 -0.1260  1.2506  0.9182
15987TIP3   OH269451   1.452   0.851  12.574 -0.3441 -0.1924 -0.2926
15987TIP3    H169452   1.514   0.890  12.636  0.1833 -0.8139 -0.4287
15987TIP3    H269453   1.394   0.924  12.550  1.0980  0.7156 -1.1335
15988TIP3   OH269454   4.664   3.573   2.496  0.1055 -0.4705 -0.3392
15988TIP3    H169455   4.594   3.569   2.561  0.2907  0.8024 -0.0370
15988TIP3    H269456   4.715   3.493   2.510 -1.0245 -1.1784 -0.2662
15989TIP3   OH269457   2.659   3.594  14.865 -0.5344 -0.1719 -0.1171
15989TIP3    H169458   2.730   3.563  14.920 -0.5969  0.0760  0.1042
15989TIP3    H269459   2.701   3.647  14.797 -0.7327  2.4196  1.6945
15990TIP3   OH269460   2.610   0.441   2.350 -0.0801  0.4396 -0.3503
15990TIP3    H169461   2.645   0.530   2.351  2.2097 -0.4279 -1.0054
15990TIP3    H269462   2.631   0.408   2.262  0.6318 -1.3392  0.4689
15991TIP3   OH269463   5.338   5.107   0.263  0.3499 -0.0186  0.3283
15991TIP3    H169464   5.297   5.193   0.253  0.0049 -0.2497 -0.2602
15991TIP3    H269465   5.408   5.121   0.327 -1.6794  0.0351  2.5837
15992TIP3   OH269466   1.816   5.543   4.334  0.0410 -0.3319  0.2055
15992TIP3    H169467   1.906   5.575   4.340 -0.0364 -0.4706  2.5465
15992TIP3    H269468   1.820   5.470   4.272  1.2501  0.5493 -0.7799
15993TIP3   OH269469   4.139   2.098  10.973  0.3122 -0.5406 -0.1128
15993TIP3    H169470   4.095   2.072  10.892  0.2122  1.3499 -0.6700
15993TIP3    H269471   4.231   2.078  10.958  0.2818 -0.2654 -0.6455
15994TIP3   OH269472   1.535   5.633  17.129 -0.1640 -0.1456  0.5083
15994TIP3    H169473   1.449   5.615  17.091  0.5794 -0.9525 -0.8160
15994TIP3    H269474   1.552   5.558  17.186 -0.2456 -0.0889  0.6087
15995TIP3   OH269475   4.301   6.560  15.356 -0.1257  0.2613 -0.0265
15995TIP3    H169476   4.291   6.641  15.307 -2.1209  0.9779  1.4926
15995TIP3    H269477   4.242   6.570  15.431  1.0914 -1.7743  1.2391
15996TIP3   OH269478   1.920   0.191  12.458  0.3805 -0.0427  0.5797
15996TIP3    H169479   1.881   0.117  12.411  1.7264 -0.0222 -0.6017
15996TIP3    H269480   1.917   0.165  12.550 -0.6825 -0.8456  0.3277
15997TIP3   OH269481   2.928   2.200   1.590  0.1740 -0.4312 -0.1538
15997TIP3    H169482   2.850   2.170   1.636  0.5974 -2.1148 -0.5054
15997TIP3    H269483   2.994   2.209   1.658  0.7709 -2.8201 -0.3738
15998TIP3   OH269484   1.596   2.533  12.846 -0.1455 -0.2130  0.2915
15998TIP3    H169485   1.556   2.555  12.931  0.1194  3.4424 -0.4775
15998TIP3    H269486   1.655   2.460  12.866 -0.0585  0.6057  3.2761
15999TIP3   OH269487   3.764   5.230   3.756 -0.1885 -0.1669  0.4054
15999TIP3    H169488   3.734   5.319   3.735  1.5216 -0.0793 -1.7671
15999TIP3    H269489   3.851   5.243   3.793 -0.0638 -0.9223  0.3662
16000TIP3   OH269490   2.138   6.256  11.430 -0.1689  0.4494 -0.0506
16000TIP3    H169491   2.199   6.266  11.357 -0.0976 -3.2551 -0.5522
16000TIP3    H269492   2.064   6.313  11.408  0.0211 -0.3482 -2.8347
16001TIP3   OH269493   3.527   0.089   4.457 -0.1039  0.7366  0.2075
16001TIP3    H169494   3.451   0.118   4.507 -1.3967 -0.5559 -0.9867
16001TIP3    H269495   3.534   0.152   4.385  0.2726  1.1594  0.6125
16002TIP3   OH269496   4.100   4.325   3.472  0.5221  0.6050 -0.4338
16002TIP3    H169497   4.113   4.420   3.467 -0.2352  0.7309  0.0338
16002TIP3    H269498   4.068   4.309   3.561 -0.3411  0.0319 -0.8377
16003TIP3   OH269499   0.226   0.865   2.820  0.2608  0.0748  0.2622
16003TIP3    H169500   0.219   0.960   2.811 -1.3395 -0.1207 -0.7926
16003TIP3    H269501   0.136   0.835   2.830  0.7631 -1.3319  0.6765
16004TIP3   OH269502   5.210   3.556   1.896  0.5204  0.2557 -0.0823
16004TIP3    H169503   5.285   3.612   1.914  1.2525 -0.9445  0.6475
16004TIP3    H269504   5.247   3.480   1.851 -0.3714  0.0459 -0.4824
16005TIP3   OH269505   1.372   5.598  13.822  0.2248 -0.4050  0.3388
16005TIP3    H169506   1.426   5.669  13.788 -0.0999  0.6209  1.9086
16005TIP3    H269507   1.423   5.519  13.806  2.1507  0.5337  1.6876
16006TIP3   OH269508   6.390   6.294  14.258 -0.3729  0.2797 -0.7288
16006TIP3    H169509   6.483   6.275  14.275 -0.2168  0.5107 -1.2915
16006TIP3    H269510   6.351   6.208  14.241  0.2044  0.3599 -2.6682
16007TIP3   OH269511   3.922   5.930   6.321  0.3488  0.2470  0.3732
16007TIP3    H169512   3.983   5.959   6.389  1.0982  0.3234 -0.3235
16007TIP3    H269513   3.927   5.998   6.254 -1.4628  0.8962  0.8868
16008TIP3   OH269514   3.931   4.763  16.513  0.4270 -0.7263 -0.3168
16008TIP3    H169515   3.967   4.676  16.532 -0.6402 -0.7992  1.5061
16008TIP3    H269516   3.849   4.746  16.467  1.2660 -0.6181 -1.8896
16009TIP3   OH269517   4.848   1.876  16.806  0.4832  0.5368  0.1395
16009TIP3    H169518   4.769   1.903  16.853  0.9217  1.8405  0.1628
16009TIP3    H269519   4.842   1.781  16.801 -1.1675  0.6263  0.0016
16010TIP3   OH269520   3.338   0.134   5.439 -0.0140  0.0595 -0.5946
16010TIP3    H169521   3.362   0.117   5.348 -2.0337 -1.9452 -0.7981
16010TIP3    H269522   3.248   0.167   5.434 -0.4682 -0.9559  0.7370
16011TIP3   OH269523   2.004   0.368  11.063  0.5326 -0.4925 -0.1516
16011TIP3    H169524   2.079   0.424  11.045  0.5691 -0.3714  0.3513
16011TIP3    H269525   2.039   0.279  11.062  0.5220 -0.4892 -0.7137
16012TIP3   OH269526   6.601   2.206   3.412  0.1260 -0.3641 -0.2206
16012TIP3    H169527   6.616   2.158   3.493  0.4447 -0.2096 -0.1868
16012TIP3    H269528   6.686   2.244   3.390  1.0419 -3.5237 -2.6291
16013TIP3   OH269529   5.033   5.096   5.209 -0.5607  0.1585  0.6399
16013TIP3    H169530   5.100   5.144   5.160  0.5132 -0.8698  1.0911
16013TIP3    H269531   5.014   5.153   5.284 -1.1629  1.0618 -0.1926
16014TIP3   OH269532   5.923   1.911   6.432 -0.1116 -0.0750  0.4993
16014TIP3    H169533   5.893   1.877   6.348 -0.4438  0.2957  0.4682
16014TIP3    H269534   5.884   1.852   6.497 -0.7842  0.3102  0.4519
16015TIP3   OH269535   5.712   3.320   0.375 -0.0240 -0.4688  0.1451
16015TIP3    H169536   5.638   3.270   0.339 -1.2399 -0.0740  2.0042
16015TIP3    H269537   5.736   3.272   0.455  0.6663  0.3200  0.4150
16016TIP3   OH269538   4.864   2.310  14.434  0.1008  0.7046 -0.0858
16016TIP3    H169539   4.937   2.255  14.463  0.6734  1.0955 -0.7601
16016TIP3    H269540   4.873   2.313  14.339 -0.0122  1.8422 -0.0678
16017TIP3   OH269541   4.110   5.568  11.425 -0.4079 -0.6032 -0.9231
16017TIP3    H169542   4.038   5.515  11.391 -0.2136 -1.1568 -0.4785
16017TIP3    H269543   4.177   5.564  11.356 -1.0994  0.5571 -1.6861
16018TIP3   OH269544   0.985   3.932  13.394  0.4333 -0.5932 -0.0786
16018TIP3    H169545   1.040   3.944  13.471 -1.5838 -0.2917  1.3363
16018TIP3    H269546   0.968   4.021  13.362 -0.8715 -0.5604  0.6761
16019TIP3   OH269547   6.325   1.137   4.217  0.0350  0.3821 -0.0389
16019TIP3    H169548   6.304   1.130   4.310  1.5590 -1.6535  0.1842
16019TIP3    H269549   6.307   1.050   4.182  2.6048  0.1802 -0.9554
16020TIP3   OH269550   5.742   0.695  16.531  0.1620  0.4690  0.2825
16020TIP3    H169551   5.835   0.703  16.507  0.0938  0.6611  0.0842
16020TIP3    H269552   5.714   0.613  16.491  0.6698 -0.4034  1.6746
16021TIP3   OH269553   3.940   3.584  14.967 -0.4682 -0.0284  0.0167
16021TIP3    H169554   4.025   3.540  14.975 -0.2099  0.5524  0.5621
16021TIP3    H269555   3.878   3.514  14.949 -0.2150 -0.7590  1.8797
16022TIP3   OH269556   2.848   3.268  13.766  0.0237 -0.2738 -0.6545
16022TIP3    H169557   2.907   3.219  13.822 -0.0773 -0.6689 -0.8961
16022TIP3    H269558   2.904   3.303  13.696  0.5036  1.8369  0.7302
16023TIP3   OH269559   4.693   6.453   2.595  0.3496 -0.7796 -0.5928
16023TIP3    H169560   4.713   6.526   2.653  0.2636 -1.2385  0.0094
16023TIP3    H269561   4.600   6.462   2.576  0.8217  0.6352 -2.4050
16024TIP3   OH269562   4.599   4.185   5.366 -0.2704 -0.0652  0.4431
16024TIP3    H169563   4.642   4.256   5.318 -1.6960 -0.1783 -1.0220
16024TIP3    H269564   4.521   4.226   5.405 -2.7208 -1.3956 -2.8314
16025TIP3   OH269565   5.989   6.667   3.053 -0.0888 -0.2563 -0.4656
16025TIP3    H169566   5.999   6.673   2.958  2.6471 -0.8566 -0.2593
16025TIP3    H269567   6.075   6.692   3.088 -1.4387  1.2422  1.9183
16026TIP3   OH269568   4.223   5.487   5.648 -0.1793  0.5863 -0.5864
16026TIP3    H169569   4.202   5.397   5.672  1.9607  0.4385  0.8125
16026TIP3    H269570   4.221   5.535   5.731  2.9630  0.9562 -0.6728
16027TIP3   OH269571   0.337   3.016   1.525  0.0160  0.0961 -0.9474
16027TIP3    H169572   0.248   3.021   1.560  0.0194 -0.3476 -0.8793
16027TIP3    H269573   0.356   3.106   1.497 -0.1490  0.3732 -0.2056
16028TIP3   OH269574   0.335   4.941   1.355  0.2706 -0.0623 -0.1796
16028TIP3    H169575   0.362   4.895   1.276  1.3170  0.6679 -0.2633
16028TIP3    H269576   0.253   4.984   1.331  0.6549  0.2690 -0.9128
16029TIP3   OH269577   3.729   0.183   0.918  0.1955  0.3215  0.0174
16029TIP3    H169578   3.675   0.129   0.974  1.2255  1.0564  1.7575
16029TIP3    H269579   3.786   0.231   0.978  2.5701 -0.2232 -1.7314
16030TIP3   OH269580   5.272   3.450  15.700  0.1389  0.2650 -0.2424
16030TIP3    H169581   5.266   3.517  15.768  1.1380  0.7205 -0.5891
16030TIP3    H269582   5.256   3.497  15.618  0.5698  0.0407 -0.4607
16031TIP3   OH269583   2.184   4.036   1.956  0.1851 -0.4892  0.3400
16031TIP3    H169584   2.190   4.107   2.021 -3.0381  0.8804 -0.7505
16031TIP3    H269585   2.106   3.987   1.982  0.3009 -1.4291 -1.0659
16032TIP3   OH269586   3.559   2.187   0.009  0.1271  0.5801  0.2571
16032TIP3    H169587   3.582   2.221  -0.077  0.5078  0.2223  0.2174
16032TIP3    H269588   3.505   2.110  -0.008  1.2008 -0.1969  0.3241
16033TIP3   OH269589   0.220   2.044   5.451 -0.3392 -0.0127  0.0724
16033TIP3    H169590   0.193   2.104   5.521 -0.3748  0.8986 -0.7062
16033TIP3    H269591   0.214   2.097   5.371 -0.5621 -1.1261 -0.6524
16034TIP3   OH269592   3.298   0.177   0.208  0.2836  0.1619  0.6087
16034TIP3    H169593   3.236   0.186   0.137  1.8645  1.2587 -0.6684
16034TIP3    H269594   3.245   0.185   0.288 -1.5018 -1.1603 -0.4194
16035TIP3   OH269595   6.391   6.693   0.303  0.2697 -0.7487 -0.1172
16035TIP3    H169596   6.479   6.692   0.265  0.3738  1.1055  0.0039
16035TIP3    H269597   6.396   6.760   0.371 -1.2705 -0.5664 -0.1830
16036TIP3   OH269598   5.841   4.074  15.112  0.2323  0.5076 -0.0120
16036TIP3    H169599   5.920   4.020  15.109  2.5113  3.6546  0.9577
16036TIP3    H269600   5.802   4.053  15.197  1.4157  0.7942  0.6185
16037TIP3   OH269601   6.127   6.493  14.376 -0.4210  0.3800  0.4305
16037TIP3    H169602   6.204   6.510  14.430  1.7052  0.6442 -2.5506
16037TIP3    H269603   6.109   6.399  14.388  0.2652  0.3587  1.2992
16038TIP3   OH269604   3.321   6.059   1.346  0.0335  0.1181  0.0933
16038TIP3    H169605   3.260   5.992   1.317  0.8599 -0.8556  0.6026
16038TIP3    H269606   3.328   6.118   1.270 -2.7656  1.1699  0.5815
16039TIP3   OH269607   0.245   3.743   0.294  0.3512 -0.3722 -0.7066
16039TIP3    H169608   0.304   3.722   0.221  0.7568  0.8964 -0.7678
16039TIP3    H269609   0.270   3.832   0.319  0.2457 -0.8125  1.0198
16040TIP3   OH269610   2.198   4.275   3.793  0.0385  0.3564 -0.2831
16040TIP3    H169611   2.186   4.369   3.800 -1.5517  0.2496 -1.3914
16040TIP3    H269612   2.208   4.245   3.884 -0.6683  1.4239  0.1515
16041TIP3   OH269613   6.647   5.551  12.457  0.4970 -0.7757 -0.0460
16041TIP3    H169614   6.620   5.629  12.505 -0.2524 -1.0468 -0.0167
16041TIP3    H269615   6.576   5.488  12.472  1.2818 -1.5997  0.2609
16042TIP3   OH269616   5.698   4.395  12.256 -0.2736 -0.0639 -0.5213
16042TIP3    H169617   5.642   4.328  12.295  0.6384 -0.1818  0.6459
16042TIP3    H269618   5.678   4.474  12.305  0.9633 -0.2375  0.3165
16043TIP3   OH269619   5.594   1.166  12.496  0.2682 -0.1509  0.4760
16043TIP3    H169620   5.568   1.105  12.564  0.0150  2.1351  2.4809
16043TIP3    H269621   5.569   1.122  12.414  0.1422 -2.7122  1.8397
16044TIP3   OH269622   3.194   2.760   3.157  0.3923  0.0901  0.0840
16044TIP3    H169623   3.133   2.827   3.189 -0.4247 -0.4624 -0.3061
16044TIP3    H269624   3.192   2.692   3.224  1.3386  0.5174  0.5531
16045TIP3   OH269625   1.883   1.820  14.773  0.5580 -0.0116 -0.2920
16045TIP3    H169626   1.869   1.740  14.722 -0.3959  0.0051 -0.0566
16045TIP3    H269627   1.799   1.837  14.815  1.4825 -0.3239  1.7394
16046TIP3   OH269628   2.190   4.903  16.276 -1.0026  0.3573  0.1043
16046TIP3    H169629   2.157   4.992  16.286 -0.0655  0.7341 -0.0567
16046TIP3    H269630   2.266   4.899  16.335 -0.2685  0.0745 -0.8495
16047TIP3   OH269631   6.168   1.709   2.335 -0.0697 -0.3122  0.1040
16047TIP3    H169632   6.137   1.622   2.312  0.8791 -0.0809 -2.1798
16047TIP3    H269633   6.158   1.760   2.255  4.3010  0.2584 -0.2045
16048TIP3   OH269634   4.147   0.699  13.776  0.4060  0.6907 -0.0588
16048TIP3    H169635   4.157   0.612  13.737 -1.5370 -0.1525  1.2486
16048TIP3    H269636   4.184   0.690  13.864 -1.8880  0.4987  0.9301
16049TIP3   OH269637   5.781   4.524  14.860 -0.3427  0.6752 -0.3391
16049TIP3    H169638   5.816   4.523  14.950 -1.6070 -0.7928  0.1381
16049TIP3    H269639   5.688   4.506  14.870  0.0887 -3.0521 -2.2035
16050TIP3   OH269640   1.025   0.209  11.938  0.0149  0.4002 -0.0024
16050TIP3    H169641   0.981   0.216  11.853 -1.7126 -2.1747  0.6121
16050TIP3    H269642   1.004   0.291  11.983  1.2630  1.9542 -2.1781
16051TIP3   OH269643   0.926   6.642   1.766 -0.5871 -0.2980  0.2870
16051TIP3    H169644   0.951   6.588   1.691 -1.7531  0.9362 -1.0217
16051TIP3    H269645   0.934   6.732   1.734 -0.7253  0.2586  1.7681
16052TIP3   OH269646   5.677   5.435   0.580 -0.0290  0.3474  0.0584
16052TIP3    H169647   5.744   5.467   0.640 -0.6726 -1.9113  2.0696
16052TIP3    H269648   5.600   5.488   0.599 -0.4814 -0.9070  1.9079
16053TIP3   OH269649   2.365   5.319  14.725 -0.2998  0.1681 -0.3880
16053TIP3    H169650   2.351   5.374  14.802 -2.5879  0.4696 -0.9729
16053TIP3    H269651   2.392   5.234  14.760 -2.6277 -0.0902  0.8364
16054TIP3   OH269652   4.799   2.238  11.622 -0.0211  0.1691 -0.2416
16054TIP3    H169653   4.883   2.195  11.608  0.4505  0.8921  0.3442
16054TIP3    H269654   4.800   2.263  11.714 -0.4074  1.1841 -0.5086
16055TIP3   OH269655   2.059   6.654  13.667  0.2003  0.2954 -0.3945
16055TIP3    H169656   2.055   6.615  13.754 -0.9165 -0.1841 -0.6601
16055TIP3    H269657   1.990   6.721  13.667 -0.5404 -0.4526 -1.2652
16056TIP3   OH269658   2.394   4.095  10.707  0.6195 -0.7793  0.4669
16056TIP3    H169659   2.457   4.035  10.666 -1.4315 -1.2317 -2.2112
16056TIP3    H269660   2.314   4.043  10.715 -0.4984  0.8824  0.3340
16057TIP3   OH269661   6.119   2.476  12.316  0.1661 -0.1755 -0.1947
16057TIP3    H169662   6.033   2.451  12.352 -0.0686  0.2629 -0.4491
16057TIP3    H269663   6.107   2.473  12.221  0.0958  1.0509 -0.2254
16058TIP3   OH269664   5.938   0.360   2.080 -0.1637 -0.6859 -0.1156
16058TIP3    H169665   5.989   0.429   2.123  1.5603 -1.3172 -1.0926
16058TIP3    H269666   5.919   0.297   2.150  3.5759 -2.2629 -0.4168
16059TIP3   OH269667   2.625   0.879  12.232 -0.4348  0.4169  0.0199
16059TIP3    H169668   2.555   0.898  12.295  0.9315 -0.5854  1.8554
16059TIP3    H269669   2.579   0.841  12.157 -1.9148  0.1364  1.0461
16060TIP3   OH269670   2.527   3.804   1.900  0.4433 -0.2493  0.4070
16060TIP3    H169671   2.513   3.710   1.910 -0.9972  0.0812  1.5096
16060TIP3    H269672   2.549   3.815   1.807 -0.4366 -1.5330  0.0432
16061TIP3   OH269673   0.476   3.492   0.552 -0.8647 -0.0174 -0.4878
16061TIP3    H169674   0.436   3.533   0.475  0.7557 -0.3820 -1.5484
16061TIP3    H269675   0.518   3.565   0.598  0.7524 -0.2432 -1.5825
16062TIP3   OH269676   2.277   2.442  12.294  0.3978  0.4833 -0.3243
16062TIP3    H169677   2.252   2.393  12.215  0.4814 -0.5227  0.2578
16062TIP3    H269678   2.372   2.432  12.298  0.4902  1.2412 -0.5477
16063TIP3   OH269679   5.054   3.538   2.938  0.3075  0.0553 -0.1947
16063TIP3    H169680   5.090   3.543   2.849  0.4389 -1.5053 -0.2411
16063TIP3    H269681   4.978   3.480   2.930  0.0349  0.2850  0.6339
16064TIP3   OH269682   3.010   2.311   5.351 -0.0322  0.3030 -0.5052
16064TIP3    H169683   3.017   2.300   5.256  3.5321  0.1000 -0.2802
16064TIP3    H269684   2.957   2.390   5.362 -1.8959 -0.5956 -2.5993
16065TIP3   OH269685   1.774   4.832  13.553 -0.3203  0.5250  0.0969
16065TIP3    H169686   1.768   4.793  13.466 -0.4891  2.6263 -0.8677
16065TIP3    H269687   1.755   4.760  13.613  2.3297 -1.5955 -1.4743
16066TIP3   OH269688   3.595   2.107   4.696  0.2467  0.0879 -0.2782
16066TIP3    H169689   3.505   2.095   4.665  0.8055 -0.3034 -1.7831
16066TIP3    H269690   3.589   2.178   4.759 -0.8342  1.3352 -1.7499
16067TIP3   OH269691   3.806   4.824   6.023  0.0530  0.1215  0.1392
16067TIP3    H169692   3.760   4.740   6.014 -0.0900  0.0296  1.4815
16067TIP3    H269693   3.898   4.803   6.009  0.2039 -0.5747  1.9617
16068TIP3   OH269694   2.561   2.096   3.691 -0.7331  0.5838  0.1042
16068TIP3    H169695   2.550   2.118   3.784  0.5186  0.5411  0.2725
16068TIP3    H269696   2.656   2.094   3.678 -0.8987  0.3597 -1.1263
16069TIP3   OH269697   0.754   2.994  14.512  0.3322  0.0536  0.3952
16069TIP3    H169698   0.784   2.979  14.422  2.0810 -0.5915  1.0501
16069TIP3    H269699   0.779   3.084  14.531 -1.0919  0.5736 -0.1455
16070TIP3   OH269700   4.553   4.622  13.679  0.0047  0.2395  0.0013
16070TIP3    H169701   4.643   4.613  13.648 -0.1216 -0.0322 -0.2938
16070TIP3    H269702   4.528   4.711  13.653 -0.0150  0.1013 -0.4505
16071TIP3   OH269703   4.150   0.700   4.322  0.0252 -0.2928 -0.1624
16071TIP3    H169704   4.124   0.790   4.300  2.2159 -0.1266 -2.3004
16071TIP3    H269705   4.070   0.659   4.355 -0.8957  2.5937  1.3312
16072TIP3   OH269706   0.847   6.766  15.646  0.0105 -0.0587 -0.1254
16072TIP3    H169707   0.838   6.679  15.684  0.9618 -0.1097 -0.0041
16072TIP3    H269708   0.937   6.769  15.613 -0.1704  0.7025 -0.5634
16073TIP3   OH269709   2.034   5.361  15.687  0.4912 -0.1616  0.0385
16073TIP3    H169710   1.989   5.378  15.604 -1.2758 -1.3679  0.7250
16073TIP3    H269711   2.054   5.448  15.721  0.6121  0.3550 -1.3166
16074TIP3   OH269712   5.726   6.433  10.731  0.3970  0.6157  0.8541
16074TIP3    H169713   5.653   6.480  10.691 -0.0743  1.4625  2.6439
16074TIP3    H269714   5.754   6.489  10.804  2.5181  0.0703  0.5059
16075TIP3   OH269715   1.132   0.919   0.878 -0.5381  0.5270  0.9170
16075TIP3    H169716   1.040   0.898   0.891 -0.1592 -0.6900  1.7694
16075TIP3    H269717   1.141   0.929   0.783 -1.1981 -1.1909  0.6417
16076TIP3   OH269718   2.983   0.050  16.080 -0.1115 -0.7650  0.1904
16076TIP3    H169719   2.942  -0.036  16.088  0.4261 -1.0287  0.0979
16076TIP3    H269720   3.066   0.041  16.126  0.1986 -0.4591 -0.3166
16077TIP3   OH269721   6.632   2.898   6.029 -0.1489  0.5034 -0.4057
16077TIP3    H169722   6.639   2.829   6.094  0.2435 -1.3804 -2.4110
16077TIP3    H269723   6.620   2.978   6.081 -1.4878 -1.1431  1.9206
16078TIP3   OH269724   4.392   2.067   1.840  0.3519 -0.1585 -0.8830
16078TIP3    H169725   4.299   2.079   1.858  0.1824 -0.1131 -1.7694
16078TIP3    H269726   4.436   2.126   1.901 -0.1806 -0.3847 -0.2666
16079TIP3   OH269727   0.533   3.980   0.611  0.2118 -0.5956 -0.0694
16079TIP3    H169728   0.489   4.047   0.664  0.0711 -0.4813 -0.3338
16079TIP3    H269729   0.626   3.995   0.627  0.3674  1.9910 -2.9215
16080TIP3   OH269730   2.260   2.554  14.810 -0.1483 -0.2039 -0.3742
16080TIP3    H169731   2.223   2.641  14.794  0.8439  0.0377 -1.3871
16080TIP3    H269732   2.320   2.540  14.737 -0.2705 -1.7250 -0.1910
16081TIP3   OH269733   0.391   3.912  12.499  0.3011 -0.2095  0.3858
16081TIP3    H169734   0.460   3.890  12.561  0.3369  0.6536  0.6501
16081TIP3    H269735   0.423   3.881  12.414 -0.2578 -2.5026  0.9640
16082TIP3   OH269736   4.115   4.828   2.742  0.2599 -0.2752  0.5862
16082TIP3    H169737   4.133   4.754   2.799  0.3076 -0.5176  0.2542
16082TIP3    H269738   4.171   4.898   2.776  2.4449 -1.2502 -0.9150
16083TIP3   OH269739   1.414   0.710   6.221  0.1232 -0.6552  0.8530
16083TIP3    H169740   1.406   0.731   6.314  0.3516 -2.1098  1.2277
16083TIP3    H269741   1.469   0.779   6.185  1.4017 -0.9698  2.1489
16084TIP3   OH269742   1.152   2.264   5.358 -0.1229 -0.2993 -0.0078
16084TIP3    H169743   1.093   2.191   5.335 -0.4487 -0.2452  0.6388
16084TIP3    H269744   1.093   2.336   5.381  0.1992  0.2530 -0.8834
16085TIP3   OH269745   5.043   0.393   2.167  0.0758  0.7137  0.1785
16085TIP3    H169746   5.085   0.478   2.182 -2.6528  2.4750 -1.7445
16085TIP3    H269747   4.956   0.415   2.135 -0.7617 -2.8511 -0.1440
16086TIP3   OH269748   5.907   3.594   5.921 -0.0222  0.1982 -0.4726
16086TIP3    H169749   5.986   3.542   5.928 -0.0043  0.5423  2.7102
16086TIP3    H269750   5.840   3.542   5.967 -0.4784  1.9975  0.9686
16087TIP3   OH269751   1.104   3.382   1.472  0.5595 -0.4534 -0.5449
16087TIP3    H169752   1.118   3.371   1.566  2.4180  1.3280 -0.5725
16087TIP3    H269753   1.071   3.298   1.442 -1.8946 -0.4827  2.0192
16088TIP3   OH269754   4.581   6.756  12.175  0.2584 -0.5511  0.0034
16088TIP3    H169755   4.551   6.728  12.262  0.5251 -0.0023  0.2728
16088TIP3    H269756   4.504   6.744  12.119  0.4992 -2.2341  0.0175
16089TIP3   OH269757   3.225   3.124  10.934 -0.3109 -0.1568  0.4928
16089TIP3    H169758   3.318   3.124  10.954 -0.1518  1.8701 -0.1855
16089TIP3    H269759   3.200   3.031  10.935  1.8909 -0.7660 -0.2400
16090TIP3   OH269760   2.223   2.170  14.847 -0.0791 -0.6615  0.4797
16090TIP3    H169761   2.176   2.097  14.887 -0.2478 -0.6096  0.3795
16090TIP3    H269762   2.181   2.181  14.761 -1.4429  0.9014  1.3264
16091TIP3   OH269763   6.630   1.169   3.430 -0.4816 -0.7244 -0.0515
16091TIP3    H169764   6.721   1.164   3.399 -0.4126  0.6663 -0.0970
16091TIP3    H269765   6.580   1.118   3.367 -0.3194  1.8686 -2.3533
16092TIP3   OH269766   0.614   4.816  13.203 -0.0506  0.2435  0.0107
16092TIP3    H169767   0.560   4.766  13.142 -0.8420 -2.5194  2.8236
16092TIP3    H269768   0.583   4.906  13.194 -2.7060 -0.7145 -0.9989
16093TIP3   OH269769   4.500   2.158   0.021 -0.4761  0.1446 -0.8732
16093TIP3    H169770   4.477   2.241   0.064  0.0757  0.2834 -0.8450
16093TIP3    H269771   4.415   2.118   0.000 -0.7910 -0.7881  1.9774
16094TIP3   OH269772   4.504   2.450   2.474  0.8207  0.0038  0.4832
16094TIP3    H169773   4.548   2.506   2.538  0.5812  1.7697 -0.8474
16094TIP3    H269774   4.504   2.501   2.393 -0.2761 -1.5365 -0.5287
16095TIP3   OH269775   4.145   2.449   1.293 -0.2108 -0.0498  0.4637
16095TIP3    H169776   4.230   2.420   1.328 -0.3207 -0.5002  0.3687
16095TIP3    H269777   4.165   2.478   1.205 -0.2289 -0.6038  0.2721
16096TIP3   OH269778   4.112   0.462  16.766  0.1785 -0.4545  0.2553
16096TIP3    H169779   4.125   0.453  16.861 -1.1069 -0.1179  0.4721
16096TIP3    H269780   4.018   0.449  16.754  0.1376  0.7905 -0.8240
16097TIP3   OH269781   1.544   2.396   3.107  0.1813  0.5588  0.0637
16097TIP3    H169782   1.579   2.440   3.029 -1.9036  2.6663  0.2742
16097TIP3    H269783   1.610   2.329   3.128  1.3876  0.7848 -2.7441
16098TIP3   OH269784   6.092   3.261  16.575  0.0289 -0.1453 -0.2365
16098TIP3    H169785   6.127   3.226  16.657 -3.1653  0.5183  1.5086
16098TIP3    H269786   6.143   3.341  16.559  0.3101  0.0138  1.4125
16099TIP3   OH269787   3.344   0.070   5.170  0.0136  0.6193 -0.0831
16099TIP3    H169788   3.271   0.065   5.108  0.4074  0.7759 -0.5602
16099TIP3    H269789   3.403  -0.000   5.143  0.1137  0.5858  0.2147
16100TIP3   OH269790   2.152   5.233   1.772 -0.2817  0.3526 -0.7636
16100TIP3    H169791   2.240   5.228   1.810 -1.2697  1.2739  1.7931
16100TIP3    H269792   2.122   5.142   1.768  0.4177  0.1204 -0.7329
16101TIP3   OH269793   2.619   3.518   3.349  0.2069 -0.3420  1.0358
16101TIP3    H169794   2.631   3.593   3.289 -0.1369 -0.0626  1.3171
16101TIP3    H269795   2.525   3.503   3.350  0.3214 -1.1188  0.5725
16102TIP3   OH269796   6.607   6.208  16.182  0.2727 -0.1085 -0.2233
16102TIP3    H169797   6.539   6.275  16.172  0.2162 -0.1573 -0.1542
16102TIP3    H269798   6.565   6.138  16.232  0.9206  0.6575  1.4289
16103TIP3   OH269799   6.441   2.608   2.721  0.6465  0.2105  0.0587
16103TIP3    H169800   6.474   2.694   2.747  1.2898  0.9037 -2.7754
16103TIP3    H269801   6.520   2.559   2.698  0.2226 -0.8410  0.8587
16104TIP3   OH269802   3.355   6.151   1.621  0.2429  0.1345  0.2458
16104TIP3    H169803   3.366   6.226   1.679  0.5018  0.2266  0.0797
16104TIP3    H269804   3.318   6.188   1.541 -2.0108 -0.2771  1.0659
16105TIP3   OH269805   1.508   6.227  12.441  0.1215  0.1670  0.1421
16105TIP3    H169806   1.561   6.148  12.452 -1.2312 -0.8268 -0.3580
16105TIP3    H269807   1.418   6.197  12.456 -0.2737  1.8850  1.2739
16106TIP3   OH269808   2.236   6.601  11.918 -0.3831  0.0672  0.2514
16106TIP3    H169809   2.265   6.607  11.827 -0.7714 -1.5213 -0.0030
16106TIP3    H269810   2.176   6.674  11.929 -0.1501  0.4152 -0.7009
16107TIP3   OH269811   2.694   3.917  10.278  0.1809  0.4324  0.3696
16107TIP3    H169812   2.659   3.984  10.336 -1.5463  0.2303 -0.3918
16107TIP3    H269813   2.626   3.850  10.275  1.3954 -0.8100  0.2188
16108TIP3   OH269814   1.807   4.588   0.382 -0.6945 -0.0416 -0.1146
16108TIP3    H169815   1.758   4.553   0.457  1.1714 -0.4483  0.9652
16108TIP3    H269816   1.829   4.678   0.407 -2.3778  0.7277 -1.3427
16109TIP3   OH269817   4.694   6.605  11.439 -0.3641 -0.4745 -0.1324
16109TIP3    H169818   4.702   6.521  11.485 -1.6858 -1.2677 -1.2966
16109TIP3    H269819   4.737   6.589  11.354  1.2656  0.6934  0.4513
16110TIP3   OH269820   5.776   5.324   1.302  0.1552  0.9704  0.0949
16110TIP3    H169821   5.763   5.308   1.396  3.2747  0.7323  0.5385
16110TIP3    H269822   5.857   5.375   1.297  1.2582 -0.8993 -2.5757
16111TIP3   OH269823   1.526   2.945  15.214  0.0777 -0.6622  0.3005
16111TIP3    H169824   1.431   2.946  15.214  0.0904  1.2408 -0.9229
16111TIP3    H269825   1.551   3.000  15.289  0.2361 -1.0699  0.5536
16112TIP3   OH269826   6.275   1.692   4.131  0.2449  0.8022  0.6585
16112TIP3    H169827   6.323   1.696   4.048  0.5501  1.3799  0.8617
16112TIP3    H269828   6.330   1.639   4.188  0.4462  1.1281  0.7652
16113TIP3   OH269829   2.475   6.016   5.662 -0.1290  0.5672 -0.1745
16113TIP3    H169830   2.429   6.098   5.680 -3.0611 -0.7110 -1.3889
16113TIP3    H269831   2.566   6.041   5.647 -0.7952  3.4604  0.4091
16114TIP3   OH269832   0.021   3.386   4.028  0.6076  0.0379  0.2402
16114TIP3    H169833   0.085   3.456   4.042  1.3335 -0.8552  1.4669
16114TIP3    H269834   0.074   3.307   4.018 -0.3192 -0.7547  1.5661
16115TIP3   OH269835   2.037   2.090  12.477  0.4548 -0.2771  0.5192
16115TIP3    H169836   1.979   2.098  12.402 -0.7595 -0.1524  1.4590
16115TIP3    H269837   2.080   2.175  12.484  0.5634 -0.2875 -0.0190
16116TIP3   OH269838   3.013   1.212  14.404  0.1918  0.4453  0.4366
16116TIP3    H169839   2.925   1.181  14.383  0.5492  0.6130 -1.3791
16116TIP3    H269840   3.041   1.158  14.478  0.2894 -2.7039 -1.8073
16117TIP3   OH269841   0.859   3.788   1.972  0.0673  0.2479 -0.5988
16117TIP3    H169842   0.916   3.823   1.903  0.1700  1.1708 -0.0547
16117TIP3    H269843   0.881   3.695   1.976 -0.2060  0.0966 -2.0732
16118TIP3   OH269844   4.983   0.914  16.840 -0.1315  0.2164 -0.4504
16118TIP3    H169845   4.895   0.880  16.826 -1.5901  3.2874  0.7759
16118TIP3    H269846   5.030   0.893  16.759 -1.8607 -1.7264 -1.0089
16119TIP3   OH269847   0.145   0.376   0.026 -0.5087  0.2122 -0.7697
16119TIP3    H169848   0.124   0.332  -0.057 -1.6228 -0.6084 -0.0669
16119TIP3    H269849   0.067   0.362   0.081  0.3511  0.4651  0.5285
16120TIP3   OH269850   5.397   1.727  10.871 -0.3767  0.5819 -0.1122
16120TIP3    H169851   5.399   1.631  10.866 -0.6769  0.6311 -1.2187
16120TIP3    H269852   5.313   1.752  10.833  0.1723  1.3466 -0.8358
16121TIP3   OH269853   1.682   6.437  12.986  0.3498 -0.1015 -0.2903
16121TIP3    H169854   1.660   6.371  12.920  0.9014  0.2007 -0.7752
16121TIP3    H269855   1.607   6.497  12.986 -0.1644 -0.7302  0.1688
16122TIP3   OH269856   3.589   5.755   2.885  0.3087 -0.3803 -0.5594
16122TIP3    H169857   3.636   5.801   2.816  1.0123 -0.6562 -0.2633
16122TIP3    H269858   3.559   5.825   2.943  0.2260 -0.1937 -0.8215
16123TIP3   OH269859   2.000   2.005  15.614  0.0597  0.2472  0.1615
16123TIP3    H169860   1.963   2.011  15.702 -2.2048  0.3206 -0.7792
16123TIP3    H269861   2.068   1.938  15.622 -0.0170  0.3546  1.9955
16124TIP3   OH269862   5.209   1.324   3.343 -0.5831  0.2733 -0.6828
16124TIP3    H169863   5.219   1.395   3.279  0.2309  0.3703 -0.4600
16124TIP3    H269864   5.275   1.344   3.409 -2.2172  0.8457  0.8087
16125TIP3   OH269865   4.976   3.027  12.511  0.3184  0.6535  0.1826
16125TIP3    H169866   5.026   2.967  12.455  0.1156 -1.0691  1.8261
16125TIP3    H269867   4.923   3.077  12.449  0.2243 -1.1035 -1.2233
16126TIP3   OH269868   2.956   3.932  14.980 -0.4272  0.3414  0.8189
16126TIP3    H169869   2.936   3.839  14.969  1.0341  0.3049 -2.0279
16126TIP3    H269870   2.881   3.978  14.942  0.1333  0.2725 -0.4056
16127TIP3   OH269871   5.143   1.039  16.615  0.1835 -0.3686 -0.0378
16127TIP3    H169872   5.181   1.088  16.688  1.0563 -0.7778 -0.1993
16127TIP3    H269873   5.206   0.968  16.598 -1.8443 -2.5732  1.2792
16128TIP3   OH269874   0.188   4.138   6.371 -0.2265  0.3065 -0.0717
16128TIP3    H169875   0.252   4.118   6.303  0.0049  1.3173 -0.1606
16128TIP3    H269876   0.241   4.172   6.444 -0.5132 -0.3415  0.4349
16129TIP3   OH269877   2.255   2.025   1.329  0.7941 -0.2451 -0.2063
16129TIP3    H169878   2.228   2.004   1.240  1.9892 -0.5486 -0.5032
16129TIP3    H269879   2.351   2.028   1.325  0.8443 -0.0429  1.0185
16130TIP3   OH269880   1.472   3.034  15.903  0.1241 -0.2676 -0.3561
16130TIP3    H169881   1.484   2.994  15.989 -0.1978 -0.2712 -0.3108
16130TIP3    H269882   1.521   2.978  15.843 -1.1384 -1.3120 -0.4378
16131TIP3   OH269883   5.288   0.314  11.925  0.0779  0.9113 -0.0181
16131TIP3    H169884   5.351   0.251  11.960 -0.4982 -0.2729 -1.0827
16131TIP3    H269885   5.212   0.261  11.901 -0.7965  2.1498 -0.0102
16132TIP3   OH269886   6.380   0.789  14.946  0.4992 -0.3729 -0.2866
16132TIP3    H169887   6.437   0.861  14.974 -1.7069  1.2366  0.2521
16132TIP3    H269888   6.314   0.782  15.016 -0.6940 -1.3290 -1.4830
16133TIP3   OH269889   2.374   4.960   5.740  0.0453  0.1445  0.3760
16133TIP3    H169890   2.282   4.933   5.735 -0.2990  1.2124  0.7444
16133TIP3    H269891   2.370   5.056   5.741  0.9954  0.1804  3.6359
16134TIP3   OH269892   2.034   2.246   2.980  0.4259 -0.6846  0.1092
16134TIP3    H169893   1.947   2.264   2.944  0.2672  1.0266  1.2933
16134TIP3    H269894   2.026   2.159   3.019 -1.3469  0.2807  1.9653
16135TIP3   OH269895   3.972   1.755   2.149 -0.0178  0.1710 -0.4757
16135TIP3    H169896   3.974   1.762   2.054  1.1868  1.0602 -0.4037
16135TIP3    H269897   3.986   1.844   2.180  0.2069 -0.2041  0.5374
16136TIP3   OH269898   0.309   2.087  11.858  1.0643  0.4024 -0.2548
16136TIP3    H169899   0.223   2.065  11.821 -0.6966  1.6158  2.9467
16136TIP3    H269900   0.338   2.163  11.809 -0.0120  0.4115 -0.8871
16137TIP3   OH269901   4.732   0.036   0.311 -0.1363 -0.6099 -0.1853
16137TIP3    H169902   4.788   0.099   0.355 -1.8891  1.4698 -0.8398
16137TIP3    H269903   4.775   0.021   0.227 -0.4370  0.8609 -0.6254
16138TIP3   OH269904   3.231   2.263   2.387  0.6291  0.0117  0.1447
16138TIP3    H169905   3.223   2.352   2.353 -0.2753 -0.1966 -0.2081
16138TIP3    H269906   3.168   2.259   2.459  0.1303 -0.5678 -0.3241
16139TIP3   OH269907   5.745   3.204   3.842 -0.0069 -0.2524  0.1023
16139TIP3    H169908   5.775   3.123   3.883  2.6800  0.5078 -0.2708
16139TIP3    H269909   5.750   3.270   3.911  0.4214  0.1525 -0.3128
16140TIP3   OH269910   1.357   5.241  12.387 -0.2001 -0.1440 -0.0814
16140TIP3    H169911   1.388   5.322  12.428 -1.4109  0.3267 -0.0946
16140TIP3    H269912   1.346   5.263  12.295  1.3962 -0.8852 -0.4696
16141TIP3   OH269913   4.570   4.695  14.367 -0.1850  0.8955  0.1894
16141TIP3    H169914   4.515   4.631  14.323 -0.5954  1.1807  0.2837
16141TIP3    H269915   4.578   4.662  14.457  0.6026  0.3455 -0.0756
16142TIP3   OH269916   0.089   0.377   2.684  0.6076 -0.1769 -0.1750
16142TIP3    H169917   0.157   0.397   2.620  0.8256 -1.9306 -0.4983
16142TIP3    H269918   0.119   0.420   2.764  0.8588  1.1288 -0.9387
16143TIP3   OH269919   6.240   5.914   3.794 -0.0075 -0.0336  0.1838
16143TIP3    H169920   6.165   5.973   3.786  0.0216 -0.2063 -1.5032
16143TIP3    H269921   6.228   5.850   3.723  1.8160  0.0334 -0.2087
16144TIP3   OH269922   3.901   3.390   5.068  0.1730  0.0682  0.0838
16144TIP3    H169923   3.910   3.485   5.057  0.2776  0.1748  1.0192
16144TIP3    H269924   3.878   3.379   5.160  0.5427 -0.8382  0.0717
16145TIP3   OH269925   1.498   1.391   5.039 -0.2119 -1.0493  0.4283
16145TIP3    H169926   1.416   1.370   5.084 -1.2409  0.8388 -0.4862
16145TIP3    H269927   1.544   1.449   5.099  0.8744 -2.8027  1.3155
16146TIP3   OH269928   0.772   1.324   3.590 -0.2488  0.4929 -0.0643
16146TIP3    H169929   0.770   1.413   3.554  2.3160  2.1749  3.6395
16146TIP3    H269930   0.682   1.307   3.617 -0.7995  1.8835 -0.9744
16147TIP3   OH269931   4.986   4.889  14.056  0.6831 -0.5013  0.1833
16147TIP3    H169932   5.036   4.810  14.075 -1.2548 -1.6054  0.8552
16147TIP3    H269933   4.896   4.858  14.042  0.2079  1.3874 -1.2426
16148TIP3   OH269934   0.973   3.447  12.949  0.0448 -0.5313 -0.8980
16148TIP3    H169935   1.004   3.364  12.914 -0.2821 -0.5228 -1.2113
16148TIP3    H269936   0.954   3.429  13.041  1.5473 -0.3871 -0.5486
16149TIP3   OH269937   4.864   5.478  12.475  0.1344 -0.4970  0.2719
16149TIP3    H169938   4.878   5.440  12.562  1.7612 -3.0052 -1.0134
16149TIP3    H269939   4.770   5.471  12.460  0.1610 -2.2510  0.8834
16150TIP3   OH269940   5.275   4.260  16.152 -0.1790  0.0270 -0.8717
16150TIP3    H169941   5.254   4.350  16.175 -0.6494 -0.0202 -1.1042
16150TIP3    H269942   5.336   4.267  16.079 -1.2010  0.1536 -1.7272
16151TIP3   OH269943   4.238   0.531   0.848 -0.0524  0.0545  0.5384
16151TIP3    H169944   4.171   0.465   0.834 -1.2138  1.3306 -0.0978
16151TIP3    H269945   4.275   0.511   0.934  0.7093 -2.3419 -0.3281
16152TIP3   OH269946   5.763   1.378  10.980  0.0790  0.9209 -0.3708
16152TIP3    H169947   5.741   1.349  10.892 -1.1817 -2.1929  0.9069
16152TIP3    H269948   5.700   1.449  10.998 -0.4499  0.7500 -1.5078
16153TIP3   OH269949   2.164   3.336   4.031 -0.0583 -0.2744  0.3218
16153TIP3    H169950   2.138   3.424   4.058 -1.1787 -0.5378  0.1390
16153TIP3    H269951   2.256   3.329   4.057 -0.0664  0.8133  0.6713
16154TIP3   OH269952   4.962   2.727  14.136 -0.0452  0.4333 -0.3955
16154TIP3    H169953   4.954   2.676  14.055  2.4323 -0.2968 -0.2191
16154TIP3    H269954   5.011   2.670  14.195  1.0573  2.2568  0.4811
16155TIP3   OH269955   5.909   5.100   4.799  0.1900  0.0295  0.2015
16155TIP3    H169956   5.854   5.161   4.848  1.1473  0.1756  1.0959
16155TIP3    H269957   5.940   5.037   4.864  0.0729 -0.7918 -0.5241
16156TIP3   OH269958   0.011   3.133  13.581 -0.3137 -0.0048  0.5418
16156TIP3    H169959   0.034   3.201  13.645 -1.3633  0.5766  0.3121
16156TIP3    H269960   0.011   3.052  13.632 -0.1905  0.3245  1.0729
16157TIP3   OH269961   5.140   2.698   2.847 -0.0693  0.2246 -0.3217
16157TIP3    H169962   5.235   2.707   2.840 -0.1257  1.2179  0.0790
16157TIP3    H269963   5.126   2.650   2.928  0.0759  0.7642  0.0311
16158TIP3   OH269964   6.269   3.099  12.095  0.1956 -0.6086  0.2733
16158TIP3    H169965   6.282   3.194  12.088 -0.6531 -0.5493 -0.5159
16158TIP3    H269966   6.313   3.075  12.177  1.2303  0.3104 -0.0035
16159TIP3   OH269967   1.184   6.707   4.528 -0.0804 -0.2424  0.3033
16159TIP3    H169968   1.161   6.673   4.442  0.6145 -1.8777  0.7556
16159TIP3    H269969   1.223   6.633   4.574  1.5943  1.1898  1.2458
16160TIP3   OH269970   2.747   6.276   4.075  0.5473 -0.1057 -0.0175
16160TIP3    H169971   2.697   6.195   4.071  0.5862 -0.1235 -0.1525
16160TIP3    H269972   2.701   6.335   4.015  0.4701 -0.0002  0.1440
16161TIP3   OH269973   1.129   0.060  14.218 -0.3158 -0.3350 -0.3143
16161TIP3    H169974   1.186   0.085  14.146 -0.3949  1.5898  0.2553
16161TIP3    H269975   1.185   0.066  14.296 -0.7462 -0.4322  0.0062
16162TIP3   OH269976   0.940   2.772  13.980  0.1138 -0.0344  0.2791
16162TIP3    H169977   0.859   2.751  14.026 -0.6118 -0.0987 -1.0071
16162TIP3    H269978   0.914   2.836  13.913  1.1690  0.1750  0.0682
16163TIP3   OH269979   2.885   0.606  15.356  0.4807 -0.6471 -0.3756
16163TIP3    H169980   2.834   0.680  15.389  1.0950 -0.3906  0.0100
16163TIP3    H269981   2.970   0.644  15.332  0.4712 -1.0566 -1.0732
16164TIP3   OH269982   6.526   2.712   4.056  0.2603 -0.3762  0.8520
16164TIP3    H169983   6.560   2.764   4.128 -0.2614 -0.4711  1.1705
16164TIP3    H269984   6.446   2.672   4.090 -0.9902  1.0255 -0.3537
16165TIP3   OH269985   6.585   2.145  12.115 -0.6588 -0.3980 -0.1143
16165TIP3    H169986   6.576   2.227  12.164  0.6639 -1.5868  2.2384
16165TIP3    H269987   6.496   2.113  12.105 -0.9942  0.0411  1.2980
16166TIP3   OH269988   4.933   0.524   2.709  0.1830 -0.7090  0.5110
16166TIP3    H169989   4.954   0.471   2.787  1.1304  0.2318  0.9117
16166TIP3    H269990   4.838   0.515   2.699  0.0351 -0.7466  1.8497
16167TIP3   OH269991   6.308   4.852  14.966  0.2934  0.1369  0.0729
16167TIP3    H169992   6.284   4.766  14.933 -2.7183  0.1751  1.9783
16167TIP3    H269993   6.316   4.907  14.887 -0.5381 -1.2090 -0.9706
16168TIP3   OH269994   5.373   2.063   1.965  0.1463  0.1880 -0.2668
16168TIP3    H169995   5.314   2.116   1.912 -0.6729 -0.5051 -0.0547
16168TIP3    H269996   5.419   2.126   2.020 -0.3952  0.7321 -0.4344
16169TIP3   OH269997   5.379   3.266   1.595  0.3412  0.1426 -0.1703
16169TIP3    H169998   5.306   3.258   1.534  1.5619 -0.7359 -1.5573
16169TIP3    H269999   5.444   3.318   1.547  0.7673  0.6027  0.9073
16170TIP3   OH270000   0.659   2.257  11.188  0.1398  0.1510 -0.8648
16170TIP3    H170001   0.624   2.221  11.270  2.1230 -0.5950 -0.3130
16170TIP3    H270002   0.583   2.294  11.144 -1.1038 -0.1911  0.9264
16171TIP3   OH270003   0.410   3.970   0.377  0.3771  0.2810 -0.3241
16171TIP3    H170004   0.376   4.059   0.391  0.3575  0.3712 -0.9301
16171TIP3    H270005   0.448   3.945   0.461  0.4274  0.8832 -0.1681
16172TIP3   OH270006   3.081   3.259   5.218  0.3884  0.6690  0.2571
16172TIP3    H170007   3.121   3.220   5.296 -0.1358  0.3004  0.3494
16172TIP3    H270008   3.101   3.197   5.148  0.8115  0.9726  0.1100
16173TIP3   OH270009   4.674   4.314  15.880  0.0798  0.2018 -0.5254
16173TIP3    H170010   4.653   4.237  15.932  0.2585  0.4581 -0.0693
16173TIP3    H270011   4.735   4.283  15.814  1.9525  0.4062  1.0659
16174TIP3   OH270012   6.726   5.341   0.281 -0.5059 -0.1494  0.3494
16174TIP3    H170013   6.676   5.414   0.318 -0.2448  0.6618 -0.8795
16174TIP3    H270014   6.790   5.383   0.223 -2.5999 -1.5062 -3.0949
16175TIP3   OH270015   2.448   0.128  14.477  0.5832  0.0264  0.1013
16175TIP3    H170016   2.417   0.038  14.467  0.6128  0.1823 -1.5950
16175TIP3    H270017   2.543   0.122  14.462  0.5069  0.4155 -0.5287
16176TIP3   OH270018   2.751   2.017   3.056 -0.2414 -0.4335  0.2476
16176TIP3    H170019   2.764   1.923   3.046  2.0593 -0.2937  1.6435
16176TIP3    H270020   2.837   2.056   3.042 -0.8537  1.3413  1.1723
16177TIP3   OH270021   6.406   3.055  11.834 -0.2598 -0.4638 -0.0431
16177TIP3    H170022   6.427   3.007  11.754 -2.2478  0.3684 -1.0941
16177TIP3    H270023   6.444   3.002  11.904 -0.4149 -2.3708 -1.3554
16178TIP3   OH270024   6.559   2.518  15.770  0.1702 -0.0492  0.3798
16178TIP3    H170025   6.472   2.554  15.751  0.2327  0.0209  0.2263
16178TIP3    H270026   6.550   2.482  15.858  0.5584  1.7980  1.2119
16179TIP3   OH270027   1.694   0.266   1.313  0.4787  0.3140 -0.4887
16179TIP3    H170028   1.737   0.247   1.397  0.2949  0.4392 -0.3632
16179TIP3    H270029   1.605   0.290   1.338  0.8894  1.9987 -0.5858
16180TIP3   OH270030   3.884   0.336  11.702  0.1320  0.1428  0.4155
16180TIP3    H170031   3.908   0.418  11.744  0.0303 -0.9412  2.7257
16180TIP3    H270032   3.958   0.278  11.718 -0.1699 -0.4849 -0.3919
16181TIP3   OH270033   1.387   2.732  10.947 -0.2508  0.0405  0.0743
16181TIP3    H170034   1.467   2.682  10.964  0.2502  0.7480 -0.2015
16181TIP3    H270035   1.318   2.665  10.941  0.4795 -0.6507 -0.6905
16182TIP3   OH270036   3.610   5.505   6.141 -0.6240 -0.1543  0.1841
16182TIP3    H170037   3.553   5.579   6.162 -1.3818 -1.0610  1.4133
16182TIP3    H270038   3.699   5.542   6.142 -1.0516  0.8965  0.0034
16183TIP3   OH270039   4.960   2.532   0.258 -0.7591  0.1851 -0.5330
16183TIP3    H170040   4.929   2.574   0.338 -1.2540 -0.2688 -0.4814
16183TIP3    H270041   4.977   2.604   0.198 -1.6149  0.4687 -0.4484
16184TIP3   OH270042   1.122   2.885   1.361  0.0342  0.2843  0.1756
16184TIP3    H170043   1.211   2.920   1.352  0.5120 -0.7075  0.9789
16184TIP3    H270044   1.095   2.867   1.271  0.4012  1.1947 -0.1237
16185TIP3   OH270045   5.125   5.410  11.827 -0.1497 -0.4104  0.0241
16185TIP3    H170046   5.215   5.437  11.812 -0.6069  2.5556  2.1047
16185TIP3    H270047   5.132   5.332  11.883  1.0921  0.5033  1.1537
16186TIP3   OH270048   2.786   2.487   5.713  0.3520  0.8851 -0.0380
16186TIP3    H170049   2.755   2.538   5.787 -0.4360  1.3697 -0.6877
16186TIP3    H270050   2.867   2.529   5.687  0.0095  1.4538 -0.1971
16187TIP3   OH270051   0.887   5.691  12.852  0.4136  0.6177  0.2881
16187TIP3    H170052   0.884   5.624  12.920  2.0433  0.5253  0.2972
16187TIP3    H270053   0.810   5.745  12.868 -0.2207 -0.4903  1.0662
16188TIP3   OH270054   1.388   4.897   6.722  0.2102 -0.1084 -0.4151
16188TIP3    H170055   1.476   4.861   6.730 -0.4280 -1.4034  1.1439
16188TIP3    H270056   1.359   4.874   6.634  0.3890 -2.1032  0.0341
16189TIP3   OH270057   5.605   3.074   1.937 -0.6358 -0.0579 -0.3223
16189TIP3    H170058   5.512   3.054   1.926 -0.6297 -0.3500  0.1563
16189TIP3    H270059   5.610   3.169   1.932 -0.8693 -0.0820 -1.0528
16190TIP3   OH270060   2.180   2.746   1.866 -0.3025  0.2263 -0.0777
16190TIP3    H170061   2.185   2.705   1.953  1.4497 -0.9806 -0.7192
16190TIP3    H270062   2.110   2.699   1.821 -1.1804  0.8196  0.6565
16191TIP3   OH270063   0.563   3.216  15.993 -0.5778 -0.1464  0.1079
16191TIP3    H170064   0.647   3.171  15.986  0.0938  0.9679  0.7164
16191TIP3    H270065   0.504   3.168  15.935 -0.2260 -2.5607  1.6888
16192TIP3   OH270066   1.400   0.029  15.436 -0.2194  0.1905 -0.7977
16192TIP3    H170067   1.467   0.011  15.370  0.2328  0.4501 -0.4094
16192TIP3    H270068   1.317   0.011  15.391  0.1641 -2.0472 -0.6881
16193TIP3   OH270069   5.112   1.068   5.842 -0.0338 -0.1713 -0.3502
16193TIP3    H170070   5.093   1.045   5.933  1.2959 -0.3214 -0.1088
16193TIP3    H270071   5.151   1.156   5.847 -0.2640 -0.0420 -0.8034
16194TIP3   OH270072   4.748   1.518  14.173  0.4256  0.0758  0.6351
16194TIP3    H170073   4.829   1.540  14.220  0.1918  2.0483  0.1778
16194TIP3    H270074   4.758   1.426  14.149  1.2220 -0.5508  3.2009
16195TIP3   OH270075   2.114   4.483   0.124 -0.1522 -0.3199 -0.3561
16195TIP3    H170076   2.079   4.439   0.202 -0.9951  0.4663 -0.2819
16195TIP3    H270077   2.208   4.468   0.128 -0.2210 -0.4888  0.6898
16196TIP3   OH270078   1.904   5.742  13.096  0.3548 -0.1211 -0.1953
16196TIP3    H170079   1.972   5.687  13.057 -1.8363 -2.1499 -1.3143
16196TIP3    H270080   1.882   5.698  13.178  1.1442  1.1228  0.6841
16197TIP3   OH270081   1.158   0.204   6.196  0.3923 -0.0090  0.2003
16197TIP3    H170082   1.095   0.276   6.191  2.6995  2.0927 -0.0666
16197TIP3    H270083   1.178   0.197   6.290  1.7727  1.2181  0.0246
16198TIP3   OH270084   3.321   4.391   5.591  0.3117 -0.0710  0.7625
16198TIP3    H170085   3.350   4.461   5.533  2.2357  0.7720  2.6933
16198TIP3    H270086   3.276   4.436   5.663 -0.4362 -0.9835  0.8835
16199TIP3   OH270087   0.593   5.958  11.684  0.1493  0.1480 -0.4966
16199TIP3    H170088   0.604   5.880  11.630  0.3176 -0.7068  0.7748
16199TIP3    H270089   0.670   6.012  11.664 -0.8403  0.8265 -2.7107
16200TIP3   OH270090   5.828   3.358  16.746 -0.6781  0.0430 -0.5305
16200TIP3    H170091   5.890   3.345  16.673 -0.7862  2.9887 -1.2052
16200TIP3    H270092   5.879   3.403  16.813 -0.8807 -1.7021  0.8544
16201TIP3   OH270093   0.764   6.037  12.317 -0.5541  0.3066  0.2783
16201TIP3    H170094   0.848   6.083  12.327 -0.8012  0.8258 -0.0091
16201TIP3    H270095   0.733   6.024  12.407 -0.0028 -0.1911  0.3991
16202TIP3   OH270096   0.211   4.085  11.796  0.0143  0.5930 -0.7563
16202TIP3    H170097   0.242   4.024  11.863  3.0630  1.4019 -1.3762
16202TIP3    H270098   0.180   4.030  11.725 -0.3702 -0.2510  0.0578
16203TIP3   OH270099   5.025   2.357   4.464 -0.5979  0.3411  0.6150
16203TIP3    H170100   4.991   2.291   4.524 -0.4691  0.3204  0.6645
16203TIP3    H270101   5.103   2.391   4.506 -0.2974  0.0607  0.2905
16204TIP3   OH270102   2.268   6.772  13.540 -0.2627 -0.0876  0.1657
16204TIP3    H170103   2.280   6.854  13.588  1.7150  0.1965 -0.7548
16204TIP3    H270104   2.191   6.732  13.580 -0.4074  1.5446  1.5831
16205TIP3   OH270105   4.732   1.319   0.035 -0.2022 -0.5788 -0.7850
16205TIP3    H170106   4.652   1.343   0.082  0.8169 -1.1323  1.2951
16205TIP3    H270107   4.733   1.223   0.037  0.2937 -0.5851 -1.1717
16206TIP3   OH270108   3.765   1.349   5.514  0.1142  0.0532  0.2356
16206TIP3    H170109   3.709   1.289   5.564  0.8483 -1.5144 -0.7825
16206TIP3    H270110   3.704   1.413   5.477 -1.0572 -1.7269 -0.9860
16207TIP3   OH270111   6.447   1.226   1.573  0.1939  0.4730 -0.1407
16207TIP3    H170112   6.360   1.255   1.602  1.1549  2.0546  1.2595
16207TIP3    H270113   6.432   1.139   1.535 -1.5764 -0.4224  2.4967
16208TIP3   OH270114   1.986   1.523   0.916 -0.0532 -0.3576 -0.2308
16208TIP3    H170115   1.901   1.534   0.874  0.4342 -3.2347 -2.0782
16208TIP3    H270116   2.050   1.541   0.847  0.7877 -2.5344 -0.0463
16209TIP3   OH270117   6.021   1.571   1.651  0.7683 -0.4993  0.1216
16209TIP3    H170118   6.057   1.483   1.647 -1.1987 -1.3400  0.2884
16209TIP3    H270119   6.031   1.598   1.742 -1.9996 -2.0684  0.9648
16210TIP3   OH270120   1.637   0.230  13.048  0.0022  0.3488  0.4729
16210TIP3    H170121   1.567   0.277  13.003 -1.1350  0.0853  1.9390
16210TIP3    H270122   1.686   0.187  12.978  1.0095  3.6070 -0.9068
16211TIP3   OH270123   0.543   6.304  15.969  0.2570 -0.1327 -0.4197
16211TIP3    H170124   0.470   6.270  16.020 -0.2522 -0.6114 -1.4589
16211TIP3    H270125   0.549   6.396  15.993 -1.0068  0.0248 -0.7382
16212TIP3   OH270126   6.490   4.711  12.243  0.5573  0.2134 -0.1415
16212TIP3    H170127   6.407   4.756  12.228  0.3765  1.0053  2.8605
16212TIP3    H270128   6.476   4.660  12.323  2.7063 -0.2378 -0.0131
16213TIP3   OH270129   5.819   1.569  11.285 -0.2485  0.1697  0.0420
16213TIP3    H170130   5.767   1.553  11.206 -0.3537 -1.1118  0.3614
16213TIP3    H270131   5.792   1.656  11.314 -0.5933  0.4339 -1.0399
16214TIP3   OH270132   3.732   1.589  12.779 -0.1488 -0.3688  0.0134
16214TIP3    H170133   3.703   1.546  12.699 -1.5932 -1.5514  1.1378
16214TIP3    H270134   3.713   1.526  12.849 -0.7698  1.4206  1.5063
16215TIP3   OH270135   6.122   1.837   1.866 -0.4522 -0.0913 -0.6334
16215TIP3    H170136   6.116   1.836   1.962  1.1396  2.0156 -0.4658
16215TIP3    H270137   6.037   1.871   1.837 -0.1882  1.3053  0.1577
16216TIP3   OH270138   4.157   3.246  11.505 -0.1073 -0.1766  1.0687
16216TIP3    H170139   4.161   3.169  11.562  0.8403  0.3175  1.6772
16216TIP3    H270140   4.084   3.297  11.538 -0.8334 -0.8733  0.5748
16217TIP3   OH270141   5.659   5.786   2.125 -0.9867  0.1100  0.2908
16217TIP3    H170142   5.647   5.744   2.210  0.8738 -0.7503  0.1541
16217TIP3    H270143   5.632   5.720   2.061 -0.2181 -0.0816  0.1547
16218TIP3   OH270144   0.376   5.967   5.039  0.0602  0.2714  0.2307
16218TIP3    H170145   0.288   6.002   5.032  0.6188  1.7098  0.2114
16218TIP3    H270146   0.370   5.897   5.103 -1.6965 -1.6264 -1.9422
16219TIP3   OH270147   6.639   0.112   3.381  0.1307 -0.0401  0.3386
16219TIP3    H170148   6.621   0.194   3.426  0.8852  0.1805  0.2332
16219TIP3    H270149   6.591   0.118   3.299 -1.3922 -0.5092  1.1588
16220TIP3   OH270150   6.741   2.270   2.870  1.1301 -0.2549 -0.3099
16220TIP3    H170151   6.715   2.180   2.852 -0.3719  0.3446 -1.2648
16220TIP3    H270152   6.697   2.291   2.952 -1.1157  0.6148 -1.7001
16221TIP3   OH270153   5.219   1.802  16.776  0.0123 -0.5310 -0.2643
16221TIP3    H170154   5.297   1.835  16.822 -0.9282  0.8370  0.3962
16221TIP3    H270155   5.198   1.720  16.820  0.3346 -0.2670  0.3956
16222TIP3   OH270156   2.594   6.299   6.298 -0.1845 -0.5553  0.3959
16222TIP3    H170157   2.529   6.240   6.337  0.5189 -1.8396 -0.3146
16222TIP3    H270158   2.677   6.271   6.336  0.5902 -2.1854 -2.3441
16223TIP3   OH270159   0.345   4.571   4.324  0.3647  0.1264  0.1555
16223TIP3    H170160   0.282   4.516   4.370 -0.3507  1.4159  0.7732
16223TIP3    H270161   0.312   4.575   4.234  0.9189 -1.1655 -0.1089
16224TIP3   OH270162   3.730   5.411  16.653 -0.0175 -0.1712  0.2325
16224TIP3    H170163   3.759   5.352  16.583  0.4228  1.1139 -0.6961
16224TIP3    H270164   3.796   5.401  16.722 -0.4401 -1.4277  0.4626
16225TIP3   OH270165   4.422   3.368  16.671  0.9970 -0.0080  0.5419
16225TIP3    H170166   4.422   3.309  16.747  0.4128 -0.7511 -0.0304
16225TIP3    H270167   4.468   3.319  16.603 -0.7045 -0.3694 -0.3704
16226TIP3   OH270168   2.957   2.231  16.989 -0.6304  0.7919  0.4152
16226TIP3    H170169   2.927   2.158  17.044 -0.7244  0.8301  0.4140
16226TIP3    H270170   3.045   2.207  16.962 -0.7830  0.5274  0.1510
16227TIP3   OH270171   5.717   4.324  16.236  0.0883 -0.2578  0.0022
16227TIP3    H170172   5.669   4.241  16.246  1.0070 -1.0596 -1.9858
16227TIP3    H270173   5.659   4.390  16.275 -1.2583 -1.6468  0.3956
16228TIP3   OH270174   2.930   2.243   0.738  0.6391  0.8195 -0.6427
16228TIP3    H170175   2.879   2.210   0.812  0.8367  1.8714 -0.0367
16228TIP3    H270176   2.950   2.334   0.760  2.5515  0.5155 -0.9719
16229TIP3   OH270177   5.150   0.025   2.268  0.1683 -0.2344  0.3681
16229TIP3    H170178   5.131  -0.066   2.293 -2.4705  0.4459  0.9853
16229TIP3    H270179   5.151   0.025   2.173  1.3368 -1.1159  0.3694
16230TIP3   OH270180   3.581   6.542  16.876 -0.4790 -0.5693  0.4633
16230TIP3    H170181   3.537   6.515  16.957 -0.3927 -2.2503 -0.0316
16230TIP3    H270182   3.526   6.612  16.841 -1.5554 -1.1285  0.9997
16231TIP3   OH270183   6.449   1.250   6.107 -0.1602 -0.3117 -0.1891
16231TIP3    H170184   6.528   1.236   6.158 -0.0743 -1.9281 -0.7364
16231TIP3    H270185   6.378   1.212   6.159 -0.6697  1.6006  0.5429
16232TIP3   OH270186   4.445   4.541  11.995 -0.2207  0.5924 -0.1757
16232TIP3    H170187   4.438   4.619  12.051  0.5753  1.5118 -1.3327
16232TIP3    H270188   4.360   4.498  12.002  0.3691 -0.1922  3.0138
16233TIP3   OH270189   4.899   5.228  12.333  0.3015 -0.3883 -0.6884
16233TIP3    H170190   4.850   5.177  12.398 -1.8276  0.3472 -1.6499
16233TIP3    H270191   4.918   5.311  12.377 -0.6564 -0.1053 -0.7800
16234TIP3   OH270192   2.346   6.152   1.181  0.1557  0.2850  0.0225
16234TIP3    H170193   2.362   6.203   1.102 -0.5924 -1.0009 -0.9707
16234TIP3    H270194   2.424   6.098   1.192  0.0538  0.1143 -0.0993
16235TIP3   OH270195   5.434   6.765  14.912 -0.5134  0.5315 -0.5354
16235TIP3    H170196   5.397   6.747  14.998 -0.1359 -1.6096 -0.7963
16235TIP3    H270197   5.505   6.827  14.928 -2.2220  2.3614  0.3214
16236TIP3   OH270198   6.285   3.191  15.420  0.0363 -0.2970 -0.2240
16236TIP3    H170199   6.338   3.270  15.428  0.2342 -0.3247 -1.1896
16236TIP3    H270200   6.283   3.154  15.508  1.2006 -0.0286 -0.0733
16237TIP3   OH270201   6.683   3.705   3.517 -0.4567 -0.5954 -0.2441
16237TIP3    H170202   6.668   3.681   3.425 -1.6452 -5.4279  1.0212
16237TIP3    H270203   6.773   3.677   3.534  0.2710  1.6647 -0.2784
16238TIP3   OH270204   3.236   3.553   2.659 -0.0896 -0.3627  0.0891
16238TIP3    H170205   3.235   3.564   2.754 -0.3796 -0.5423  0.1068
16238TIP3    H270206   3.297   3.620   2.628 -0.8199  0.4059  0.3106
16239TIP3   OH270207   4.089   2.015  12.082 -0.4000 -0.2894  0.0214
16239TIP3    H170208   3.995   2.020  12.065 -0.8833 -1.6645  2.1645
16239TIP3    H270209   4.110   1.922  12.078  1.0390  0.0745 -1.2524
16240TIP3   OH270210   3.396   2.025  14.049 -0.5017 -0.4934  0.5147
16240TIP3    H170211   3.301   2.039  14.048 -0.3937  0.2571  0.3878
16240TIP3    H270212   3.431   2.109  14.080  0.1323 -0.6950  0.3262
16241TIP3   OH270213   1.916   6.397  11.387 -0.7086 -0.5195 -0.7560
16241TIP3    H170214   1.880   6.451  11.457  0.2390 -0.6064 -0.1914
16241TIP3    H270215   1.878   6.432  11.307  0.0494  1.1071 -0.4165
16242TIP3   OH270216   5.590   1.227   6.060  0.1395 -0.0375 -0.0480
16242TIP3    H170217   5.604   1.313   6.019 -1.1588  1.1747  1.9879
16242TIP3    H270218   5.495   1.215   6.057  0.2353 -0.9473  0.6257
16243TIP3   OH270219   0.652   0.592   0.863  0.5561 -0.2013  0.0148
16243TIP3    H170220   0.702   0.626   0.938  0.4890 -0.7738  0.3165
16243TIP3    H270221   0.670   0.654   0.792  2.8619 -1.1975 -0.3047
16244TIP3   OH270222   3.848   3.295   1.151 -0.2730  0.0170  0.3973
16244TIP3    H170223   3.780   3.276   1.217  0.1209 -2.0737  0.2438
16244TIP3    H270224   3.866   3.388   1.162 -1.0536 -0.0322  2.4760
16245TIP3   OH270225   2.169   2.328  15.150  0.2153  0.9069  0.0444
16245TIP3    H170226   2.086   2.351  15.191 -0.3148  0.2041 -0.6269
16245TIP3    H270227   2.210   2.267  15.210 -1.0500 -0.9684 -0.9670
16246TIP3   OH270228   2.618   5.895  17.098 -0.0659 -0.3483  0.0858
16246TIP3    H170229   2.578   5.968  17.051 -0.4447 -0.4765  0.2037
16246TIP3    H270230   2.629   5.827  17.032  1.4225  0.2392 -0.2996
16247TIP3   OH270231   3.931   6.375  15.499 -0.1689 -0.1836  0.0393
16247TIP3    H170232   3.964   6.324  15.425  1.7816 -0.4376  1.0259
16247TIP3    H270233   3.942   6.466  15.473 -2.2262 -0.2331 -1.1171
16248TIP3   OH270234   4.226   1.470  14.718  0.0286 -0.3925 -0.4749
16248TIP3    H170235   4.188   1.402  14.662  0.9789 -0.0931 -1.5061
16248TIP3    H270236   4.300   1.427  14.762 -1.0659 -0.7862  1.0026
16249TIP3   OH270237   2.750   6.579   5.394  0.6301  0.2342 -0.1201
16249TIP3    H170238   2.688   6.638   5.436 -0.3278 -0.6466 -0.2878
16249TIP3    H270239   2.797   6.538   5.466 -0.5105 -0.7370  0.0708
16250TIP3   OH270240   5.766   3.245   2.591 -0.2962  0.0626  0.0188
16250TIP3    H170241   5.726   3.199   2.517 -0.3761  1.5870 -0.9025
16250TIP3    H270242   5.850   3.278   2.556 -0.5848  1.2588  0.4318
16251TIP3   OH270243   4.840   0.607   3.532  0.0192 -0.1476 -0.3996
16251TIP3    H170244   4.780   0.680   3.549  0.7610  0.5716 -0.8363
16251TIP3    H270245   4.896   0.604   3.609 -1.1339 -1.3914  0.4133
16252TIP3   OH270246   2.087   4.110   0.223  0.4050  0.3424 -0.4632
16252TIP3    H170247   2.143   4.082   0.151 -0.7986 -0.6285 -1.0386
16252TIP3    H270248   2.000   4.076   0.201 -0.1357  0.6745  1.0757
16253TIP3   OH270249   3.465   5.414  15.900  0.7065  0.5343  0.4142
16253TIP3    H170250   3.405   5.407  15.975  0.1522  2.9207  0.2093
16253TIP3    H270251   3.538   5.466  15.933  1.5979 -0.4065 -0.0361
16254TIP3   OH270252   5.505   1.392  16.898  0.0265 -0.2202 -0.2176
16254TIP3    H170253   5.551   1.319  16.857 -1.2779 -1.0980 -0.1245
16254TIP3    H270254   5.429   1.408  16.842  0.3306  1.1190 -0.2718
16255TIP3   OH270255   0.375   3.429   4.535 -0.2001  0.1511 -0.0088
16255TIP3    H170256   0.348   3.337   4.531 -0.1644  0.1869 -1.2327
16255TIP3    H270257   0.357   3.455   4.625  2.2057 -1.7770  1.0835
16256TIP3   OH270258   3.494   0.921  10.474 -0.6531 -0.0366  0.6094
16256TIP3    H170259   3.487   0.938  10.380  1.3960  0.7266  0.5753
16256TIP3    H270260   3.492   1.008  10.515 -0.2767 -0.2974  1.1851
16257TIP3   OH270261   4.997   5.072  16.725 -0.1488  0.6611  0.4151
16257TIP3    H170262   4.972   4.997  16.779  0.4606  0.4197  0.3627
16257TIP3    H270263   4.950   5.058  16.642  0.5139 -0.0270  0.1540
16258TIP3   OH270264   2.663   5.536  12.946  0.2477  0.2061 -0.3313
16258TIP3    H170265   2.665   5.497  12.859 -1.3632  0.9705 -0.7365
16258TIP3    H270266   2.670   5.631  12.930 -2.0313  0.4916  0.2173
16259TIP3   OH270267   2.541   1.326   4.626 -0.0697 -0.2818 -0.1331
16259TIP3    H170268   2.571   1.242   4.661  1.1447  0.0161 -0.4430
16259TIP3    H270269   2.534   1.383   4.703  0.5403 -0.2469 -0.0980
16260TIP3   OH270270   2.794   4.415  11.622 -0.0445  0.1215  0.4882
16260TIP3    H170271   2.703   4.392  11.601  0.0513 -0.8301  1.1153
16260TIP3    H270272   2.789   4.460  11.706 -0.0006  0.5865  0.2423
16261TIP3   OH270273   3.704   4.659  13.000  0.4092  0.2018  0.0829
16261TIP3    H170274   3.797   4.681  12.996  0.5735 -0.5576 -0.4762
16261TIP3    H270275   3.702   4.572  13.041  0.0519 -0.3766 -1.1363
16262TIP3   OH270276   1.474   1.256  11.592  0.1952  0.0745  0.2447
16262TIP3    H170277   1.436   1.208  11.518  0.0845  1.0580 -0.3334
16262TIP3    H270278   1.556   1.209  11.610 -0.0934 -0.5683 -0.0731
16263TIP3   OH270279   4.410   6.812  16.072 -0.3477 -0.7047  0.5331
16263TIP3    H170280   4.434   6.850  16.156 -1.2976 -0.2888  0.6206
16263TIP3    H270281   4.384   6.886  16.018 -0.1533 -1.0140  0.0070
16264TIP3   OH270282   0.702   2.538  13.667  0.6858 -0.1942  0.3763
16264TIP3    H170283   0.651   2.486  13.604  0.5952  1.0508 -0.6047
16264TIP3    H270284   0.789   2.499  13.665  0.7072 -0.1123 -0.6028
16265TIP3   OH270285   0.791   6.324   1.696  0.2088  0.1308  0.3800
16265TIP3    H170286   0.870   6.293   1.653 -0.5940  0.9402 -1.7613
16265TIP3    H270287   0.719   6.295   1.639 -1.0831 -0.9903  2.5113
16266TIP3   OH270288   3.046   3.977   5.389 -0.1300 -0.4272  0.1610
16266TIP3    H170289   3.031   4.008   5.300  2.0410  0.6261  0.1561
16266TIP3    H270290   2.958   3.969   5.426 -1.0204 -0.2392 -1.8452
16267TIP3   OH270291   3.442   0.822  16.962 -0.5772 -0.0778  0.1400
16267TIP3    H170292   3.463   0.869  17.043  2.5669  1.2189 -1.3484
16267TIP3    H270293   3.406   0.889  16.904 -0.9043 -0.5993 -0.2653
16268TIP3   OH270294   0.181   3.405  11.004 -0.4220 -0.1588 -0.1917
16268TIP3    H170295   0.270   3.368  11.009  0.2410  1.2770 -1.0181
16268TIP3    H270296   0.178   3.446  10.917 -1.0479  1.9493  0.8049
16269TIP3   OH270297   3.790   4.396  14.824  0.1728 -0.2526  0.1534
16269TIP3    H170298   3.705   4.375  14.862 -0.3317 -2.1431 -1.9073
16269TIP3    H270299   3.842   4.316  14.835  1.0499  0.2498 -0.2870
16270TIP3   OH270300   6.476   1.855   0.322 -0.5797  0.2410 -0.3325
16270TIP3    H170301   6.464   1.902   0.239 -1.2680 -0.1412 -0.4580
16270TIP3    H270302   6.480   1.925   0.388 -2.7071  0.4796 -0.3880
16271TIP3   OH270303   3.336   2.417   2.889 -0.1383  0.1126  0.2173
16271TIP3    H170304   3.285   2.453   2.963 -0.5149 -0.1529  0.0897
16271TIP3    H270305   3.396   2.355   2.929 -0.0103  0.3242  0.3551
16272TIP3   OH270306   6.769   2.535  12.882  0.0510 -0.1629  0.2397
16272TIP3    H170307   6.754   2.452  12.838  3.0093 -1.0499  0.7907
16272TIP3    H270308   6.860   2.557  12.861  0.0145  1.7897  1.9602
16273TIP3   OH270309   2.932   1.119   3.445 -0.1475 -0.4907  0.0861
16273TIP3    H170310   2.983   1.196   3.471 -3.6862  1.3920  1.7000
16273TIP3    H270311   2.925   1.126   3.350 -0.0606  0.9113  0.1791
16274TIP3   OH270312   3.373   2.887  11.640 -0.3162  0.5506  0.2885
16274TIP3    H170313   3.351   2.943  11.715 -2.5273 -0.1333  0.1894
16274TIP3    H270314   3.357   2.943  11.564 -4.1916 -0.6304  0.1111
16275TIP3   OH270315   1.702   1.308  14.261  0.1010  0.3297  0.0192
16275TIP3    H170316   1.707   1.334  14.169  2.1071  0.9944  0.2955
16275TIP3    H270317   1.615   1.338  14.289 -0.8432 -0.5486 -1.8314
16276TIP3   OH270318   6.070   0.576  14.127 -0.0672  0.5308 -0.1980
16276TIP3    H170319   6.108   0.619  14.204  0.5492  0.5009 -0.4736
16276TIP3    H270320   6.124   0.498  14.115  0.9996  1.4597 -1.7082
16277TIP3   OH270321   2.415   5.629  16.831 -0.2473 -0.9719 -0.1113
16277TIP3    H170322   2.365   5.564  16.781 -0.4009  0.0575 -1.3375
16277TIP3    H270323   2.348   5.687  16.868 -0.0220  0.0816 -1.2964
16278TIP3   OH270324   1.032   5.381   2.826  0.4617  0.1745  0.1769
16278TIP3    H170325   0.981   5.354   2.750  1.5546 -2.3466  0.2758
16278TIP3    H270326   1.011   5.473   2.838 -2.7822 -0.3811 -0.7622
16279TIP3   OH270327   0.016   1.426  12.277 -0.3055  0.2243 -0.1151
16279TIP3    H170328  -0.057   1.365  12.278  0.5513 -0.8136 -0.1263
16279TIP3    H270329   0.093   1.372  12.291  0.4394  1.3463  0.2032
16280TIP3   OH270330   3.208   2.053  13.097 -0.2025 -0.5795 -0.1495
16280TIP3    H170331   3.276   2.028  13.159  0.7964  0.4478 -0.8080
16280TIP3    H270332   3.244   2.130  13.052 -1.9483  0.1874 -0.2544
16281TIP3   OH270333   6.029   5.454   5.167  0.3626  0.7463  0.7368
16281TIP3    H170334   5.984   5.456   5.251  0.8384 -0.2583  1.0222
16281TIP3    H270335   6.115   5.492   5.185  0.5399  0.3385  0.7497
16282TIP3   OH270336   2.266   4.648  16.486  0.3473  0.6036 -0.5910
16282TIP3    H170337   2.362   4.653  16.484  0.4384 -0.6894 -0.1382
16282TIP3    H270338   2.245   4.579  16.423 -0.1858 -0.2151  0.4661
16283TIP3   OH270339   0.960   2.464   3.435 -0.1360 -0.0622 -0.6716
16283TIP3    H170340   0.871   2.445   3.462 -0.3023 -1.0790 -1.9053
16283TIP3    H270341   0.952   2.541   3.379  0.2302  2.1643  2.1935
16284TIP3   OH270342   0.242   2.826   5.488 -0.0426 -0.1302  0.0625
16284TIP3    H170343   0.275   2.755   5.542  1.6371  1.0886  0.6777
16284TIP3    H270344   0.152   2.839   5.519 -0.2635 -1.7703  0.1470
16285TIP3   OH270345   0.027   5.594  16.317 -0.3153 -0.5106  0.2330
16285TIP3    H170346   0.107   5.579  16.367  0.2421  0.6463 -0.2913
16285TIP3    H270347   0.010   5.688  16.326  0.4429 -0.0546 -2.6559
16286TIP3   OH270348   0.434   5.209  13.756 -0.1278 -0.4017  0.2036
16286TIP3    H170349   0.496   5.282  13.751 -2.2702  1.4938  0.6963
16286TIP3    H270350   0.372   5.226  13.685  0.4601 -2.8428 -0.9489
16287TIP3   OH270351   6.101   6.653  16.222 -0.2644  0.1607  0.1647
16287TIP3    H170352   6.068   6.587  16.283 -1.3339  0.9127  0.4195
16287TIP3    H270353   6.139   6.720  16.279  3.1277 -1.3925 -0.1616
16288TIP3   OH270354   3.993   3.301  13.428 -0.5020 -0.0540 -0.3009
16288TIP3    H170355   3.950   3.387  13.424 -0.8029 -0.1663  0.4713
16288TIP3    H270356   3.956   3.260  13.506  2.2228  0.5002  1.3432
16289TIP3   OH270357   5.272   5.924  12.348  0.2066  0.5858  0.1493
16289TIP3    H170358   5.363   5.948  12.332 -0.1697  1.3414 -0.8929
16289TIP3    H270359   5.260   5.842  12.300  0.3716  0.4117  0.4024
16290TIP3   OH270360   3.145   0.997  15.281 -0.2491 -0.0076  0.6518
16290TIP3    H170361   3.226   0.956  15.250 -1.1959 -0.8440 -0.7681
16290TIP3    H270362   3.117   0.942  15.355 -0.3282 -0.6103  0.1752
16291TIP3   OH270363   1.668   2.041  14.006  0.3014  0.0256  0.0223
16291TIP3    H170364   1.610   2.111  14.035  0.9120 -0.4255  2.3840
16291TIP3    H270365   1.732   2.084  13.949 -0.1589  1.1407  0.3449
16292TIP3   OH270366   0.025   3.391   5.236 -0.6692  0.4559 -0.2415
16292TIP3    H170367  -0.006   3.477   5.209 -2.5323 -0.2523 -0.4595
16292TIP3    H270368   0.097   3.371   5.176 -0.9317  1.4007 -0.8783
16293TIP3   OH270369   3.006   3.691  12.000 -0.0146  0.3831  0.0499
16293TIP3    H170370   3.067   3.721  11.933  0.2310  1.2132  0.6297
16293TIP3    H270371   3.051   3.710  12.083 -0.7030  0.2182  0.4662
16294TIP3   OH270372   1.659   3.540   4.010 -0.2662  0.3442  0.3061
16294TIP3    H170373   1.729   3.523   3.947 -0.8554  0.3476 -0.3612
16294TIP3    H270374   1.650   3.635   4.011 -0.4545  0.3279  0.1770
16295TIP3   OH270375   1.918   2.074  14.571 -0.3611  0.8529  0.9613
16295TIP3    H170376   1.895   2.058  14.480  2.7134 -0.1635  0.3001
16295TIP3    H270377   1.896   1.992  14.616 -0.9506  1.0014  0.9451
16296TIP3   OH270378   3.114   5.701   6.146 -0.1516 -0.0472 -0.8141
16296TIP3    H170379   3.080   5.787   6.168  1.7237 -0.0452  2.4559
16296TIP3    H270380   3.066   5.640   6.202  0.0985 -0.8438 -1.4524
16297TIP3   OH270381   0.410   1.391  14.635  0.0990 -0.5259  0.0941
16297TIP3    H170382   0.373   1.331  14.570 -0.6026 -0.2314  0.2218
16297TIP3    H270383   0.336   1.442  14.666  0.2969 -1.1758  1.6772
16298TIP3   OH270384   0.089   5.415   3.347 -0.1620  0.0266 -0.0608
16298TIP3    H170385  -0.001   5.403   3.378 -0.7387  1.4055 -1.1961
16298TIP3    H270386   0.109   5.507   3.365 -0.0057  0.4829 -2.4475
16299TIP3   OH270387   4.515   3.073   1.072 -0.3953 -0.1718  0.1928
16299TIP3    H170388   4.436   3.034   1.109 -0.1574 -2.2230 -1.3876
16299TIP3    H270389   4.587   3.025   1.114  0.0296  1.2631  1.1597
16300TIP3   OH270390   6.072   2.180  15.570 -0.4481 -0.0767  0.4820
16300TIP3    H170391   6.165   2.185  15.591 -0.6059 -0.7928  1.3597
16300TIP3    H270392   6.061   2.094  15.530 -0.7641 -0.0633  0.5393
16301TIP3   OH270393   0.735   5.792   3.344 -0.5496  0.0300  0.8365
16301TIP3    H170394   0.704   5.816   3.431  0.1556 -0.1286  1.1309
16301TIP3    H270395   0.785   5.868   3.314 -1.9047  0.6164  0.0239
16302TIP3   OH270396   4.642   6.176  12.179 -0.9531 -0.3743 -0.0932
16302TIP3    H170397   4.690   6.199  12.259 -0.9850  0.3564 -0.2790
16302TIP3    H270398   4.558   6.142  12.210 -1.7209  1.6783  0.1420
16303TIP3   OH270399   3.503   6.133   2.466  0.2876 -0.2103  0.5816
16303TIP3    H170400   3.596   6.143   2.486  0.6721 -2.6711  0.1287
16303TIP3    H270401   3.499   6.133   2.371 -0.3228  0.9010  0.5923
16304TIP3   OH270402   2.425   4.338  10.816 -0.2044 -0.2758  0.1938
16304TIP3    H170403   2.409   4.246  10.797 -0.8870 -0.1844  0.3257
16304TIP3    H270404   2.394   4.385  10.739  0.0171 -0.1489  0.1829
16305TIP3   OH270405   2.953   0.874  14.410  0.0382  0.6396 -0.2686
16305TIP3    H170406   2.997   0.796  14.444 -0.6380  0.4058  0.0649
16305TIP3    H270407   2.954   0.935  14.484 -1.6709  0.0353  0.2563
16306TIP3   OH270408   5.281   0.324  14.122  0.2400  0.8324 -0.3192
16306TIP3    H170409   5.189   0.335  14.096 -1.3408 -2.5064  3.2777
16306TIP3    H270410   5.324   0.290  14.044 -2.2120 -0.0681 -1.3379
16307TIP3   OH270411   2.255   2.109  11.457  0.1350  0.3950 -0.0051
16307TIP3    H170412   2.283   2.022  11.426  1.3258  0.1820  1.5979
16307TIP3    H270413   2.290   2.114  11.546 -1.9033  1.6077  0.7393
16308TIP3   OH270414   4.595   6.480   3.531 -0.1420 -0.2730  0.1874
16308TIP3    H170415   4.626   6.452   3.444 -0.3199  0.0308  0.0231
16308TIP3    H270416   4.642   6.561   3.547  1.3403 -1.3116  1.2276
16309TIP3   OH270417   0.282   0.030  16.507 -0.4369 -0.1537  0.0935
16309TIP3    H170418   0.241  -0.056  16.511 -0.3025 -0.1624  3.5468
16309TIP3    H270419   0.375   0.012  16.494 -0.8261 -0.3516 -2.5934
16310TIP3   OH270420   2.598   6.246  15.524  0.5125 -0.1531  0.5026
16310TIP3    H170421   2.601   6.154  15.499 -0.6332 -0.1603  0.3626
16310TIP3    H270422   2.510   6.275  15.501  1.3391  1.3922 -0.8561
16311TIP3   OH270423   2.063   4.761  13.611 -0.5084 -0.0217  0.5682
16311TIP3    H170424   2.121   4.820  13.563  0.2523 -1.6296 -0.5312
16311TIP3    H270425   2.054   4.802  13.697  2.3397  0.2271  0.8039
16312TIP3   OH270426   1.851   2.166  13.438 -0.9620  0.2512  0.2122
16312TIP3    H170427   1.757   2.181  13.444 -0.7630  1.7718 -0.3955
16312TIP3    H270428   1.887   2.250  13.410  0.4857 -0.5483 -0.3438
16313TIP3   OH270429   5.741   0.047   0.317  0.0528 -0.4980  0.0860
16313TIP3    H170430   5.835   0.031   0.327  0.0902 -0.4535 -0.1824
16313TIP3    H270431   5.709   0.059   0.406  0.3637 -0.1576  0.1521
16314TIP3   OH270432   4.924   5.889   0.490  0.3041  0.0703 -0.3186
16314TIP3    H170433   4.830   5.895   0.508  0.0609 -0.7036 -1.2985
16314TIP3    H270434   4.965   5.940   0.560 -0.8514  0.5613  0.0113
16315TIP3   OH270435   3.034   0.766   6.078  0.1178  0.3878 -0.3975
16315TIP3    H170436   3.023   0.776   5.984  1.7727  0.2487 -0.6319
16315TIP3    H270437   3.109   0.707   6.087 -0.1744  0.2105  1.0016
16316TIP3   OH270438   6.140   0.710   2.039 -0.0176  0.7435 -0.0738
16316TIP3    H170439   6.110   0.681   2.125  1.6945  2.8217  1.2758
16316TIP3    H270440   6.212   0.651   2.018 -0.1112  0.5509  0.1325
16317TIP3   OH270441   1.817   1.103  10.755  0.2457  0.4845 -0.1100
16317TIP3    H170442   1.738   1.092  10.702  0.4814  1.4711 -0.6858
16317TIP3    H270443   1.803   1.049  10.832  0.5495 -2.2633 -1.9147
16318TIP3   OH270444   3.489   4.268  15.730  0.5851 -0.2112  0.0997
16318TIP3    H170445   3.491   4.290  15.636  1.1784  0.0363  0.1666
16318TIP3    H270446   3.494   4.172  15.732  0.6980 -0.2103 -0.1167
16319TIP3   OH270447   6.019   1.404   3.674 -0.4647 -0.0474 -0.3164
16319TIP3    H170448   6.020   1.495   3.703 -2.4367  0.0055 -0.4097
16319TIP3    H270449   5.928   1.386   3.650 -0.0735 -1.9877 -0.4707
16320TIP3   OH270450   1.826   5.691   3.102  0.1226  0.1580 -0.2392
16320TIP3    H170451   1.799   5.768   3.152  1.9657  0.0540  0.9613
16320TIP3    H270452   1.777   5.697   3.020 -0.9887  1.7184  0.5163
16321TIP3   OH270453   6.002   5.940  13.304 -0.5869  0.2833  0.5782
16321TIP3    H170454   6.098   5.938  13.314 -0.6491 -0.3446  1.0322
16321TIP3    H270455   5.974   6.008  13.365 -0.3249  1.3804 -0.4831
16322TIP3   OH270456   4.401   1.628  16.556  0.2583  0.1096  0.3798
16322TIP3    H170457   4.408   1.536  16.582 -0.5248 -0.2760 -0.7738
16322TIP3    H270458   4.475   1.670  16.600 -0.2265 -0.7855  2.1066
16323TIP3   OH270459   6.786   3.303  12.423 -0.2497  0.3067  0.0117
16323TIP3    H170460   6.795   3.237  12.492  1.2402  1.2604  0.7677
16323TIP3    H270461   6.867   3.295  12.372 -0.6347  0.6854 -0.6660
16324TIP3   OH270462   4.409   5.219  15.964  0.3122 -0.2545  0.3119
16324TIP3    H170463   4.437   5.218  16.055  1.1800 -1.7568  0.0514
16324TIP3    H270464   4.404   5.311  15.941  3.1832  0.1147  0.9598
16325TIP3   OH270465   1.810   4.860  13.122 -0.7884 -0.2298  0.1264
16325TIP3    H170466   1.789   4.945  13.084  0.5127 -0.0374 -0.1671
16325TIP3    H270467   1.885   4.877  13.179  0.3780 -1.4509 -1.0445
16326TIP3   OH270468   0.341   0.557   1.368 -0.7227  0.3281  0.1101
16326TIP3    H170469   0.250   0.555   1.341 -0.7870 -0.6420  0.3542
16326TIP3    H270470   0.383   0.621   1.311 -0.9151 -1.4354 -2.0773
16327TIP3   OH270471   4.703   3.901  13.724 -0.0656  0.2329  0.3853
16327TIP3    H170472   4.783   3.947  13.751  0.0950  0.0558  0.2148
16327TIP3    H270473   4.720   3.875  13.633  0.4506 -1.4820  0.9402
16328TIP3   OH270474   3.002   4.402   2.339 -0.1894 -0.2031  0.2370
16328TIP3    H170475   2.998   4.428   2.247 -0.6684 -2.1140 -0.2959
16328TIP3    H270476   2.992   4.484   2.388 -1.0359  0.6836 -1.4010
16329TIP3   OH270477   5.732   0.589  13.191  0.4841 -0.1629  0.3081
16329TIP3    H170478   5.768   0.530  13.125 -1.2866 -0.0087 -0.8398
16329TIP3    H270479   5.741   0.541  13.273  1.0605 -1.1162 -0.3032
16330TIP3   OH270480   1.501   1.948   5.316  0.2163 -0.3393  0.5111
16330TIP3    H170481   1.551   1.912   5.243  0.5599 -0.7906  0.9658
16330TIP3    H270482   1.560   2.010   5.359 -0.7069  1.5366 -0.8593
16331TIP3   OH270483   2.339   6.444  11.033  0.4220 -0.0625 -0.3999
16331TIP3    H170484   2.362   6.374  10.972  0.8831  1.2767 -1.7898
16331TIP3    H270485   2.340   6.523  10.980  2.1412  1.3208  1.6309
16332TIP3   OH270486   1.078   6.716   4.857 -0.1216 -0.1056 -0.0017
16332TIP3    H170487   1.064   6.749   4.946 -1.3465 -0.6723  0.0219
16332TIP3    H270488   1.134   6.782   4.816 -0.0683  0.4782  0.9860
16333TIP3   OH270489   3.568   1.138  15.066 -0.3826  0.2997  0.0425
16333TIP3    H170490   3.500   1.133  15.133 -1.0377  2.6952 -0.3960
16333TIP3    H270491   3.634   1.197  15.103  0.8130 -0.8955 -0.1231
16334TIP3   OH270492   2.826   5.404   0.026  0.3821  0.0357 -0.6218
16334TIP3    H170493   2.838   5.482  -0.028 -0.2669  0.0215 -0.7901
16334TIP3    H270494   2.751   5.425   0.081 -1.4017 -1.4201 -2.4191
16335TIP3   OH270495   2.611   4.712   5.892 -0.3103  0.3285 -0.3720
16335TIP3    H170496   2.608   4.763   5.974  0.3652 -0.0707 -0.1017
16335TIP3    H270497   2.621   4.621   5.920 -0.7823  0.1167 -0.8830
16336TIP3   OH270498   1.268   5.981  14.302 -0.0105  0.1146  0.3347
16336TIP3    H170499   1.278   6.077  14.302  1.4651 -0.0280 -0.1193
16336TIP3    H270500   1.294   5.954  14.390  1.4912 -0.0305 -0.1277
16337TIP3   OH270501   5.599   0.937  11.511  0.4123 -0.5237 -0.0015
16337TIP3    H170502   5.634   0.985  11.435  0.8317 -1.3568 -0.3456
16337TIP3    H270503   5.531   0.880  11.475 -0.3398  0.0709  0.4609
16338TIP3   OH270504   3.240   0.933  13.594  0.1422 -0.2433  0.0302
16338TIP3    H170505   3.232   0.838  13.587 -1.5471  0.0804 -3.5101
16338TIP3    H270506   3.181   0.957  13.666  0.6399 -1.8489  1.0051
16339TIP3   OH270507   0.588   4.591  17.099 -0.5268 -0.4986  0.2134
16339TIP3    H170508   0.586   4.515  17.040 -0.0872 -0.4878  0.1838
16339TIP3    H270509   0.643   4.563  17.172 -0.1472 -0.1125  0.0771
16340TIP3   OH270510   5.751   0.541  17.166 -0.3742  0.1277  0.5629
16340TIP3    H170511   5.831   0.538  17.112 -2.1061 -0.8516 -2.0228
16340TIP3    H270512   5.716   0.452  17.162 -1.1029  0.3043  2.5049
16341TIP3   OH270513   2.073   6.028  16.074  0.3472  0.8415 -0.5083
16341TIP3    H170514   2.143   6.016  16.138 -0.4960 -0.4033  0.1947
16341TIP3    H270515   2.089   6.115  16.037  1.4206  1.1539  0.6672
16342TIP3   OH270516   4.945   4.881   2.836  0.0066 -0.3505 -0.1047
16342TIP3    H170517   4.892   4.950   2.795  1.0980  0.2190 -0.5564
16342TIP3    H270518   4.997   4.926   2.903  1.7851 -0.4893 -1.3735
16343TIP3   OH270519   0.438   5.285  14.813 -0.0006 -0.2572  0.0303
16343TIP3    H170520   0.412   5.313  14.725  0.1638 -1.0402 -0.2738
16343TIP3    H270521   0.373   5.219  14.837 -0.8544  0.9403  1.0666
16344TIP3   OH270522   6.257   2.935  14.349 -0.6563 -0.6459 -0.4003
16344TIP3    H170523   6.279   3.004  14.412 -0.5067 -1.6707  0.6789
16344TIP3    H270524   6.330   2.937  14.286  0.0111 -0.6853  0.3613
16345TIP3   OH270525   5.738   2.620   6.387 -0.3689 -0.8044 -0.5556
16345TIP3    H170526   5.694   2.626   6.472  0.5127  0.6348 -0.1872
16345TIP3    H270527   5.829   2.596   6.409  0.1427  0.6724 -1.0031
16346TIP3   OH270528   1.074   3.406   5.985  0.1245 -0.4538 -0.4584
16346TIP3    H170529   0.994   3.413   6.037  0.5571  0.8705  0.0433
16346TIP3    H270530   1.141   3.381   6.049  0.2898 -0.6616 -0.7148
16347TIP3   OH270531   5.707   0.742  12.843 -0.2718  0.4579 -0.0396
16347TIP3    H170532   5.708   0.658  12.798  1.6338  1.0040 -1.0896
16347TIP3    H270533   5.629   0.786  12.810 -1.7176 -1.2058  1.1238
16348TIP3   OH270534   5.177   3.600   2.334 -0.4295  0.2364 -0.1912
16348TIP3    H170535   5.139   3.686   2.351  0.3316  0.5837 -0.2283
16348TIP3    H270536   5.160   3.549   2.413 -1.9253  0.0439 -0.6235
16349TIP3   OH270537   3.750   1.477   5.984 -0.2125  0.1402 -0.1823
16349TIP3    H170538   3.654   1.480   5.981 -0.3003 -1.9871 -0.3063
16349TIP3    H270539   3.770   1.464   6.076 -0.1258 -1.0170 -0.3541
16350TIP3   OH270540   4.988   4.052   3.932  0.4550  0.4453  0.2051
16350TIP3    H170541   4.934   4.040   4.010 -0.7044  0.1617 -0.6350
16350TIP3    H270542   4.955   4.133   3.893  0.7143  0.3251 -0.2579
16351TIP3   OH270543   1.700   1.359  16.411 -0.1349 -0.2682  0.3825
16351TIP3    H170544   1.780   1.411  16.409  0.7078 -1.5858 -1.1279
16351TIP3    H270545   1.655   1.382  16.330  0.1279 -1.6937 -0.1764
16352TIP3   OH270546   5.967   6.178   4.726 -0.0162  0.5409  0.4245
16352TIP3    H170547   5.987   6.218   4.810  0.7737 -1.8504  1.4334
16352TIP3    H270548   5.900   6.112   4.746  2.0056 -1.8493 -0.2939
16353TIP3   OH270549   1.026   5.232   2.192  0.5864 -0.0245 -0.7693
16353TIP3    H170550   1.055   5.231   2.283 -0.7024 -0.3388 -0.3683
16353TIP3    H270551   0.950   5.290   2.191  0.7182  0.1491 -1.6924
16354TIP3   OH270552   6.664   5.522   3.868  0.3576  0.2914 -0.0793
16354TIP3    H170553   6.575   5.551   3.845  0.9232  0.6253 -1.9580
16354TIP3    H270554   6.678   5.444   3.814  2.4147  2.1374 -2.2826
16355TIP3   OH270555   3.875   1.829  16.939  0.1981 -0.1052 -0.1453
16355TIP3    H170556   3.918   1.859  16.859 -0.3235 -0.8333 -0.7133
16355TIP3    H270557   3.839   1.743  16.916  0.1743 -0.3930  0.9189
16356TIP3   OH270558   4.446   4.439   5.101 -0.5070  0.0349  0.0077
16356TIP3    H170559   4.520   4.387   5.069 -0.3322 -0.0717  0.5736
16356TIP3    H270560   4.381   4.374   5.127 -0.3777  0.1015  0.5045
16357TIP3   OH270561   4.302   5.134   1.979 -0.2969 -0.5100  0.1406
16357TIP3    H170562   4.216   5.178   1.979 -0.9610 -1.7860 -0.1429
16357TIP3    H270563   4.301   5.081   1.900 -0.1772 -2.3279  1.3366
16358TIP3   OH270564   2.702   6.519  14.168 -0.0406  0.0800  0.0354
16358TIP3    H170565   2.708   6.536  14.074  0.4540 -0.3436 -0.0148
16358TIP3    H270566   2.789   6.539  14.202 -0.5588  1.3765  0.6028
16359TIP3   OH270567   0.485   3.480   5.034 -0.5370 -0.2096 -0.1307
16359TIP3    H170568   0.456   3.554   5.088 -0.8494 -0.0588 -0.5032
16359TIP3    H270569   0.558   3.514   4.983 -1.1891  0.0653 -0.8798
16360TIP3   OH270570   5.560   3.226  17.184  0.3853  0.1039  0.2862
16360TIP3    H170571   5.562   3.133  17.205  0.1590  0.3881  1.6179
16360TIP3    H270572   5.597   3.232  17.095  2.0646 -1.0472  0.8931
16361TIP3   OH270573   0.423   5.503   2.936 -0.2086  0.2651  0.3637
16361TIP3    H170574   0.439   5.498   3.030 -1.1403 -1.4003  0.4487
16361TIP3    H270575   0.491   5.448   2.897 -0.4606  0.1060  0.1430
16362TIP3   OH270576   0.243   2.340   6.167 -0.1607  0.2962  0.2297
16362TIP3    H170577   0.188   2.399   6.116  1.4282  1.4359 -0.2095
16362TIP3    H270578   0.263   2.389   6.247  2.2039  0.9147 -0.6946
16363TIP3   OH270579   4.674   5.294   6.155  0.2952 -0.1760  0.2109
16363TIP3    H170580   4.722   5.295   6.238  1.2856 -2.4709 -0.2797
16363TIP3    H270581   4.583   5.307   6.179  0.8738  1.9323  1.3819
16364TIP3   OH270582   2.477   1.845  14.915 -0.1851  0.0761 -0.8716
16364TIP3    H170583   2.528   1.860  14.836 -0.3397 -1.4106 -1.2738
16364TIP3    H270584   2.480   1.928  14.962  0.9609  0.5854 -1.8285
16365TIP3   OH270585   4.143   1.270  15.327 -0.0375 -0.0166 -0.2869
16365TIP3    H170586   4.222   1.270  15.273  0.0337 -0.5695 -0.1867
16365TIP3    H270587   4.155   1.345  15.386  0.1245  0.2744 -0.6861
16366TIP3   OH270588   5.831   5.587   3.976 -0.0586 -0.1216 -0.1585
16366TIP3    H170589   5.841   5.522   3.906  1.6314  1.7293 -1.7229
16366TIP3    H270590   5.873   5.666   3.941  0.8420  0.8504  2.9992
16367TIP3   OH270591   1.655   5.692  12.769 -0.3321  0.6790  0.0457
16367TIP3    H170592   1.724   5.626  12.766  0.0622  0.9248  2.2286
16367TIP3    H270593   1.698   5.774  12.743  0.0281  0.6869  0.6539
16368TIP3   OH270594   5.200   6.161  13.219  0.5781 -0.2951 -0.1266
16368TIP3    H170595   5.170   6.089  13.274  1.1818  0.0647  0.6833
16368TIP3    H270596   5.171   6.240  13.265 -2.4572 -0.0218 -2.3580
16369TIP3   OH270597   3.426   4.966  14.539 -0.0894 -0.4519  0.6852
16369TIP3    H170598   3.403   4.876  14.513  0.6709 -0.5010  0.1544
16369TIP3    H270599   3.441   4.960  14.633 -1.4463 -0.5782  0.9054
16370TIP3   OH270600   4.690   4.238   2.494  0.7569 -0.3390 -0.0027
16370TIP3    H170601   4.700   4.159   2.441  2.1917 -0.1823  0.0042
16370TIP3    H270602   4.666   4.306   2.431 -1.5241 -0.9897  0.1430
16371TIP3   OH270603   6.013   5.956  10.435  0.9482  0.1073 -0.0295
16371TIP3    H170604   5.918   5.967  10.423  1.1029  1.0947 -0.3991
16371TIP3    H270605   6.024   5.863  10.455 -0.0587 -0.0969 -0.3963
16372TIP3   OH270606   0.202   0.913   0.566 -0.0548 -0.8185  0.6336
16372TIP3    H170607   0.202   1.004   0.535  0.5201 -0.7180  0.9199
16372TIP3    H270608   0.223   0.861   0.489 -0.5303 -0.7200  0.4367
16373TIP3   OH270609   3.565   3.868  14.747 -0.4107 -0.4612 -0.1120
16373TIP3    H170610   3.473   3.846  14.729 -0.9291  0.1627  1.7067
16373TIP3    H270611   3.587   3.819  14.825  1.2884 -1.7561 -1.3582
16374TIP3   OH270612   2.911   2.595  14.142 -0.0231  0.1734 -0.0527
16374TIP3    H170613   2.853   2.526  14.174  1.9259 -0.9716  1.1335
16374TIP3    H270614   2.928   2.572  14.051 -0.8684  0.1356 -0.2025
16375TIP3   OH270615   0.624   4.120   4.055  0.1436 -0.2261  0.0015
16375TIP3    H170616   0.589   4.047   4.003 -0.7850 -0.4110  0.8771
16375TIP3    H270617   0.547   4.170   4.080  0.6500  0.1994  0.7072
16376TIP3   OH270618   5.821   6.794   1.839 -0.1369  0.2101  0.5133
16376TIP3    H170619   5.744   6.844   1.811 -0.0864  0.5608  0.9869
16376TIP3    H270620   5.894   6.834   1.792 -0.2870 -0.3576 -0.2149
16377TIP3   OH270621   1.059   1.990   4.807 -0.4851 -0.2329 -0.8314
16377TIP3    H170622   1.028   1.914   4.856 -1.0333  1.5481  1.6795
16377TIP3    H270623   1.152   1.998   4.832 -0.2534 -0.4572 -1.6085
16378TIP3   OH270624   0.109   2.725   0.521  0.4920  0.3717  0.0493
16378TIP3    H170625   0.181   2.669   0.551 -0.6927 -0.9323  0.5362
16378TIP3    H270626   0.046   2.663   0.484  0.5794  1.6812 -2.4230
16379TIP3   OH270627   1.489   1.587  17.025 -0.4009 -0.2476  0.3160
16379TIP3    H170628   1.583   1.583  17.009 -0.7034 -0.6241 -1.3730
16379TIP3    H270629   1.470   1.507  17.074 -0.4813 -2.2040 -2.7741
16380TIP3   OH270630   0.623   1.464   3.821 -0.4835  0.5879  0.3860
16380TIP3    H170631   0.540   1.471   3.774 -1.7068  2.0245  2.6399
16380TIP3    H270632   0.675   1.538   3.789  0.2568 -0.7674 -1.6013
16381TIP3   OH270633   2.961   4.789  17.085 -0.5327 -0.4440  0.1165
16381TIP3    H170634   3.051   4.775  17.116  0.1093  2.2114 -0.3578
16381TIP3    H270635   2.912   4.813  17.164  0.5259  3.7485 -0.3501
16382TIP3   OH270636   1.249   2.367   2.401  0.8036  0.2063  0.2140
16382TIP3    H170637   1.288   2.416   2.327 -0.3048  2.8133  1.2887
16382TIP3    H270638   1.318   2.367   2.468  0.9654 -0.1280  0.0514
16383TIP3   OH270639   5.289   1.385   6.588  0.1956 -0.0439 -0.5380
16383TIP3    H170640   5.267   1.357   6.677 -0.3462  0.3362 -0.5501
16383TIP3    H270641   5.205   1.391   6.543  0.2332  2.1272 -0.3778
16384TIP3   OH270642   2.774   0.172  16.197  1.0564 -0.3093  1.1272
16384TIP3    H170643   2.743   0.246  16.145  0.1180 -1.4333  0.0725
16384TIP3    H270644   2.848   0.137  16.149  1.0582 -0.4894  1.2546
16385TIP3   OH270645   6.437   5.020  11.964 -0.0798  0.3741 -0.4920
16385TIP3    H170646   6.485   4.957  11.910 -1.3056 -0.3608 -0.7487
16385TIP3    H270647   6.418   5.093  11.906  0.2209  0.4062 -0.5499
16386TIP3   OH270648   2.546   6.379   2.016 -0.0845  0.4634 -0.4043
16386TIP3    H170649   2.620   6.361   1.957 -0.3407 -0.4232 -0.4648
16386TIP3    H270650   2.506   6.293   2.031 -2.0201  1.1414 -1.5764
16387TIP3   OH270651   0.687   1.868   5.364  0.3603  0.1540 -0.5147
16387TIP3    H170652   0.722   1.932   5.425 -0.3959  0.4694 -0.4049
16387TIP3    H270653   0.631   1.918   5.305  0.1559 -0.3259 -0.7367
16388TIP3   OH270654   2.485   3.719  11.328  0.4063 -0.0040  0.5035
16388TIP3    H170655   2.504   3.676  11.245 -0.4783 -1.3123  0.9557
16388TIP3    H270656   2.568   3.756  11.356  0.7355  0.3698 -0.9023
16389TIP3   OH270657   6.090   3.051  11.781 -0.4366  0.0473 -0.5005
16389TIP3    H170658   6.080   2.957  11.799 -0.6672  0.1816  0.0828
16389TIP3    H270659   6.170   3.057  11.730  1.0694 -0.1867  1.7827
16390TIP3   OH270660   1.520   1.968  11.796  0.2117 -0.4115 -0.4286
16390TIP3    H170661   1.608   1.960  11.761  0.3076 -0.7742 -0.1049
16390TIP3    H270662   1.527   2.034  11.866  0.3468 -0.8787  0.0000
16391TIP3   OH270663   1.053   2.994   2.912  0.2725 -0.3467  0.4030
16391TIP3    H170664   1.079   2.981   3.003  0.6646 -2.3824  0.0309
16391TIP3    H270665   0.959   2.975   2.911 -0.2020  1.8225  0.7609
16392TIP3   OH270666   3.067   0.056  14.235  0.1711 -0.3181 -0.2854
16392TIP3    H170667   3.086   0.144  14.267 -1.7259  0.2877 -0.7404
16392TIP3    H270668   3.078  -0.000  14.312  0.4874  0.4469  0.2339
16393TIP3   OH270669   6.788   4.114  12.607 -0.1526  0.4644 -0.4995
16393TIP3    H170670   6.859   4.106  12.542  0.0711  2.3510 -0.5178
16393TIP3    H270671   6.823   4.071  12.685 -0.1498 -1.2241 -1.3898
16394TIP3   OH270672   3.458   1.327   0.772  0.0549 -0.2908  0.8568
16394TIP3    H170673   3.388   1.297   0.830  2.0084 -0.3564  3.2557
16394TIP3    H270674   3.479   1.415   0.802  0.7907 -0.1364 -0.0753
16395TIP3   OH270675   1.872   4.585   1.899  0.3714 -0.1268  0.1239
16395TIP3    H170676   1.831   4.613   1.981  1.4699 -1.4065  1.1397
16395TIP3    H270677   1.815   4.516   1.866 -0.0912  0.4137 -0.2014
16396TIP3   OH270678   3.140   0.416   2.154 -0.3244 -0.2340 -0.2140
16396TIP3    H170679   3.093   0.488   2.113 -1.2158 -0.8471 -0.2877
16396TIP3    H270680   3.152   0.443   2.245  0.6285  0.6260 -0.5853
16397TIP3   OH270681   6.690   0.914  14.714 -0.1429 -0.1573  0.5754
16397TIP3    H170682   6.629   0.842  14.701 -0.8801  0.2146  1.9017
16397TIP3    H270683   6.635   0.987  14.743  0.6418  0.8412 -0.3720
16398TIP3   OH270684   1.796   4.495   6.446 -0.0391  0.0780 -0.1594
16398TIP3    H170685   1.706   4.466   6.465  1.0789 -3.4178  0.1783
16398TIP3    H270686   1.821   4.445   6.368  2.0056  0.0911  0.4570
16399TIP3   OH270687   0.658   5.995   4.722  0.0645 -0.1275  0.1937
16399TIP3    H170688   0.707   5.940   4.661 -0.2862 -1.8592  1.4618
16399TIP3    H270689   0.654   5.945   4.803 -0.1089  1.8415  1.4347
16400TIP3   OH270690   6.371   0.229  16.553  0.4133 -0.1560 -0.3718
16400TIP3    H170691   6.437   0.257  16.616  1.3708  2.0698 -2.3047
16400TIP3    H270692   6.295   0.286  16.571  1.4587  2.0233 -2.6069
16401TIP3   OH270693   3.794   3.456  11.028  0.2886 -0.1538  0.2898
16401TIP3    H170694   3.813   3.404  10.950  1.0026 -0.0093  0.3635
16401TIP3    H270695   3.866   3.436  11.088  0.7082  1.0921  0.2274
16402TIP3   OH270696   4.972   5.996  11.627 -0.5910 -0.0009  0.3840
16402TIP3    H170697   4.941   6.005  11.537 -0.1420  1.6665  0.3724
16402TIP3    H270698   4.902   6.033  11.680  0.3765  1.7027  0.5080
16403TIP3   OH270699   0.266   6.491   0.116 -0.3761  0.1147  0.8858
16403TIP3    H170700   0.196   6.428   0.100 -0.0956  0.0107  0.0551
16403TIP3    H270701   0.278   6.489   0.211 -0.9637 -0.4397  0.9557
16404TIP3   OH270702   5.185   4.591   1.980  0.2439 -0.3383  0.7995
16404TIP3    H170703   5.266   4.640   1.968 -0.6576  1.4253  1.7459
16404TIP3    H270704   5.143   4.632   2.056 -1.9064 -0.7026 -0.1574
16405TIP3   OH270705   5.099   0.766  15.750  0.3328  0.3900 -0.0325
16405TIP3    H170706   5.082   0.761  15.656 -0.0407 -0.6103  0.0850
16405TIP3    H270707   5.040   0.702  15.788 -0.0158  1.2863  0.9557
16406TIP3   OH270708   2.632   6.332  10.157  0.1157 -0.2948 -0.6051
16406TIP3    H170709   2.714   6.318  10.110 -0.4505  1.2216 -2.0849
16406TIP3    H270710   2.615   6.248  10.200  2.8763 -0.3556  0.4658
16407TIP3   OH270711   3.902   0.138   4.763  0.3000  0.4065 -0.3605
16407TIP3    H170712   3.876   0.229   4.770  0.3948  0.4205 -0.1762
16407TIP3    H270713   3.996   0.141   4.745  0.1023  0.3623 -1.4053
16408TIP3   OH270714   5.749   6.549   5.508 -0.5500 -0.1023  0.2303
16408TIP3    H170715   5.753   6.475   5.568 -2.3186 -0.4605 -0.0588
16408TIP3    H270716   5.815   6.530   5.441 -0.1894 -0.8284  0.7912
16409TIP3   OH270717   6.212   0.299  12.560  0.4165  0.4879 -0.2913
16409TIP3    H170718   6.210   0.365  12.629  0.8399  0.7386 -0.5210
16409TIP3    H270719   6.139   0.240  12.582  0.8999  0.2393  0.6911
16410TIP3   OH270720   3.493   1.384  14.613 -0.0127  0.0657 -0.2404
16410TIP3    H170721   3.473   1.307  14.560  1.2886 -0.3994 -0.0601
16410TIP3    H270722   3.498   1.456  14.549 -0.0142 -0.2067 -0.5467
16411TIP3   OH270723   3.477   2.710  17.005 -0.0450 -0.0752  0.1986
16411TIP3    H170724   3.546   2.776  17.010 -0.9564  1.0722 -2.0797
16411TIP3    H270725   3.465   2.695  16.912 -2.0050 -1.2084  0.6237
16412TIP3   OH270726   5.505   3.405   5.273  1.0270 -0.4606 -0.3160
16412TIP3    H170727   5.503   3.450   5.357 -0.3629 -0.2773 -0.4268
16412TIP3    H270728   5.460   3.465   5.213  1.9209 -0.6339 -1.1592
16413TIP3   OH270729   4.830   5.287  16.350 -0.4678  0.8981  0.3717
16413TIP3    H170730   4.762   5.244  16.297 -0.9811  0.6887  1.1908
16413TIP3    H270731   4.909   5.282  16.297 -0.4354 -1.3857  0.6124
16414TIP3   OH270732   3.097   4.553  16.220  0.6419  0.1031 -0.2779
16414TIP3    H170733   3.036   4.532  16.149  1.4729  0.2478 -1.0550
16414TIP3    H270734   3.082   4.485  16.286  0.2945 -0.4003 -0.8690
16415TIP3   OH270735   2.765   1.534  15.429  0.4119 -0.4148  0.8036
16415TIP3    H170736   2.838   1.499  15.379  1.0400  0.3058  1.1959
16415TIP3    H270737   2.779   1.503  15.518 -0.6838 -1.6654  0.5483
16416TIP3   OH270738   0.513   4.870   6.344 -0.3534 -0.0115 -0.2455
16416TIP3    H170739   0.573   4.908   6.408 -1.4369 -2.0280  2.0554
16416TIP3    H270740   0.462   4.944   6.312 -0.0062  1.0190  1.4797
16417TIP3   OH270741   3.041   0.735  16.355  0.0488 -0.2091  0.0364
16417TIP3    H170742   3.102   0.808  16.344 -0.3982  0.0446 -0.8446
16417TIP3    H270743   3.060   0.700  16.442 -0.8176  1.9737  1.1609
16418TIP3   OH270744   1.680   3.736   2.651  0.4588  0.1487 -0.1407
16418TIP3    H170745   1.611   3.747   2.716  0.9348  0.7624  0.2759
16418TIP3    H270746   1.742   3.806   2.671  0.8665  0.0194 -0.9323
16419TIP3   OH270747   0.274   4.074   1.766  0.1493 -0.0712  0.4380
16419TIP3    H170748   0.259   4.074   1.672 -0.2213 -0.3053  0.4955
16419TIP3    H270749   0.289   4.166   1.788  1.0765 -0.1177  0.0236
16420TIP3   OH270750   2.323   5.011  12.598 -0.0185  0.4371  0.5311
16420TIP3    H170751   2.383   4.975  12.664  0.0441 -1.0804 -0.3419
16420TIP3    H270752   2.236   4.983  12.627  0.2118 -2.4076 -1.3448
16421TIP3   OH270753   2.176   3.284   4.337 -0.1391 -0.3947 -0.3473
16421TIP3    H170754   2.219   3.340   4.402  0.4426 -0.0532 -1.0192
16421TIP3    H270755   2.229   3.204   4.336  0.9032  0.2984 -1.6762
16422TIP3   OH270756   4.719   5.356   5.033 -0.7085  0.2551  0.5885
16422TIP3    H170757   4.682   5.316   4.954 -1.7466 -1.4970  1.9158
16422TIP3    H270758   4.810   5.329   5.034 -0.5933  0.5994 -0.1930
16423TIP3   OH270759   3.313   4.550  16.925 -0.9129  0.0075  0.0287
16423TIP3    H170760   3.378   4.482  16.939 -0.0350  0.9684  0.6574
16423TIP3    H270761   3.343   4.597  16.847 -2.2619 -1.1707 -1.2455
16424TIP3   OH270762   5.999   0.513  17.030 -0.2761 -0.0003 -0.4480
16424TIP3    H170763   6.005   0.535  16.938 -0.7691 -0.3177 -0.5534
16424TIP3    H270764   6.078   0.461  17.047  0.2290  0.7443 -0.4943
16425TIP3   OH270765   0.500   5.246   3.792  0.1762  0.0194 -0.7028
16425TIP3    H170766   0.435   5.257   3.861  1.1784  0.3515  0.1829
16425TIP3    H270767   0.510   5.333   3.754 -0.4551 -0.1837 -1.3520
16426TIP3   OH270768   6.594   5.781  13.124  0.6286 -0.3935 -0.0613
16426TIP3    H170769   6.667   5.811  13.069  0.6694 -1.4425 -0.6070
16426TIP3    H270770   6.546   5.720  13.067 -0.0809 -0.4829  0.6386
16427TIP3   OH270771   4.383   2.325  15.159  0.3082 -0.3002 -0.6710
16427TIP3    H170772   4.454   2.384  15.136  0.3916 -0.3971 -0.6599
16427TIP3    H270773   4.306   2.363  15.117 -0.2370  1.5143  1.8559
16428TIP3   OH270774   5.344   0.457   2.756  0.5872 -0.3512  0.2056
16428TIP3    H170775   5.281   0.400   2.712  0.3137 -0.9090  1.2982
16428TIP3    H270776   5.395   0.398   2.811 -0.3790  0.5599  2.1428
16429TIP3   OH270777   3.835   6.683   4.362 -0.3106  0.0264 -0.4442
16429TIP3    H170778   3.825   6.767   4.408  2.0993  1.4515 -2.3752
16429TIP3    H270779   3.874   6.625   4.428  0.4619  1.2160  0.1717
16430TIP3   OH270780   6.030   2.897   1.815 -0.3304  0.3803 -0.2401
16430TIP3    H170781   6.065   2.986   1.815 -0.8092  0.5952  2.1453
16430TIP3    H270782   5.937   2.907   1.798 -0.0838  0.1868 -1.7381
16431TIP3   OH270783   3.521   4.283  13.236  0.2276  0.5858  0.5651
16431TIP3    H170784   3.485   4.269  13.324 -0.6769  1.4864  0.3481
16431TIP3    H270785   3.456   4.337  13.192 -0.0129 -1.0439 -1.1418
16432TIP3   OH270786   6.669   1.265  13.368  0.1602 -0.1139 -0.0748
16432TIP3    H170787   6.709   1.202  13.309 -0.0085  1.1524 -1.5844
16432TIP3    H270788   6.576   1.262  13.345  0.0967  0.4045  0.1194
16433TIP3   OH270789   2.460   4.952   4.933  0.1823  0.8135 -0.3994
16433TIP3    H170790   2.529   4.916   4.988  0.7735  1.3424 -0.7880
16433TIP3    H270791   2.408   4.876   4.906  0.2389  0.4868  0.4060
16434TIP3   OH270792   1.166   0.615   1.276 -0.6663  0.1008  0.0231
16434TIP3    H170793   1.080   0.601   1.236 -0.1840 -1.2715 -0.5448
16434TIP3    H270794   1.147   0.652   1.362 -1.7707  1.5325 -0.7958
16435TIP3   OH270795   1.112   6.459  14.566 -0.3999 -0.3655 -0.1876
16435TIP3    H170796   1.074   6.477  14.652  2.3182 -0.4207  1.0878
16435TIP3    H270797   1.139   6.367  14.570  1.9394  0.2791 -0.1519
16436TIP3   OH270798   3.482   2.971  16.322  0.0302 -0.1793 -0.1972
16436TIP3    H170799   3.497   2.884  16.358 -0.5386 -0.2696 -0.1751
16436TIP3    H270800   3.530   3.030  16.380 -1.5595 -0.2372  1.2295
16437TIP3   OH270801   1.401   0.210   3.601  0.0140 -0.5024 -0.1433
16437TIP3    H170802   1.446   0.169   3.675  0.5803  0.4769  0.0583
16437TIP3    H270803   1.398   0.303   3.622  0.3559 -0.1824 -1.4288
16438TIP3   OH270804   3.659   3.840   4.476 -0.1820 -0.2303 -0.1117
16438TIP3    H170805   3.600   3.788   4.531 -1.8534  0.9735 -0.7115
16438TIP3    H270806   3.630   3.931   4.489 -0.1260  0.1326 -2.3947
16439TIP3   OH270807   3.373   1.723  11.751 -0.4031  0.6059  0.0568
16439TIP3    H170808   3.303   1.722  11.687 -0.0236  0.8322 -0.3669
16439TIP3    H270809   3.333   1.759  11.830 -1.1472 -0.6908  0.2831
16440TIP3   OH270810   6.178   3.750   0.313  0.4612 -0.1214 -0.0844
16440TIP3    H170811   6.236   3.809   0.264 -0.2010 -0.6967 -1.6209
16440TIP3    H270812   6.120   3.714   0.246 -3.1571  2.1038  1.7277
16441TIP3   OH270813   4.407   2.725   2.833  0.2185 -0.7921 -0.0283
16441TIP3    H170814   4.316   2.748   2.852  0.5643  0.4533  0.1824
16441TIP3    H270815   4.419   2.639   2.874 -0.9652 -1.1401 -0.3961
16442TIP3   OH270816   3.962   2.577  15.483 -0.3232 -0.3955  0.4512
16442TIP3    H170817   3.890   2.515  15.476  0.6165 -1.3189 -1.2444
16442TIP3    H270818   3.928   2.657  15.443 -0.0804 -1.1191 -1.2000
16443TIP3   OH270819   2.755   0.464  17.134  0.5608 -0.4431 -0.1235
16443TIP3    H170820   2.754   0.475  17.039  2.2383  0.9434 -0.0074
16443TIP3    H270821   2.688   0.525  17.166  0.4528 -0.4312 -0.3781
16444TIP3   OH270822   4.368   0.456   0.239  0.4667 -0.4975  0.0140
16444TIP3    H170823   4.327   0.467   0.153  0.4300  2.8654  0.3813
16444TIP3    H270824   4.296   0.438   0.299  0.0224  0.8119 -0.1018
16445TIP3   OH270825   3.982   6.091   1.433  0.3986 -0.5387 -0.2513
16445TIP3    H170826   3.928   6.050   1.501 -1.8798  0.9837 -1.0794
16445TIP3    H270827   4.069   6.096   1.472 -0.5538 -0.9287  2.0490
16446TIP3   OH270828   6.334   5.685   1.778  0.1509 -0.7620 -0.4661
16446TIP3    H170829   6.420   5.693   1.736 -0.1725 -1.7735 -1.3388
16446TIP3    H270830   6.278   5.647   1.711 -0.8867 -0.5030  0.2393
16447TIP3   OH270831   2.994   3.639  13.684 -0.2334 -0.4492  0.1441
16447TIP3    H170832   3.000   3.730  13.710 -3.0796 -0.0022 -0.6414
16447TIP3    H270833   3.084   3.606  13.693  0.2257  1.4855  3.6896
16448TIP3   OH270834   2.804   6.018  13.160 -0.1468  0.1388  0.4109
16448TIP3    H170835   2.777   6.035  13.251  1.1459  0.1876  0.7833
16448TIP3    H270836   2.828   6.104  13.126 -0.7786  0.1456 -0.0444
16449TIP3   OH270837   6.549   3.643   0.858 -0.3595 -0.3031  0.5835
16449TIP3    H170838   6.575   3.725   0.900  0.4562 -1.0618  1.5698
16449TIP3    H270839   6.459   3.629   0.887 -0.0285 -0.4717  1.5519
16450TIP3   OH270840   3.075   2.404   1.435 -0.6229  0.2459 -0.4724
16450TIP3    H170841   3.130   2.471   1.477 -0.1188  0.1729 -1.0058
16450TIP3    H270842   3.044   2.350   1.508  3.1260 -2.0551 -0.4549
16451TIP3   OH270843   0.910   2.120   2.527 -0.6088 -0.1003 -0.2485
16451TIP3    H170844   1.001   2.091   2.535 -0.7630 -0.9908 -1.5762
16451TIP3    H270845   0.861   2.062   2.584 -0.7540 -1.7476 -1.9900
16452TIP3   OH270846   2.375   0.167  12.582  0.0646 -0.4805 -0.2059
16452TIP3    H170847   2.428   0.246  12.575 -1.6990  0.6560 -0.9838
16452TIP3    H270848   2.315   0.185  12.654 -1.0423 -0.6699 -1.0638
16453TIP3   OH270849   5.596   5.064   3.110  0.5873  0.3022  0.1281
16453TIP3    H170850   5.684   5.085   3.141 -0.2315  0.5583  2.3983
16453TIP3    H270851   5.610   5.019   3.027  2.9837 -1.6020  1.4827
16454TIP3   OH270852   4.033   1.040   5.587  0.0919  0.6040  0.7092
16454TIP3    H170853   4.116   1.086   5.600  1.2594 -1.3963  0.5401
16454TIP3    H270854   4.041   0.960   5.640 -1.9546  0.6540  1.1338
16455TIP3   OH270855   4.163   3.702   1.012  0.7692  0.6067 -0.2299
16455TIP3    H170856   4.084   3.667   1.053  0.8005  2.4183  1.4776
16455TIP3    H270857   4.130   3.759   0.942  0.6923 -1.5853 -2.0464
16456TIP3   OH270858   4.202   4.396   5.267  0.6261  0.1742 -0.0020
16456TIP3    H170859   4.259   4.336   5.316  0.3638 -0.5765 -0.6093
16456TIP3    H270860   4.123   4.403   5.320 -0.8010 -2.8439 -1.6467
16457TIP3   OH270861   6.661   0.293   6.213 -0.5540 -0.3173  1.2510
16457TIP3    H170862   6.642   0.351   6.139  1.1446 -0.3000  0.7917
16457TIP3    H270863   6.693   0.213   6.172 -0.6278 -0.7055  1.9466
16458TIP3   OH270864   2.339   1.648  10.546 -0.3147 -0.4339 -0.1207
16458TIP3    H170865   2.276   1.576  10.540 -1.0834 -0.0252  2.3609
16458TIP3    H270866   2.390   1.643  10.466 -1.9658 -2.2481 -1.0793
16459TIP3   OH270867   0.465   3.919   3.607  0.6794 -0.1951 -0.8419
16459TIP3    H170868   0.474   3.834   3.565  1.1458 -1.1682  1.1455
16459TIP3    H270869   0.555   3.951   3.617  0.5876 -0.0325 -0.5020
16460TIP3   OH270870   1.660   3.878  15.305  0.2533 -0.1919  0.5999
16460TIP3    H170871   1.678   3.932  15.227 -0.9493 -0.2387  0.2873
16460TIP3    H270872   1.589   3.924  15.349 -0.7530 -1.5071  0.3544
16461TIP3   OH270873   6.619   5.865   3.007  0.2298  0.1913 -0.4604
16461TIP3    H170874   6.655   5.785   3.044 -0.3512 -0.0454 -0.4027
16461TIP3    H270875   6.578   5.909   3.082  1.2679  0.9488 -0.3229
16462TIP3   OH270876   5.053   2.020  12.851  0.1716  0.6275 -0.0291
16462TIP3    H170877   5.040   2.082  12.779  1.1471  0.1291 -0.6337
16462TIP3    H270878   5.047   1.934  12.811 -0.0080  0.3361  0.6148
16463TIP3   OH270879   4.812   3.196   3.863 -0.6745 -0.8239  0.6451
16463TIP3    H170880   4.806   3.278   3.911  2.3841 -0.4268  0.4375
16463TIP3    H270881   4.768   3.132   3.920 -1.4423  0.5813  1.6585
16464TIP3   OH270882   4.069   2.137   5.492 -0.0339 -0.3438  0.4250
16464TIP3    H170883   4.079   2.134   5.397 -0.9984 -0.2685  0.3140
16464TIP3    H270884   4.017   2.216   5.508 -0.6599 -0.8596  0.9457
16465TIP3   OH270885   4.425   6.791   0.837 -0.0832  0.2755 -0.0231
16465TIP3    H170886   4.505   6.742   0.819 -0.3892  0.0584 -0.8582
16465TIP3    H270887   4.367   6.727   0.878 -0.6793 -0.2463 -1.6108
16466TIP3   OH270888   1.025   3.424  15.180 -0.5878  0.8043 -0.2152
16466TIP3    H170889   1.106   3.407  15.228 -0.4109  0.6373 -0.5678
16466TIP3    H270890   1.013   3.346  15.124 -0.3586  1.3517 -1.0382
16467TIP3   OH270891   6.129   1.137  13.397  0.4758 -0.1176  0.2844
16467TIP3    H170892   6.119   1.060  13.341  5.8108 -1.8267  1.4486
16467TIP3    H270893   6.113   1.105  13.486 -0.7173  0.9486  0.4743
16468TIP3   OH270894   1.100   5.127  13.642 -0.3403  0.2162 -0.1524
16468TIP3    H170895   1.057   5.167  13.567  1.9230  2.4715 -0.3226
16468TIP3    H270896   1.050   5.159  13.718 -3.4357 -3.0949 -0.6280
16469TIP3   OH270897   3.484   2.237  14.175 -0.3356 -0.1098 -0.2451
16469TIP3    H170898   3.562   2.188  14.202 -0.8407 -0.6584  0.2096
16469TIP3    H270899   3.516   2.296  14.106  0.3571 -0.7719 -0.4979
16470TIP3   OH270900   4.164   3.848   1.602 -0.0408  0.7007 -1.0923
16470TIP3    H170901   4.088   3.804   1.641  0.4405 -0.6181 -1.5923
16470TIP3    H270902   4.237   3.824   1.658  0.1578  1.2058 -1.1360
16471TIP3   OH270903   6.533   0.694   1.482 -0.0893 -0.0147 -0.7704
16471TIP3    H170904   6.628   0.700   1.471  0.2069 -0.9130  1.1163
16471TIP3    H270905   6.506   0.623   1.424  0.5977 -0.6892 -0.2763
16472TIP3   OH270906   5.115   0.254  15.353  0.1508 -0.1681 -0.1504
16472TIP3    H170907   5.182   0.216  15.296  0.6050  1.2293 -0.5635
16472TIP3    H270908   5.162   0.319  15.405 -0.5572 -0.3734  0.7629
16473TIP3   OH270909   1.279   2.608  11.465 -0.4289  0.1020 -0.1600
16473TIP3    H170910   1.258   2.696  11.434 -0.7756 -0.0125 -0.2559
16473TIP3    H270911   1.203   2.582  11.516  0.5437  0.6558  1.5991
16474TIP3   OH270912   3.704   6.098  15.497  0.3304 -0.2726  0.1585
16474TIP3    H170913   3.686   6.056  15.413  1.0002  2.3990 -1.3855
16474TIP3    H270914   3.791   6.067  15.521  0.5511 -0.2945 -0.6426
16475TIP3   OH270915   2.266   1.790  15.084  0.4860 -0.2249  0.4590
16475TIP3    H170916   2.291   1.871  15.129  2.6676 -0.5958  0.0055
16475TIP3    H270917   2.335   1.778  15.018 -0.2408 -2.0428  0.0104
16476TIP3   OH270918   5.560   1.044  13.111 -0.5141 -0.6594 -0.0010
16476TIP3    H170919   5.556   1.139  13.120  0.4351 -0.3172 -2.8839
16476TIP3    H270920   5.654   1.024  13.108 -0.7121 -1.4064 -1.9285
16477TIP3   OH270921   2.569   1.389   0.589 -0.6393  0.0146  0.0666
16477TIP3    H170922   2.518   1.315   0.623  0.7133 -1.2527 -0.5880
16477TIP3    H270923   2.659   1.368   0.613 -0.0667  0.7401 -1.4079
16478TIP3   OH270924   1.395   5.197   4.100 -0.4236 -0.3445 -0.9734
16478TIP3    H170925   1.311   5.237   4.078 -0.5162 -1.2907 -2.4446
16478TIP3    H270926   1.442   5.192   4.017  0.3823 -1.4309 -0.4712
16479TIP3   OH270927   3.002   4.318  11.958  0.5691 -0.5460 -0.3394
16479TIP3    H170928   3.029   4.228  11.939  0.1052 -0.6651 -0.4467
16479TIP3    H270929   3.082   4.362  11.985  0.5877 -1.2841  0.8319
16480TIP3   OH270930   5.952   5.523   1.051  0.1066  0.6119 -0.4050
16480TIP3    H170931   5.962   5.478   1.135 -0.4043 -0.2231 -0.7739
16480TIP3    H270932   6.030   5.578   1.043  1.0400 -0.6452 -0.1867
16481TIP3   OH270933   3.075   0.646  10.975  0.6884 -0.0774  0.6781
16481TIP3    H170934   3.052   0.567  10.927  0.2512  0.7603 -0.5173
16481TIP3    H270935   2.991   0.686  10.998  0.8952 -0.3662  1.9680
16482TIP3   OH270936   3.562   6.118  14.901 -0.1338  0.7520 -0.6508
16482TIP3    H170937   3.536   6.050  14.964  1.3579 -0.8742 -1.7650
16482TIP3    H270938   3.506   6.102  14.825  0.3259  0.6686 -0.9722
16483TIP3   OH270939   4.027   4.582   0.212  0.3663 -0.0446 -0.2418
16483TIP3    H170940   4.061   4.508   0.162  0.3435 -0.1408 -0.1184
16483TIP3    H270941   3.951   4.612   0.162 -0.0032 -0.5074  0.0294
16484TIP3   OH270942   0.475   2.075   1.813 -0.0422  1.2068 -0.3882
16484TIP3    H170943   0.465   2.170   1.821  0.3383  1.1250  1.1742
16484TIP3    H270944   0.422   2.052   1.737  0.0281  2.6981 -0.9112
16485TIP3   OH270945   4.749   1.689  12.416  0.2750  0.1438  0.0892
16485TIP3    H170946   4.768   1.646  12.333 -1.3612 -1.2645  0.4257
16485TIP3    H270947   4.778   1.626  12.483  0.7698  0.9034  0.6007
16486TIP3   OH270948   3.800   5.972  15.265 -0.3464  0.1529 -0.1126
16486TIP3    H170949   3.826   5.890  15.306  0.4400  0.3925 -0.1110
16486TIP3    H270950   3.771   5.948  15.177  3.1932  0.2237 -1.3909
16487TIP3   OH270951   4.645   5.174  16.705 -0.1956  0.3917 -1.0860
16487TIP3    H170952   4.634   5.185  16.799 -0.9284  1.5339 -1.3043
16487TIP3    H270953   4.560   5.143  16.674 -0.2946  1.0968 -1.5326
16488TIP3   OH270954   5.375   3.622   4.358 -0.0831  0.1903 -0.2173
16488TIP3    H170955   5.398   3.617   4.451 -1.0181 -1.3972 -0.0494
16488TIP3    H270956   5.441   3.680   4.320  0.4284  0.6949  1.3994
16489TIP3   OH270957   3.255   0.978   3.179 -0.6872  0.0998 -0.3772
16489TIP3    H170958   3.236   0.951   3.269  0.2073  1.6195  0.2949
16489TIP3    H270959   3.310   0.907   3.145  0.4975  0.3495  0.9077
16490TIP3   OH270960   5.232   2.029   4.447 -0.3136 -0.2154 -0.2736
16490TIP3    H170961   5.271   2.110   4.415  2.8795 -1.2617  0.7648
16490TIP3    H270962   5.220   2.043   4.541  0.6825 -1.0940 -0.0084
16491TIP3   OH270963   0.323   2.780   4.327  0.2339  0.2362 -0.3575
16491TIP3    H170964   0.321   2.734   4.411 -0.4253 -0.5548 -0.8058
16491TIP3    H270965   0.400   2.837   4.333  1.2512 -1.1579  0.0749
16492TIP3   OH270966   4.767   4.553   1.364  0.6266  0.3144  0.2869
16492TIP3    H170967   4.689   4.539   1.418  1.3771 -0.0157  1.2968
16492TIP3    H270968   4.820   4.615   1.413  1.1446  0.2982 -0.2463
16493TIP3   OH270969   5.020   6.116   4.576  0.0700  0.0638 -0.1007
16493TIP3    H170970   5.012   6.024   4.602  1.4844 -0.0337  0.0416
16493TIP3    H270971   4.952   6.161   4.626  1.5834 -0.3888  2.4867
16494TIP3   OH270972   6.223   6.388  16.770  0.3163 -0.2154  0.5990
16494TIP3    H170973   6.175   6.318  16.814  0.0571 -1.5745 -1.7545
16494TIP3    H270974   6.315   6.364  16.780  0.2623 -0.4659  0.5010
16495TIP3   OH270975   1.990   0.254   5.239  0.2259 -0.1432  0.3048
16495TIP3    H170976   1.900   0.268   5.207  0.8020 -0.3122 -1.4563
16495TIP3    H270977   2.021   0.342   5.260  0.1375  0.0934 -0.5048
16496TIP3   OH270978   0.442   4.797   5.103 -0.3690 -0.4463 -0.6547
16496TIP3    H170979   0.414   4.788   5.194 -0.3165  1.4347 -0.4222
16496TIP3    H270980   0.483   4.713   5.082 -2.5786 -1.8006  0.2508
16497TIP3   OH270981   1.477   2.344  14.192 -0.7280 -0.4747  0.2568
16497TIP3    H170982   1.534   2.383  14.126 -1.1334  1.7576  1.1872
16497TIP3    H270983   1.392   2.335  14.148 -0.2440 -1.7062 -0.4285
16498TIP3   OH270984   2.271   3.909   3.929 -0.4047 -0.1652  0.5123
16498TIP3    H170985   2.230   3.896   4.014  0.4884 -2.0006  0.6877
16498TIP3    H270986   2.364   3.920   3.948  0.0162 -2.0482 -0.2831
16499TIP3   OH270987   0.845   5.202  15.240  0.7631 -0.3997  0.1947
16499TIP3    H170988   0.827   5.185  15.332  0.5171 -2.4406 -0.2154
16499TIP3    H270989   0.758   5.208  15.200  0.8642  0.7616  0.1387
16500TIP3   OH270990   4.987   6.142  13.540  0.3940  0.0630 -0.8260
16500TIP3    H170991   4.922   6.086  13.582 -1.1225  0.7676 -2.1649
16500TIP3    H270992   5.049   6.165  13.610 -1.2406  0.0215  0.6646
16501TIP3   OH270993   1.431   5.787  12.382  0.2846  0.1927 -0.2693
16501TIP3    H170994   1.522   5.814  12.370  0.3138 -0.7317 -2.4027
16501TIP3    H270995   1.409   5.815  12.471  2.6693  0.3653  0.3036
16502TIP3   OH270996   4.054   0.375   5.827 -0.5693  0.0865 -0.2706
16502TIP3    H170997   4.148   0.392   5.816 -0.0061 -1.1314  2.2409
16502TIP3    H270998   4.024   0.442   5.888 -0.6752 -1.2611  1.1940
16503TIP3   OH270999   6.649   6.276   2.018 -0.7222 -0.0420  0.1604
16503TIP3    H171000   6.625   6.199   1.966  1.0866 -2.2625  2.4868
16503TIP3    H271001   6.714   6.322   1.965  1.5778 -2.6135  0.6218
16504TIP3   OH271002   2.487   6.525   6.230  0.1005  0.6532 -0.4394
16504TIP3    H171003   2.548   6.577   6.178  0.6284 -1.9868 -2.5814
16504TIP3    H271004   2.539   6.450   6.260 -0.9420  0.6910  1.5551
16505TIP3   OH271005   2.620   5.097  11.636  0.4610 -1.0363 -0.2426
16505TIP3    H171006   2.702   5.101  11.685 -0.3597 -0.9631  1.1439
16505TIP3    H271007   2.557   5.061  11.698 -1.6479  3.1420  0.2041
16506TIP3   OH271008   1.492   1.092  12.016  0.3244  0.9789  0.3217
16506TIP3    H171009   1.418   1.122  12.070 -0.6231  1.5561 -1.2769
16506TIP3    H271010   1.496   1.154  11.944  0.7156 -0.5647 -1.0194
16507TIP3   OH271011   2.860   2.599  15.754 -0.5643  0.0901  0.3443
16507TIP3    H171012   2.854   2.618  15.847 -0.1978  0.3693  0.3134
16507TIP3    H271013   2.953   2.583  15.738 -0.4467  1.1686 -0.1734
16508TIP3   OH271014   3.885   4.906  16.790  0.5475  0.0457  0.3963
16508TIP3    H171015   3.877   4.881  16.698 -1.7623  0.3198  0.4855
16508TIP3    H271016   3.893   4.824  16.837  1.1483 -0.1240 -0.0008
16509TIP3   OH271017   1.917   3.314  17.004  0.6836 -0.3011 -0.0925
16509TIP3    H171018   2.001   3.334  16.964  0.1399  1.2099 -0.5093
16509TIP3    H271019   1.885   3.398  17.036 -0.7137 -0.8392 -0.0480
16510TIP3   OH271020   1.604   4.144   1.962  0.1343 -0.0023  0.3104
16510TIP3    H171021   1.660   4.096   1.902  1.2777  0.3722  1.0655
16510TIP3    H271022   1.630   4.236   1.951 -0.8920  0.2654  0.0744
16511TIP3   OH271023   3.413   4.883  16.357  0.4420  0.1430 -0.7145
16511TIP3    H171024   3.329   4.843  16.376  0.6135  0.3022  0.4244
16511TIP3    H271025   3.424   4.873  16.262 -0.8549  0.1392 -0.8672
16512TIP3   OH271026   3.746   5.863   0.462 -0.2358  0.0323  0.4582
16512TIP3    H171027   3.819   5.899   0.512  0.7371 -1.7439  0.3568
16512TIP3    H271028   3.743   5.771   0.487 -0.5547 -0.5924 -1.7445
16513TIP3   OH271029   3.640   6.574   0.820 -0.0228 -0.1932  0.2103
16513TIP3    H171030   3.568   6.510   0.817 -0.2391  0.0375  0.4794
16513TIP3    H271031   3.611   6.644   0.761  0.4342 -0.5703 -0.4713
16514TIP3   OH271032   1.181   2.796  14.063 -0.1921  0.4873  0.1103
16514TIP3    H171033   1.089   2.788  14.036 -0.5498 -0.5970  1.5996
16514TIP3    H271034   1.198   2.890  14.059 -1.9101  0.8964  1.5191
16515TIP3   OH271035   1.444   1.552   3.525 -0.1391  0.1710 -1.3131
16515TIP3    H171036   1.360   1.509   3.545 -0.4452  1.6994  0.9160
16515TIP3    H271037   1.500   1.530   3.600  0.7913  0.8808 -1.7892
16516TIP3   OH271038   3.432   6.738  16.768 -0.8470  0.2072  0.4924
16516TIP3    H171039   3.497   6.753  16.699  0.3641 -1.3748  1.2648
16516TIP3    H271040   3.407   6.826  16.796 -1.0195  0.8606 -1.6417
16517TIP3   OH271041   0.706   2.407   0.682  0.1010  0.0121  0.6731
16517TIP3    H171042   0.678   2.443   0.767  0.1333 -1.2963  1.2459
16517TIP3    H271043   0.764   2.334   0.705  1.2934  0.5626 -0.4872
16518TIP3   OH271044   5.763   0.184   0.629  0.7850 -0.5460 -0.2517
16518TIP3    H171045   5.851   0.198   0.661  0.9907 -0.5573 -0.7948
16518TIP3    H271046   5.721   0.129   0.695 -0.0789  2.6658  1.9487
16519TIP3   OH271047   6.383   1.326  15.481  0.4161  0.1708  0.6132
16519TIP3    H171048   6.291   1.302  15.469  0.8492 -0.2724 -2.1381
16519TIP3    H271049   6.381   1.400  15.541 -1.9980  2.0039 -1.6274
16520TIP3   OH271050   2.893   5.861   1.851 -0.1066  0.1642  0.6223
16520TIP3    H171051   2.939   5.778   1.862  0.5459  0.4759  0.2357
16520TIP3    H271052   2.905   5.884   1.759  0.3528  1.0627  0.9020
16521TIP3   OH271053   4.900   2.718  15.332 -0.1796 -0.1523 -0.2901
16521TIP3    H171054   4.954   2.641  15.314 -1.3796 -1.1158  0.0889
16521TIP3    H271055   4.956   2.775  15.384  0.5217 -1.0742 -0.0129
16522TIP3   OH271056   4.525   6.406   1.428  0.1875  0.0022 -0.0341
16522TIP3    H171057   4.508   6.413   1.334  0.0757 -0.0029 -0.0142
16522TIP3    H271058   4.534   6.312   1.443 -0.6702 -0.0606  0.1142
16523TIP3   OH271059   3.574   4.225   2.166 -0.2916 -0.0496 -0.1805
16523TIP3    H171060   3.533   4.280   2.232  1.0953  0.7165  0.0553
16523TIP3    H271061   3.572   4.279   2.086 -0.5879 -0.3782 -0.3963
16524TIP3   OH271062   5.915   6.323  12.061  0.2144 -0.0358  0.2027
16524TIP3    H171063   5.966   6.337  12.141 -1.1454  0.1555  1.0564
16524TIP3    H271064   5.843   6.265  12.087 -1.8469  2.2406 -0.1884
16525TIP3   OH271065   5.115   2.840  15.499  0.0499 -0.2941  0.0445
16525TIP3    H171066   5.170   2.781  15.447  0.4032  0.5326 -0.5344
16525TIP3    H271067   5.109   2.798  15.585  1.1085 -0.6826 -0.0651
16526TIP3   OH271068   2.885   2.009   4.366 -0.0587 -0.2772  0.3904
16526TIP3    H171069   2.818   1.982   4.303 -2.3724  1.7515  1.8919
16526TIP3    H271070   2.949   1.937   4.365 -1.5970 -1.6805 -1.9979
16527TIP3   OH271071   5.933   4.449  13.243  0.1863  0.6670  0.3273
16527TIP3    H171072   6.011   4.408  13.281  0.4153 -0.0586 -0.8886
16527TIP3    H271073   5.941   4.432  13.149 -2.2340 -0.8313  0.3456
16528TIP3   OH271074   4.239   1.379   2.594 -0.3974  0.0975 -0.4202
16528TIP3    H171075   4.160   1.407   2.640 -2.5394 -2.9763 -2.0554
16528TIP3    H271076   4.210   1.364   2.504  1.9053 -1.7698 -0.8896
16529TIP3   OH271077   1.920   1.960   3.812 -0.0379  0.3151  0.2039
16529TIP3    H171078   1.864   2.002   3.747 -0.0469  2.2187  1.4216
16529TIP3    H271079   2.001   2.010   3.812 -0.4803  1.1236  2.5016
16530TIP3   OH271080   4.982   1.588  11.580  0.3063 -0.1151 -0.1111
16530TIP3    H171081   5.048   1.561  11.644 -0.1772  1.1500  0.9531
16530TIP3    H271082   4.910   1.528  11.593  1.3457 -1.6951 -1.4839
16531TIP3   OH271083   6.790   5.882   4.039 -0.0936  0.4856 -0.4344
16531TIP3    H171084   6.756   5.928   3.963 -0.9430  0.2671 -0.1891
16531TIP3    H271085   6.866   5.934   4.067 -0.5416  1.2569 -0.6602
16532TIP3   OH271086   5.336   1.918   0.213  0.1727 -0.4025  0.3763
16532TIP3    H171087   5.327   1.932   0.119  1.4035 -0.7968  0.1884
16532TIP3    H271088   5.251   1.942   0.249 -0.5285 -0.8951 -0.9115
16533TIP3   OH271089   0.856   0.697  17.246  0.1426  0.0325 -0.0034
16533TIP3    H171090   0.938   0.668  17.206  1.0031 -0.3101  1.9677
16533TIP3    H271091   0.824   0.766  17.188  1.9042  0.2762 -0.7117
16534TIP3   OH271092   3.515   4.060  12.873 -0.5234 -0.1437  0.5326
16534TIP3    H171093   3.427   4.023  12.881 -0.4184 -0.3975  0.4924
16534TIP3    H271094   3.509   4.143  12.920 -0.7302 -0.2525  0.7022
16535TIP3   OH271095   1.434   2.125  11.336 -0.3818  0.4205  0.6024
16535TIP3    H171096   1.505   2.075  11.378  0.8731  1.9961  0.4279
16535TIP3    H271097   1.367   2.060  11.315  1.4000 -1.2554 -0.0214
16536TIP3   OH271098   4.586   2.404   1.143 -0.0375 -0.0617 -0.2874
16536TIP3    H171099   4.671   2.368   1.171 -1.3789 -1.4789  2.0664
16536TIP3    H271100   4.576   2.484   1.194 -2.1369 -2.2581  2.9412
16537TIP3   OH271101   5.376   6.800   1.790  0.1768 -0.2835  0.6607
16537TIP3    H171102   5.302   6.833   1.741  0.9643 -0.2201 -0.4957
16537TIP3    H271103   5.351   6.711   1.815 -0.1489 -0.3761 -0.0031
16538TIP3   OH271104   3.630   5.369   2.372  0.5701  0.9109  0.3632
16538TIP3    H171105   3.658   5.460   2.383 -0.2866  1.2756 -0.3588
16538TIP3    H271106   3.551   5.361   2.425  0.5710  0.6190  0.3234
16539TIP3   OH271107   6.001   3.169   5.544  0.3150  0.6462  0.8043
16539TIP3    H171108   6.021   3.226   5.619  0.7145 -1.5010  2.3956
16539TIP3    H271109   6.026   3.081   5.574 -1.6375 -0.5774 -1.0528
16540TIP3   OH271110   2.935   4.482   3.647  0.2106  0.0419  0.3611
16540TIP3    H171111   2.847   4.507   3.618 -0.0217  0.2404  1.2248
16540TIP3    H271112   2.990   4.556   3.622 -0.0381  0.3379  0.6753
16541TIP3   OH271113   1.121   6.511   1.064 -0.0252  0.2151 -0.7691
16541TIP3    H171114   1.058   6.564   1.112 -1.7628 -0.8362 -1.8248
16541TIP3    H271115   1.159   6.571   1.000  0.8132  1.1112  0.5555
16542TIP3   OH271116   6.681   4.913   0.652 -0.1462 -0.2106 -0.1359
16542TIP3    H171117   6.712   4.958   0.573 -2.2639  1.5122 -0.0391
16542TIP3    H271118   6.642   4.832   0.619  0.8021 -0.4790 -0.6329
16543TIP3   OH271119   1.796   0.078   3.951  0.0165 -0.5548  0.2447
16543TIP3    H171120   1.799   0.154   3.893  0.5642 -1.5097 -0.9971
16543TIP3    H271121   1.871   0.088   4.009  0.3274 -0.3509 -0.1908
16544TIP3   OH271122   2.486   1.687  13.442 -0.0667 -0.1902 -0.2251
16544TIP3    H171123   2.504   1.725  13.356 -0.0198 -0.8437 -0.5131
16544TIP3    H271124   2.415   1.625  13.426 -0.3321 -0.0214  0.2864
16545TIP3   OH271125   4.095   5.200   4.388  0.2465 -0.0056  0.0035
16545TIP3    H171126   4.084   5.258   4.313  0.7440 -0.5324 -0.4712
16545TIP3    H271127   4.188   5.179   4.390  0.2610  0.0966  0.8350
16546TIP3   OH271128   5.443   1.414   3.025 -0.2216  0.1981 -0.0167
16546TIP3    H171129   5.359   1.443   3.060 -0.1356 -0.9707  1.2174
16546TIP3    H271130   5.448   1.320   3.047  0.1079 -0.4532 -2.6606
16547TIP3   OH271131   6.064   0.956   5.707 -0.1800  0.0911  0.0670
16547TIP3    H171132   6.062   1.040   5.754 -0.1599 -0.4862  1.1076
16547TIP3    H271133   5.986   0.959   5.652  1.1282  1.8312 -1.7478
16548TIP3   OH271134   3.464   2.974   4.595  0.4217  0.0446 -0.1044
16548TIP3    H171135   3.550   3.003   4.627  0.5025 -0.6675  0.3332
16548TIP3    H271136   3.442   2.900   4.651 -1.3473  1.4125  1.0406
16549TIP3   OH271137   4.858   1.809  17.158 -0.4044 -0.2931  0.1541
16549TIP3    H171138   4.783   1.825  17.100 -0.9405 -0.0216  0.9103
16549TIP3    H271139   4.931   1.856  17.117 -1.1953  1.3735  0.6335
16550TIP3   OH271140   2.505   1.686   0.701 -0.3784  0.3476  0.3636
16550TIP3    H171141   2.433   1.662   0.642  0.3405 -1.6414  0.2747
16550TIP3    H271142   2.576   1.626   0.679  1.0071  1.6459  1.1207
16551TIP3   OH271143   3.633   0.479  11.271  0.3558  0.0394 -0.0710
16551TIP3    H171144   3.635   0.498  11.364 -1.7415  0.8398 -0.1703
16551TIP3    H271145   3.696   0.540  11.232 -0.3071  1.1518  0.5859
16552TIP3   OH271146   3.410   5.905   1.064  0.1502  0.0417 -1.0482
16552TIP3    H171147   3.443   5.816   1.052 -0.7417 -0.1382 -2.3497
16552TIP3    H271148   3.338   5.896   1.126  1.6818  0.2392  0.7709
16553TIP3   OH271149   4.035   1.636   1.409  0.0422 -0.1590 -0.1997
16553TIP3    H171150   4.123   1.636   1.448  0.5023  2.3890 -1.1079
16553TIP3    H271151   4.041   1.700   1.338 -2.0081 -1.4645 -1.5813
16554TIP3   OH271152   4.564   4.021   4.083 -0.2997  0.8358  0.1362
16554TIP3    H171153   4.474   4.050   4.068 -0.0787  0.7924 -1.3108
16554TIP3    H271154   4.578   3.951   4.020  1.3699  2.1256 -0.9796
16555TIP3   OH271155   4.796   1.686  13.951  0.5897 -0.4896  0.1333
16555TIP3    H171156   4.786   1.615  13.888  1.4048 -1.1348  0.7087
16555TIP3    H271157   4.791   1.642  14.036 -1.3628  0.4813  0.5364
16556TIP3   OH271158   5.558   4.663  15.596 -0.1485 -0.4259 -1.2272
16556TIP3    H171159   5.615   4.700  15.529 -0.3286  3.9785  0.8812
16556TIP3    H271160   5.469   4.674  15.561 -0.2220  1.5760 -0.4679
16557TIP3   OH271161   3.755   4.413   5.073  0.3741  0.3386 -0.2811
16557TIP3    H171162   3.694   4.366   5.017  0.1230  0.6198 -0.2460
16557TIP3    H271163   3.813   4.459   5.012  2.1656 -1.9427 -0.3552
16558TIP3   OH271164   6.104   3.285   4.298  0.8109  0.0894 -0.4783
16558TIP3    H171165   6.026   3.286   4.243  0.5333 -0.6745 -0.0925
16558TIP3    H271166   6.098   3.204   4.349  1.5776  0.2901 -0.0526
16559TIP3   OH271167   4.698   0.822  14.852 -0.5512  0.1188 -0.5189
16559TIP3    H171168   4.772   0.765  14.834 -0.7307 -0.5545  0.7845
16559TIP3    H271169   4.701   0.889  14.783  1.6231  0.4582 -0.1303
16560TIP3   OH271170   4.171   2.145  14.434  0.0952 -0.2851  0.1656
16560TIP3    H171171   4.128   2.111  14.512 -2.1410 -0.8080 -1.2514
16560TIP3    H271172   4.213   2.068  14.395 -0.3599 -0.3867 -0.1284
16561TIP3   OH271173   0.304   6.718   1.561 -0.1000 -0.7510  0.5771
16561TIP3    H171174   0.314   6.623   1.567  0.4161 -0.7638 -0.4494
16561TIP3    H271175   0.233   6.738   1.622 -1.9736 -2.1040 -1.0798
16562TIP3   OH271176   1.369   3.480   4.649  0.0882  0.5313 -0.7802
16562TIP3    H171177   1.450   3.520   4.682  1.0065 -0.2342 -2.0527
16562TIP3    H271178   1.313   3.472   4.726  2.0040 -0.7692  0.5243
16563TIP3   OH271179   2.936   0.149   3.032 -0.0917 -0.5688  0.0273
16563TIP3    H171180   3.028   0.127   3.044 -0.0971 -1.4581 -1.4241
16563TIP3    H271181   2.892   0.065   3.023 -1.1961 -0.1761  1.6472
16564TIP3   OH271182   4.551   3.819   4.395 -0.6206 -0.3386  0.0481
16564TIP3    H171183   4.538   3.865   4.478 -0.6097  1.2135 -0.7956
16564TIP3    H271184   4.465   3.822   4.352 -0.6510 -1.2224  0.0208
16565TIP3   OH271185   5.266   0.587   3.716  0.4655  0.2652  0.0212
16565TIP3    H171186   5.316   0.517   3.674  1.4448  0.9571  0.0385
16565TIP3    H271187   5.197   0.541   3.764 -0.4668 -0.5578 -2.0386
16566TIP3   OH271188   4.968   4.692  12.846 -0.0911  0.4368 -0.4020
16566TIP3    H171189   4.974   4.606  12.887  0.4712  1.5830  1.9945
16566TIP3    H271190   5.003   4.678  12.758 -0.5257 -1.8968 -0.2462
16567TIP3   OH271191   4.161   4.779   1.038  0.6038 -0.2070 -0.5175
16567TIP3    H171192   4.135   4.793   1.129  1.9329 -1.4162  0.0590
16567TIP3    H271193   4.165   4.867   1.001 -0.6016  0.2493  0.3969
16568TIP3   OH271194   0.990   5.386   6.619  0.5436  0.0952  0.0515
16568TIP3    H171195   0.899   5.379   6.646  0.5749 -0.2217  0.0813
16568TIP3    H271196   1.005   5.480   6.608  0.6904  0.2873  1.7223
16569TIP3   OH271197   0.864   2.241  13.931  0.0289  0.5795  0.3271
16569TIP3    H171198   0.875   2.302  13.858 -0.7097  0.2889 -0.0331
16569TIP3    H271199   0.855   2.155  13.890 -1.4641  0.5466  0.6961
16570TIP3   OH271200   3.621   1.197  10.217  0.2137  0.7481  0.3258
16570TIP3    H171201   3.569   1.252  10.275 -1.8610  0.4087 -1.1340
16570TIP3    H271202   3.565   1.120  10.200 -0.3718  1.9561 -4.0034
16571TIP3   OH271203   1.076   4.799   5.414 -0.5209 -0.0465 -0.2116
16571TIP3    H171204   1.017   4.874   5.406  1.2873  1.4868  0.4108
16571TIP3    H271205   1.089   4.769   5.325 -0.1604  1.2779 -0.6146
16572TIP3   OH271206   1.710   1.047   5.488  0.0577  0.2959 -0.2328
16572TIP3    H171207   1.785   1.105   5.495 -0.0956  0.3823  0.8313
16572TIP3    H271208   1.737   0.966   5.532 -0.0772 -0.0787 -0.8319
16573TIP3   OH271209   5.086   5.399  10.632 -0.3609 -0.5338 -0.0728
16573TIP3    H171210   5.012   5.350  10.595  0.6633 -2.7214  0.6669
16573TIP3    H271211   5.064   5.410  10.724 -0.1313 -0.4560 -0.0276
16574TIP3   OH271212   2.842   6.469  16.519  0.2588 -0.2655  0.3960
16574TIP3    H171213   2.829   6.538  16.584  1.6410  0.4215 -0.0344
16574TIP3    H271214   2.783   6.493  16.447  1.2227  0.8618 -0.0407
16575TIP3   OH271215   5.799   3.595   4.644 -0.1401  0.2904  0.3668
16575TIP3    H171216   5.772   3.504   4.637 -0.4491  0.3120  1.2491
16575TIP3    H271217   5.874   3.602   4.585 -0.3502 -0.4419  0.0097
16576TIP3   OH271218   0.599   0.814   2.681 -0.1351  0.2513 -0.0723
16576TIP3    H171219   0.609   0.725   2.646 -1.4471  0.1258 -0.1331
16576TIP3    H271220   0.620   0.806   2.774 -0.3202 -0.1345 -0.0638
16577TIP3   OH271221   5.420   6.618   2.608 -0.0838  0.5625 -0.0766
16577TIP3    H171222   5.462   6.617   2.694  2.1465 -1.1675 -1.1427
16577TIP3    H271223   5.409   6.711   2.587 -0.2198  0.9933  1.8610
16578TIP3   OH271224   4.910   2.964   6.418  0.3717 -0.4970 -0.5871
16578TIP3    H171225   4.864   2.979   6.501  0.2092  0.4377 -0.8386
16578TIP3    H271226   4.930   3.052   6.385  2.4078 -0.8804 -0.4481
16579TIP3   OH271227   4.421   2.085   0.703 -0.2489  0.2060 -0.0869
16579TIP3    H171228   4.326   2.085   0.708 -0.2524 -0.4466 -0.0688
16579TIP3    H271229   4.449   2.148   0.769 -0.5490 -2.7211  2.9462
16580TIP3   OH271230   2.394   6.508   1.112 -0.1670 -0.0037 -0.3952
16580TIP3    H171231   2.301   6.516   1.092 -0.2885  3.6695  1.2294
16580TIP3    H271232   2.430   6.595   1.093  2.0742 -0.1050  2.9025
16581TIP3   OH271233   5.038   0.989   4.015 -0.3890 -0.0977  0.2553
16581TIP3    H171234   4.966   1.026   4.066 -1.0070  0.3293 -0.9095
16581TIP3    H271235   5.050   1.049   3.941  1.0220 -0.2763  0.3197
16582TIP3   OH271236   2.909   3.441  13.143  0.3524  0.3775 -0.2388
16582TIP3    H171237   2.995   3.469  13.110  1.0610 -1.5902 -0.1469
16582TIP3    H271238   2.871   3.520  13.180  3.0130  0.9280  1.5513
16583TIP3   OH271239   3.601   0.491  12.939 -0.0169  0.1439  0.2288
16583TIP3    H171240   3.529   0.530  12.989  0.5632  3.0745 -1.1247
16583TIP3    H271241   3.680   0.532  12.974  0.6988 -0.3975 -0.7125
16584TIP3   OH271242   2.185   2.341   1.380 -0.3234  0.0160  0.1335
16584TIP3    H171243   2.218   2.319   1.467  1.9711 -0.6088 -0.8794
16584TIP3    H271244   2.214   2.431   1.366 -1.7333  0.5380  0.4888
16585TIP3   OH271245   0.225   0.202  15.759 -0.4917 -0.2304 -0.3852
16585TIP3    H171246   0.243   0.295  15.776 -0.6028 -0.1478 -0.7061
16585TIP3    H271247   0.253   0.189  15.668 -0.8039 -0.4250 -0.4522
16586TIP3   OH271248   5.434   0.917   1.734 -0.1696 -0.3687 -0.4699
16586TIP3    H171249   5.432   1.002   1.690 -0.8996 -0.3207 -0.3399
16586TIP3    H271250   5.489   0.863   1.677  0.6614  0.3112 -0.3255
16587TIP3   OH271251   5.375   3.163  11.939  0.0022 -0.1354 -0.2008
16587TIP3    H171252   5.343   3.097  12.001  2.7916  0.2492  1.7079
16587TIP3    H271253   5.413   3.232  11.993  3.5293 -0.3025 -2.2893
16588TIP3   OH271254   6.776   1.248   2.842  0.5976 -0.1604  0.6217
16588TIP3    H171255   6.751   1.229   2.932  1.4123  2.5484  1.4954
16588TIP3    H271256   6.784   1.344   2.840  1.3616 -0.2471 -2.1238
16589TIP3   OH271257   2.609   2.269  11.996 -0.2497  0.6737  0.1653
16589TIP3    H171258   2.551   2.193  12.009 -0.5393  1.0554  1.1025
16589TIP3    H271259   2.661   2.245  11.919 -0.2615 -0.5304  0.5122
16590TIP3   OH271260   2.780   6.246  17.055  0.6547 -0.2930 -0.5610
16590TIP3    H171261   2.715   6.188  17.014 -0.7984 -0.3641  1.7482
16590TIP3    H271262   2.845   6.186  17.093 -0.0355 -0.3885  0.5021
16591TIP3   OH271263   0.527   4.593   4.965  0.0053  0.5107  0.3148
16591TIP3    H171264   0.505   4.510   5.007 -0.5555  1.2279  1.4614
16591TIP3    H271265   0.471   4.596   4.887  2.1094 -1.4962 -1.3252
16592TIP3   OH271266   1.205   2.897   5.826 -0.2534 -0.1781 -0.1421
16592TIP3    H171267   1.253   2.967   5.784  1.1156 -0.8306  0.3122
16592TIP3    H271268   1.214   2.914   5.920  0.7532 -1.3821 -0.0071
16593TIP3   OH271269   2.463   4.525   3.130 -0.1829 -0.2457  0.2823
16593TIP3    H171270   2.465   4.584   3.206 -0.6427 -0.7670  0.7057
16593TIP3    H271271   2.532   4.462   3.147  0.9646  0.7488 -0.6483
16594TIP3   OH271272   1.770   5.769   4.756 -0.0418 -0.3111  0.3721
16594TIP3    H171273   1.690   5.723   4.730 -0.8900  0.2017  2.0548
16594TIP3    H271274   1.839   5.703   4.748 -0.8303 -1.1133  0.1675
16595TIP3   OH271275   4.109   5.124  12.281  0.0837 -0.6078  0.1561
16595TIP3    H171276   4.094   5.106  12.374 -0.3546 -0.3648  0.1321
16595TIP3    H271277   4.196   5.163  12.278 -0.1626 -0.0199  0.5401
16596TIP3   OH271278   5.124   5.685  15.518 -0.2749  0.1548  0.7012
16596TIP3    H171279   5.070   5.733  15.581 -0.0582  1.3385  0.0097
16596TIP3    H271280   5.187   5.750  15.486  0.9621 -0.9642  0.8015
16597TIP3   OH271281   2.922   6.737   2.777  0.2004  0.0588 -0.3248
16597TIP3    H171282   2.898   6.653   2.817  2.0957  0.5972  2.0725
16597TIP3    H271283   2.840   6.784   2.766 -0.5262 -0.7615  1.5159
16598TIP3   OH271284   4.631   2.327   5.613  0.1413  0.0840 -0.0142
16598TIP3    H171285   4.542   2.324   5.577  0.2425  0.4875 -0.3038
16598TIP3    H271286   4.623   2.287   5.699  0.2405 -2.4331 -1.1473
16599TIP3   OH271287   5.345   3.883   5.161 -0.1441 -0.4135  0.0943
16599TIP3    H171288   5.330   3.964   5.209 -1.4721 -0.8244  0.4001
16599TIP3    H271289   5.428   3.897   5.114 -1.5863  2.0501 -1.8350
16600TIP3   OH271290   3.488   3.720  15.520  0.0463 -0.1144 -0.5012
16600TIP3    H171291   3.521   3.800  15.480 -1.0807 -0.0826 -1.3867
16600TIP3    H271292   3.554   3.697  15.586 -0.0361  1.9919  0.3373
16601TIP3   OH271293   0.007   1.192  14.202 -0.7149 -0.2198 -0.2311
16601TIP3    H171294   0.072   1.175  14.133 -2.1009 -0.5670 -1.4906
16601TIP3    H271295   0.018   1.120  14.263  0.7636  0.2658  0.1033
16602TIP3   OH271296   4.447   2.416   4.283 -0.1211  0.9090  0.1182
16602TIP3    H171297   4.401   2.451   4.206  1.1184 -0.2434 -1.1820
16602TIP3    H271298   4.388   2.350   4.318 -0.8979  1.7609  0.4537
16603TIP3   OH271299   5.544   4.916  15.027  0.4931  0.6592  0.4701
16603TIP3    H171300   5.552   5.004  15.065 -0.8160  0.6340  0.8215
16603TIP3    H271301   5.616   4.911  14.964  0.1507  2.2418 -0.0667
16604TIP3   OH271302   3.710   2.100  14.245  0.2705  0.8642  0.4040
16604TIP3    H171303   3.750   2.076  14.162 -0.8804 -1.3559  0.4570
16604TIP3    H271304   3.782   2.137  14.297  0.8851  2.7398 -1.7310
16605TIP3   OH271305   3.750   5.920   2.741  0.2278  0.1942  0.2131
16605TIP3    H171306   3.741   6.015   2.742  0.1339  0.1903 -0.2527
16605TIP3    H271307   3.841   5.904   2.716  0.1281  0.1533 -0.1180
16606TIP3   OH271308   1.599   3.804   4.454 -0.3235 -0.4830  0.3884
16606TIP3    H171309   1.554   3.819   4.537 -0.4491  1.1762  0.0300
16606TIP3    H271310   1.604   3.890   4.412  0.8024 -1.0893 -0.7918
16607TIP3   OH271311   5.999   0.765   6.068  0.4972  0.4733 -0.4943
16607TIP3    H171312   5.943   0.719   6.130 -0.0432 -0.0693 -1.3849
16607TIP3    H271313   6.032   0.840   6.118  0.2439 -0.0737  0.5149
16608TIP3   OH271314   3.787   2.000   0.913 -0.3932 -0.6356  0.0217
16608TIP3    H171315   3.705   2.007   0.864 -0.0391 -0.5083 -0.5532
16608TIP3    H271316   3.813   2.090   0.931 -1.1668 -0.6903  1.5427
16609TIP3   OH271317   3.510   6.546   0.313 -0.2040 -0.3293  0.3874
16609TIP3    H171318   3.548   6.625   0.274 -0.0492  0.1804  1.5480
16609TIP3    H271319   3.585   6.495   0.342 -0.3553  0.4044  2.1507
16610TIP3   OH271320   6.660   2.075  17.033 -0.3203 -0.5406  0.1720
16610TIP3    H171321   6.704   2.002  17.076  0.6142 -0.6120 -0.9097
16610TIP3    H271322   6.675   2.062  16.940 -0.8562  0.5784 -0.0860
16611TIP3   OH271323   5.449   2.172  12.619  0.1461 -0.1358  0.2814
16611TIP3    H171324   5.513   2.151  12.551 -1.9586  3.4615 -3.0406
16611TIP3    H271325   5.375   2.115  12.600 -0.0538  0.1587  0.1753
16612TIP3   OH271326   5.388   0.165   2.273 -0.1130  0.1826 -0.3547
16612TIP3    H171327   5.400   0.165   2.178 -0.6774  1.5076 -0.4429
16612TIP3    H271328   5.299   0.133   2.286 -0.6991  1.7545 -0.3904
16613TIP3   OH271329   4.324   0.796  13.037  0.5875 -0.1473 -0.0404
16613TIP3    H171330   4.290   0.865  13.094  1.4525  0.2705 -0.0221
16613TIP3    H271331   4.286   0.816  12.951  0.2568 -0.0723  0.1224
16614TIP3   OH271332   4.797   2.456  13.130 -0.1452 -0.0988  0.3622
16614TIP3    H171333   4.883   2.429  13.161 -0.4362 -1.1512  0.2780
16614TIP3    H271334   4.810   2.477  13.037 -0.0950 -0.8139  0.2043
16615TIP3   OH271335   1.673   2.619  14.449 -0.0190  0.2801  0.3390
16615TIP3    H171336   1.702   2.598  14.361  0.3063 -1.0656  0.7595
16615TIP3    H271337   1.580   2.640  14.441 -0.3394 -1.2591 -0.1062
16616TIP3   OH271338   0.683   1.189   2.228  0.1632 -0.1725 -0.0124
16616TIP3    H171339   0.762   1.184   2.283 -1.1185  0.2480  1.9063
16616TIP3    H271340   0.666   1.098   2.203  1.1076 -0.2981 -0.2183
16617TIP3   OH271341   0.320   5.003   4.310  0.0683 -0.1892 -0.2793
16617TIP3    H171342   0.282   4.928   4.265 -1.4015  0.1398  0.4032
16617TIP3    H271343   0.245   5.052   4.344  1.1283  0.0373  1.7698
16618TIP3   OH271344   5.180   6.229  11.222 -0.5024 -0.0370 -0.3266
16618TIP3    H171345   5.122   6.185  11.160 -0.8016  2.3742 -1.8132
16618TIP3    H271346   5.266   6.190  11.207 -0.9853 -0.9596 -0.7390
16619TIP3   OH271347   6.080   6.044   1.069 -0.4100  0.5081 -0.4581
16619TIP3    H171348   5.994   6.062   1.031 -0.1972  1.8812 -0.3141
16619TIP3    H271349   6.141   6.053   0.996 -0.2134  1.1799 -0.2126
16620TIP3   OH271350   5.026   4.698  15.700  0.1105 -0.1952  0.0768
16620TIP3    H171351   4.996   4.644  15.626  0.7131 -0.0162 -0.3045
16620TIP3    H271352   4.966   4.773  15.700 -0.7439 -0.8771  0.6232
16621TIP3   OH271353   4.963   0.232   1.496 -0.5318  0.3582  0.2642
16621TIP3    H171354   4.994   0.309   1.543  0.1647  0.5719 -0.5273
16621TIP3    H271355   4.902   0.267   1.431 -1.0299  0.1261  0.6025
16622TIP3   OH271356   2.271   3.493  11.508 -0.9503  0.0285  0.4785
16622TIP3    H171357   2.340   3.442  11.551 -0.0499  0.6851 -0.1561
16622TIP3    H271358   2.218   3.428  11.461 -0.0755 -0.3754  0.0405
16623TIP3   OH271359   1.318   5.455   4.537  0.4072 -0.4018  0.0344
16623TIP3    H171360   1.241   5.470   4.483  1.1487 -0.5437 -1.0719
16623TIP3    H271361   1.377   5.404   4.482  1.1767 -0.5512  0.9753
16624TIP3   OH271362   5.392   1.252  16.187  0.6596  0.1043  0.2267
16624TIP3    H171363   5.466   1.267  16.246  0.0638  0.4183  0.9111
16624TIP3    H271364   5.419   1.290  16.104  0.3617  2.3613  1.1176
16625TIP3   OH271365   4.997   3.175  13.667 -0.0498 -0.6236  0.1560
16625TIP3    H171366   4.902   3.165  13.680 -0.1797  0.0254 -0.2950
16625TIP3    H271367   5.017   3.262  13.701  0.9598 -2.0335  3.3438
16626TIP3   OH271368   1.239   3.660   3.593 -0.3502 -0.2701  0.3879
16626TIP3    H171369   1.301   3.722   3.554 -0.0907 -0.0612  1.1234
16626TIP3    H271370   1.159   3.712   3.607 -0.2622 -0.2091  0.6481
16627TIP3   OH271371   5.894   3.957  12.537  0.1607 -0.2260 -0.2037
16627TIP3    H171372   5.844   3.925  12.462  1.2873 -2.2961 -0.1170
16627TIP3    H271373   5.981   3.918  12.527  0.8549  0.8958  1.2353
16628TIP3   OH271374   5.362   3.815   0.901  0.4186 -0.2611 -0.3434
16628TIP3    H171375   5.296   3.862   0.850  0.9627  0.1255 -0.6989
16628TIP3    H271376   5.379   3.735   0.851  0.5714 -0.1319 -0.4970
16629TIP3   OH271377   0.030   3.590  14.925 -0.3547 -0.3967  0.1599
16629TIP3    H171378  -0.028   3.514  14.923 -1.1247  0.1728  0.5588
16629TIP3    H271379   0.086   3.580  14.848 -1.9886 -0.1744 -1.0852
16630TIP3   OH271380   3.512   2.871  15.940 -0.0061  0.3295 -0.1247
16630TIP3    H171381   3.608   2.880  15.937  0.0163 -0.1446 -1.1818
16630TIP3    H271382   3.497   2.779  15.958 -0.2452 -0.1295 -2.4318
16631TIP3   OH271383   5.481   4.713   6.074 -0.1407  0.5578  0.0678
16631TIP3    H171384   5.519   4.635   6.114 -0.0916  1.2665  1.4163
16631TIP3    H271385   5.386   4.702   6.086 -0.0187  1.8253  2.3866
16632TIP3   OH271386   2.001   6.699  14.941 -0.1677 -0.1429 -0.4570
16632TIP3    H171387   2.061   6.638  14.983  2.9434  1.8262 -1.8552
16632TIP3    H271388   1.997   6.671  14.850 -0.3033  0.5152 -0.6611
16633TIP3   OH271389   0.142   2.295   4.377  0.1577  0.2961 -0.2145
16633TIP3    H171390   0.165   2.205   4.353 -0.3693 -0.3925  1.7636
16633TIP3    H271391   0.087   2.326   4.305 -2.2414 -2.0560  0.5481
16634TIP3   OH271392   3.344   0.402  11.447 -0.1022  0.3092 -0.0521
16634TIP3    H171393   3.331   0.407  11.542  0.3227  4.1037 -0.1169
16634TIP3    H271394   3.432   0.365  11.437 -0.3506 -0.6065  0.9818
16635TIP3   OH271395   0.803   2.679   4.528 -0.4850 -0.1510 -0.1203
16635TIP3    H171396   0.839   2.617   4.591  0.4858  0.8106  0.2845
16635TIP3    H271397   0.874   2.695   4.467  0.4057  3.0098  1.6084
16636TIP3   OH271398   1.525   4.563   4.954  0.0854 -0.4069 -0.2453
16636TIP3    H171399   1.535   4.626   5.026 -1.6693 -1.2032  0.7338
16636TIP3    H271400   1.448   4.593   4.906 -0.7385 -1.7561  0.2003
16637TIP3   OH271401   2.705   5.294  15.087 -0.1881 -0.2176  0.1078
16637TIP3    H171402   2.799   5.279  15.078 -0.3585 -1.3851  0.1327
16637TIP3    H271403   2.698   5.384  15.119  0.9705 -0.4450  1.0511
16638TIP3   OH271404   6.352   1.106  16.476 -0.1979  0.0054  0.1604
16638TIP3    H171405   6.434   1.152  16.496 -0.1098 -0.4187  0.7598
16638TIP3    H271406   6.298   1.118  16.554 -0.4009 -0.4129  0.0866
16639TIP3   OH271407   2.255   4.914  14.735  0.3991 -0.1336  0.1564
16639TIP3    H171408   2.288   4.893  14.822 -1.1710  1.5320  1.1884
16639TIP3    H271409   2.175   4.964  14.751  0.0854  0.2050 -2.2493
16640TIP3   OH271410   4.004   6.710   5.226 -0.0141  0.3494  0.0705
16640TIP3    H171411   4.026   6.717   5.133 -0.5017 -0.2970 -0.0944
16640TIP3    H271412   4.004   6.801   5.257  0.5390  0.5387 -0.4631
16641TIP3   OH271413   4.846   3.823   0.469 -0.4219 -0.7996 -0.6810
16641TIP3    H171414   4.796   3.798   0.547  2.5776  0.2888  1.6896
16641TIP3    H271415   4.802   3.902   0.438 -2.6782 -2.1754 -1.1609
16642TIP3   OH271416   2.877   5.243   3.106 -0.0853 -0.1894 -0.3697
16642TIP3    H171417   2.960   5.289   3.112  0.6329 -1.4259 -0.8140
16642TIP3    H271418   2.822   5.284   3.174  0.8357  0.6976 -0.1547
16643TIP3   OH271419   2.958   0.089  17.093  0.1795 -0.1590 -0.0224
16643TIP3    H171420   2.976   0.071  17.000 -1.4267  1.6941 -0.7421
16643TIP3    H271421   2.863   0.078  17.101  0.4703 -1.6609  1.7505
16644TIP3   OH271422   3.643   4.277   2.768  1.1902  0.8728  0.1139
16644TIP3    H171423   3.716   4.221   2.744  0.5730 -0.3354  1.0130
16644TIP3    H271424   3.679   4.338   2.832  1.3557  0.1087  0.7601
16645TIP3   OH271425   4.855   1.072  12.918 -0.1401 -0.0590  0.0252
16645TIP3    H171426   4.884   0.997  12.867  1.3080  1.1067 -0.9086
16645TIP3    H271427   4.825   1.035  13.001  0.3443 -1.6815 -0.5136
16646TIP3   OH271428   2.229   2.462   1.820 -0.3255  0.8862  0.4697
16646TIP3    H171429   2.215   2.426   1.908 -1.2909 -2.0937 -0.8103
16646TIP3    H271430   2.146   2.504   1.798 -0.4514  0.6813  0.5542
16647TIP3   OH271431   6.165   6.478   0.718  0.1461  0.0528  0.4822
16647TIP3    H171432   6.214   6.549   0.759 -0.5536  1.2547 -0.7395
16647TIP3    H271433   6.086   6.520   0.683 -0.8753 -1.5394  0.8353
16648TIP3   OH271434   0.272   0.114  13.051 -0.3648 -0.3576 -0.4739
16648TIP3    H171435   0.223   0.180  13.099  0.5452  0.3312 -0.4695
16648TIP3    H271436   0.361   0.121  13.086 -0.0375 -0.8841 -1.1959
16649TIP3   OH271437   4.926   5.331  17.054  0.0540 -0.5376 -0.9751
16649TIP3    H171438   4.857   5.296  16.998  0.6816 -1.4348 -1.1959
16649TIP3    H271439   4.957   5.409  17.007 -0.3823 -0.4818 -1.1744
16650TIP3   OH271440   0.981   5.555  16.310 -0.7603 -0.3152  0.3772
16650TIP3    H171441   0.963   5.465  16.336 -0.4974 -0.2949  0.6337
16650TIP3    H271442   0.996   5.550  16.215 -1.5624 -0.4109  0.2506
16651TIP3   OH271443   3.811   5.303  15.773 -0.0632 -0.2945 -0.4012
16651TIP3    H171444   3.853   5.240  15.832 -0.6129 -1.1581 -0.9211
16651TIP3    H271445   3.717   5.295  15.791  0.0088  2.3479  1.4685
16652TIP3   OH271446   4.963   6.213  13.818  0.4914  0.2699 -0.0057
16652TIP3    H171447   4.979   6.131  13.864  2.1266  1.2036  1.1576
16652TIP3    H271448   4.882   6.247  13.857 -0.0475 -0.6498 -0.3069
16653TIP3   OH271449   3.775   4.369   3.452  0.4401  0.4887  0.4761
16653TIP3    H171450   3.750   4.278   3.467 -0.5548  0.8387  1.0469
16653TIP3    H271451   3.781   4.407   3.539  0.6267  1.0238  0.2321
16654TIP3   OH271452   1.724   3.647  15.513 -0.0412 -0.5424 -0.4126
16654TIP3    H171453   1.757   3.734  15.490 -0.6070 -0.0678  0.5582
16654TIP3    H271454   1.665   3.662  15.587 -0.0641 -1.7633 -0.1709
16655TIP3   OH271455   4.824   1.178   3.652  0.2065  0.1831 -0.0423
16655TIP3    H171456   4.856   1.229   3.578  1.3185 -1.9903 -1.1155
16655TIP3    H271457   4.728   1.178   3.642  0.3134  0.5078 -1.0693
16656TIP3   OH271458   6.816   3.733   2.567 -0.5733 -0.0882  0.4836
16656TIP3    H171459   6.724   3.758   2.565 -0.5873 -0.1833 -1.4603
16656TIP3    H271460   6.863   3.814   2.588 -0.8097  1.0515 -3.0713
16657TIP3   OH271461   5.112   2.684  16.998 -0.0403  0.0898  0.1950
16657TIP3    H171462   5.031   2.651  17.037  0.0965 -0.6019 -0.0950
16657TIP3    H271463   5.177   2.679  17.069  0.1289 -0.8564 -0.0151
16658TIP3   OH271464   2.391   6.411  15.797 -0.3667 -0.2582  0.5633
16658TIP3    H171465   2.314   6.468  15.808 -0.5193 -0.3141 -0.1967
16658TIP3    H271466   2.420   6.393  15.887 -2.0962 -1.3940  0.9318
16659TIP3   OH271467   1.884   0.672  15.377  0.3379  0.0627  0.4817
16659TIP3    H171468   1.922   0.593  15.337 -2.2723 -1.2006  0.3842
16659TIP3    H271469   1.832   0.638  15.450 -3.0811  1.3871 -1.2441
16660TIP3   OH271470   3.220   1.161  10.812 -0.1392 -0.0649  0.4495
16660TIP3    H171471   3.245   1.254  10.808  3.4506 -1.0111 -1.2311
16660TIP3    H271472   3.178   1.143  10.728  1.8118 -0.6180 -0.4313
16661TIP3   OH271473   6.475   6.642   6.222  0.1225  0.7373  0.3046
16661TIP3    H171474   6.477   6.737   6.219 -1.8759  0.7724 -1.1640
16661TIP3    H271475   6.417   6.620   6.295 -2.8529  0.7483 -1.9714
16662TIP3   OH271476   2.541   6.071   0.985  0.1880  0.3224 -0.3160
16662TIP3    H171477   2.614   6.023   0.945 -0.8693 -0.9823 -0.7139
16662TIP3    H271478   2.575   6.160   0.996  2.2393 -0.5270  0.5695
16663TIP3   OH271479   6.579   4.134   3.896  0.4366 -0.1417 -0.1146
16663TIP3    H171480   6.519   4.159   3.967  2.0594  0.5908  1.0272
16663TIP3    H271481   6.562   4.041   3.882 -0.6979 -0.0324  0.4533
16664TIP3   OH271482   2.402   3.230  14.426  0.3112  0.0567  0.2956
16664TIP3    H171483   2.419   3.211  14.334 -2.5012  0.8249 -0.4215
16664TIP3    H271484   2.466   3.296  14.450  0.5218  0.4571 -1.3548
16665TIP3   OH271485   3.518   4.969  11.642 -0.0458  0.2644 -0.0308
16665TIP3    H171486   3.507   4.961  11.547  2.5646  0.4324 -0.4106
16665TIP3    H271487   3.504   4.881  11.676  1.3832 -0.3078 -0.8849
16666TIP3   OH271488   4.760   0.503  14.100 -0.8790 -0.3561  0.1567
16666TIP3    H171489   4.833   0.563  14.110 -1.1935  0.1045 -0.2498
16666TIP3    H271490   4.757   0.454  14.182 -1.0605  0.6828  0.7809
16667TIP3   OH271491   0.582   6.625  14.892 -0.6350  0.7273 -0.2579
16667TIP3    H171492   0.554   6.709  14.856 -1.2586  0.8560  0.5295
16667TIP3    H271493   0.548   6.623  14.981 -0.6196 -0.3579 -0.2582
16668TIP3   OH271494   3.398   1.306   3.531  0.5560 -0.1515  0.9615
16668TIP3    H171495   3.456   1.369   3.574 -0.2650  1.7860 -0.7227
16668TIP3    H271496   3.376   1.346   3.447 -0.4041 -2.4587  0.0631
16669TIP3   OH271497   2.891   4.954  13.669 -0.1962 -0.1224  0.3950
16669TIP3    H171498   2.904   4.939  13.762  1.0205 -0.8092  0.1308
16669TIP3    H271499   2.882   4.867  13.631  0.0621  0.1113 -0.2238
16670TIP3   OH271500   4.774   1.310   1.146 -0.2845  0.1333  0.4896
16670TIP3    H171501   4.786   1.306   1.241 -1.5770 -0.2726  0.6371
16670TIP3    H271502   4.857   1.345   1.113  1.1998 -2.3503  1.5066
16671TIP3   OH271503   0.552   4.363   4.320 -0.0586  0.0802  0.7466
16671TIP3    H171504   0.494   4.304   4.272  0.9119 -0.9080  0.7813
16671TIP3    H271505   0.493   4.431   4.354 -1.1080 -0.5671  0.2694
16672TIP3   OH271506   0.874   3.860  17.114 -0.5961 -0.0767  0.6939
16672TIP3    H171507   0.936   3.826  17.050 -0.3625  0.2665  0.7332
16672TIP3    H271508   0.817   3.786  17.134 -1.9701  0.3597 -1.4446
16673TIP3   OH271509   3.344   0.129  13.686  0.1705 -0.0696  0.4930
16673TIP3    H171510   3.346   0.169  13.600 -0.3227 -0.2413  0.4023
16673TIP3    H271511   3.362   0.036  13.670 -1.6535 -0.4269  0.3786
16674TIP3   OH271512   1.209   4.013  16.915 -0.0691 -0.0218  0.0114
16674TIP3    H171513   1.300   4.014  16.886  0.3469  2.3941  1.2530
16674TIP3    H271514   1.214   4.027  17.010 -1.7392  0.2110  0.0906
16675TIP3   OH271515   0.916   3.343  10.692 -0.4737  0.1616  0.1356
16675TIP3    H171516   0.820   3.346  10.691 -0.4824 -0.3679 -1.5423
16675TIP3    H271517   0.943   3.431  10.669 -0.5119  1.1888  3.7233
16676TIP3   OH271518   5.522   2.495  13.222 -0.1210  0.2509  0.1110
16676TIP3    H171519   5.426   2.494  13.217 -0.0997 -1.2679 -0.4050
16676TIP3    H271520   5.548   2.406  13.196  1.2505 -0.5460  3.9782
16677TIP3   OH271521   1.489   2.820   6.253  0.5022  0.4690  0.1086
16677TIP3    H171522   1.528   2.877   6.186  0.0688 -0.6135 -1.0960
16677TIP3    H271523   1.507   2.731   6.221 -2.5834 -0.0613 -0.2518
16678TIP3   OH271524   5.006   3.353  12.070 -0.5770 -0.0689  0.2349
16678TIP3    H171525   5.040   3.279  12.021 -0.4138  0.5228 -0.5676
16678TIP3    H271526   4.944   3.395  12.010 -0.9307  0.2302  0.8075
16679TIP3   OH271527   5.703   3.907  16.380  0.0501 -0.3451 -0.0442
16679TIP3    H171528   5.649   3.985  16.395 -0.2708 -0.4162 -0.7701
16679TIP3    H271529   5.687   3.851  16.456 -1.1506 -0.5006 -0.4048
16680TIP3   OH271530   1.893   5.745  16.911 -0.3654  0.6206  0.3940
16680TIP3    H171531   1.811   5.786  16.939 -0.9344  0.5336 -1.0833
16680TIP3    H271532   1.876   5.718  16.820  1.0758 -0.0016  0.2996
16681TIP3   OH271533   3.393   5.613  13.979 -0.2650  0.0672  0.9370
16681TIP3    H171534   3.300   5.599  13.995 -0.0037 -2.4213  0.5390
16681TIP3    H271535   3.421   5.534  13.933  2.4216 -0.0053  2.5999
16682TIP3   OH271536   1.345   5.885  16.460 -0.7005 -0.2154  0.1860
16682TIP3    H171537   1.321   5.973  16.433 -0.2515  0.0174  0.5533
16682TIP3    H271538   1.394   5.850  16.386 -0.6359 -0.0584  0.1554
16683TIP3   OH271539   2.144   2.777   0.912 -0.2838  0.3641  0.2860
16683TIP3    H171540   2.208   2.705   0.914  0.3974  0.9740  0.5004
16683TIP3    H271541   2.105   2.771   0.825 -0.5964 -0.5860  0.4812
16684TIP3   OH271542   6.354   4.032  16.730  0.7468 -0.1010 -0.3707
16684TIP3    H171543   6.412   4.040  16.806 -0.7082 -0.4565  0.8071
16684TIP3    H271544   6.266   4.027  16.768 -0.0676  0.5631 -2.1352
16685TIP3   OH271545   2.466   5.858  12.905  0.2588 -0.2107 -0.3619
16685TIP3    H171546   2.556   5.882  12.884  0.6995 -2.3035 -0.9981
16685TIP3    H271547   2.438   5.924  12.969  2.4280  0.1476  0.2644
16686TIP3   OH271548   1.672   1.561  11.229 -0.1056  0.5463  0.0028
16686TIP3    H171549   1.640   1.641  11.271 -1.1314 -0.1909  0.6685
16686TIP3    H271550   1.695   1.504  11.301  0.3060  0.1202 -0.4664
16687TIP3   OH271551   2.006   1.598  16.712  0.2877  0.0307 -0.0059
16687TIP3    H171552   2.009   1.654  16.635 -0.3573 -0.8676 -0.6936
16687TIP3    H271553   1.919   1.559  16.711  0.9627 -1.5586  0.0385
16688TIP3   OH271554   6.595   3.320   4.161  0.0497 -0.1677  0.2450
16688TIP3    H171555   6.640   3.363   4.088  2.6933 -1.4932  1.0132
16688TIP3    H271556   6.523   3.378   4.182  0.3713  1.1994 -2.1782
16689TIP3   OH271557   6.243   5.627   6.393 -0.0794 -0.1053 -0.1931
16689TIP3    H171558   6.155   5.600   6.367  0.3841 -2.8551  0.8843
16689TIP3    H271559   6.232   5.658   6.483 -0.0195 -0.1995 -0.1518
16690TIP3   OH271560   0.443   5.485   4.010 -0.0211  0.0169 -0.3684
16690TIP3    H171561   0.413   5.575   4.025 -0.9624 -0.1524 -1.1675
16690TIP3    H271562   0.391   5.432   4.070 -0.3638 -0.1280 -0.7894
16691TIP3   OH271563   6.097   1.624  16.260  0.5108 -0.0669 -0.3967
16691TIP3    H171564   6.161   1.600  16.326  1.0350 -0.5761 -1.0772
16691TIP3    H271565   6.069   1.712  16.284 -0.2275 -0.7051  1.2009
16692TIP3   OH271566   1.146   4.875  13.940 -0.4420  0.3283  0.8530
16692TIP3    H171567   1.212   4.928  13.986  0.7868 -2.4355  2.4401
16692TIP3    H271568   1.064   4.892  13.988 -0.1862  1.2320  0.9760
16693TIP3   OH271569   0.208   2.277  13.071 -0.0149 -0.0948 -0.2098
16693TIP3    H171570   0.217   2.262  12.977  1.2464  0.4420 -0.1768
16693TIP3    H271571   0.229   2.193  13.111  2.7046  0.5335 -0.2506
16694TIP3   OH271572   2.661   1.137   0.162 -0.1107  0.1479  0.1844
16694TIP3    H171573   2.576   1.104   0.190  0.2445 -0.2667  0.7812
16694TIP3    H271574   2.700   1.065   0.113 -0.5042  0.6805 -0.9281
16695TIP3   OH271575   4.819   0.963  13.879  0.3315  0.7863 -0.3166
16695TIP3    H171576   4.769   0.924  13.951  0.3315  0.9829 -0.2105
16695TIP3    H271577   4.779   0.927  13.800  0.7777  0.0326 -0.2044
16696TIP3   OH271578   2.335   2.375   0.155 -0.2145  0.3113  0.3098
16696TIP3    H171579   2.428   2.397   0.158 -0.2032  0.4682 -0.9417
16696TIP3    H271580   2.324   2.327   0.072 -1.2927  0.5195  0.3253
16697TIP3   OH271581   4.897   0.461  14.331  0.4231 -0.1461 -0.2801
16697TIP3    H171582   4.929   0.394  14.392 -0.1781  0.3932  0.6324
16697TIP3    H271583   4.971   0.476  14.272  1.0670 -0.5704  0.4054
16698TIP3   OH271584   2.658   0.775   1.874 -0.1385 -0.2949  0.8343
16698TIP3    H171585   2.704   0.716   1.933 -0.7146  1.1089  2.7480
16698TIP3    H271586   2.720   0.847   1.859  0.8684 -1.6976 -2.1185
16699TIP3   OH271587   2.769   1.402  14.544 -0.3286 -0.7230 -0.3731
16699TIP3    H171588   2.702   1.390  14.612 -2.1909  2.1084 -1.6363
16699TIP3    H271589   2.740   1.346  14.472  0.8947 -2.6286  0.5586
16700TIP3   OH271590   1.836   3.108   2.315  1.1374  0.6217 -0.1057
16700TIP3    H171591   1.802   3.109   2.226  0.7870  0.5917  0.0222
16700TIP3    H271592   1.786   3.177   2.360 -0.0260 -0.6074  0.5374
16701TIP3   OH271593   5.447   3.961  12.842  0.1208  0.1440 -0.7766
16701TIP3    H171594   5.472   3.959  12.934  2.1623  1.7757 -1.2634
16701TIP3    H271595   5.491   3.886  12.802 -0.6525 -0.4812 -0.4789
16702TIP3   OH271596   4.935   2.144   4.611 -0.3002 -0.4089 -0.2160
16702TIP3    H171597   4.843   2.164   4.593 -0.5486 -0.2671  1.1661
16702TIP3    H271598   4.955   2.071   4.552 -0.9740  0.2761 -1.3140
16703TIP3   OH271599   0.648   0.439  15.195  0.2967 -0.4266  0.0236
16703TIP3    H171600   0.619   0.396  15.115  4.5272 -2.8568 -0.3159
16703TIP3    H271601   0.590   0.404  15.263  2.8737 -6.0662 -0.4125
16704TIP3   OH271602   6.669   2.880   3.650 -0.5056 -0.0989  0.1802
16704TIP3    H171603   6.751   2.919   3.680  0.6697 -1.8663 -0.7010
16704TIP3    H271604   6.611   2.955   3.636  0.0524  1.0057  3.3979
16705TIP3   OH271605   1.848   0.307   1.072  0.0974 -0.5884 -0.7886
16705TIP3    H171606   1.768   0.347   1.038 -0.8114 -2.7136 -1.1666
16705TIP3    H271607   1.822   0.265   1.154  1.0783 -0.3404 -0.3316
16706TIP3   OH271608   4.711   0.446   1.719 -0.4566 -0.4298  0.6557
16706TIP3    H171609   4.727   0.352   1.711 -0.8658 -0.4332 -0.2240
16706TIP3    H271610   4.780   0.486   1.666  0.4420 -0.1763  1.9983
16707TIP3   OH271611   2.059   1.813  16.872 -0.8965 -0.5274  0.0527
16707TIP3    H171612   2.040   1.794  16.963  0.8694 -1.4249  0.2677
16707TIP3    H271613   2.044   1.731  16.826  0.1099 -0.6167 -0.1372
16708TIP3   OH271614   6.483   3.128   1.079 -0.3812  0.1801  0.4461
16708TIP3    H171615   6.494   3.151   1.172  0.6194  0.4009  0.2811
16708TIP3    H271616   6.459   3.036   1.080 -1.3546  0.4336  0.9739
16709TIP3   OH271617   2.739   3.380  12.317  0.1978  0.2296  0.1357
16709TIP3    H171618   2.687   3.443  12.367  0.4243  0.5390 -0.0222
16709TIP3    H271619   2.729   3.407  12.226  0.1188 -0.0938  0.0459
16710TIP3   OH271620   5.584   6.399  16.466 -0.6398 -0.4715 -0.0564
16710TIP3    H171621   5.515   6.362  16.412  1.5356 -0.8418 -2.6865
16710TIP3    H271622   5.645   6.326  16.480 -1.7692 -0.7544  4.0719
16711TIP3   OH271623   1.943   0.480  16.135  0.3407  0.1501  0.2288
16711TIP3    H171624   1.966   0.550  16.074  0.4000  1.2357  1.4712
16711TIP3    H271625   1.855   0.503  16.166 -1.4121 -2.5461 -2.4607
16712TIP3   OH271626   3.446   6.260  14.027 -0.2151  0.0907  0.6737
16712TIP3    H171627   3.370   6.318  14.031 -0.2136  0.0438  1.4860
16712TIP3    H271628   3.509   6.299  14.089  1.0060  0.9522 -1.0448
16713TIP3   OH271629   2.305   6.140  12.139  0.3053 -0.3348  0.9678
16713TIP3    H171630   2.353   6.215  12.103  0.0177  0.4269  2.1507
16713TIP3    H271631   2.317   6.071  12.074  2.0807  0.1827  0.7107
16714TIP3   OH271632   0.509   1.771  15.119  0.0593 -0.5231 -0.1950
16714TIP3    H171633   0.508   1.841  15.054  1.1859  0.8449  1.2141
16714TIP3    H271634   0.569   1.706  15.083  0.9904  0.4157 -0.3686
16715TIP3   OH271635   0.326   3.685   0.005  0.3492 -0.1108  0.6590
16715TIP3    H171636   0.385   3.645   0.069  3.2298  0.0675 -1.7405
16715TIP3    H271637   0.276   3.611  -0.031 -0.5098 -0.3427  2.3049
16716TIP3   OH271638   2.017   1.593   4.526 -0.3825  0.1355  0.0147
16716TIP3    H171639   2.102   1.553   4.507 -1.1507 -1.5217 -0.0049
16716TIP3    H271640   1.953   1.531   4.491 -1.6179  0.9909  0.7255
16717TIP3   OH271641   6.128   2.238   4.776  0.3730 -0.2874 -0.3319
16717TIP3    H171642   6.154   2.326   4.748  0.8304 -0.1138  0.6053
16717TIP3    H271643   6.033   2.243   4.788  0.1332 -0.4367 -2.0802
16718TIP3   OH271644   2.666   5.999  13.422 -0.3150 -0.0828 -0.4590
16718TIP3    H171645   2.681   6.082  13.467 -3.5210  0.5126 -0.3839
16718TIP3    H271646   2.632   5.941  13.490 -0.0267 -0.8282 -0.9456
16719TIP3   OH271647   1.259   3.466  13.218  0.0168 -0.3969 -0.4299
16719TIP3    H171648   1.174   3.423  13.228  0.1907 -0.5677  0.4138
16719TIP3    H271649   1.238   3.556  13.194 -0.4219 -0.2688  0.4178
16720TIP3   OH271650   0.216   0.620   3.677 -0.0577 -0.3249  0.3255
16720TIP3    H171651   0.126   0.647   3.697 -0.1965 -0.6750  0.1658
16720TIP3    H271652   0.253   0.696   3.631  0.5217  0.8195  2.5957
16721TIP3   OH271653   2.421   6.458   5.873 -0.3445 -0.0216  0.8801
16721TIP3    H171654   2.462   6.539   5.842 -0.3112  0.1637  1.4180
16721TIP3    H271655   2.478   6.428   5.944 -0.7938 -0.0963  1.2112
16722TIP3   OH271656   3.006   0.125   4.349  0.0027 -0.1895  0.1579
16722TIP3    H171657   3.008   0.160   4.438 -1.7777 -0.8946  0.5031
16722TIP3    H271658   2.930   0.066   4.348 -0.2339  0.0990 -1.9393
16723TIP3   OH271659   1.361   4.868   4.127 -0.1635  0.0055  0.5166
16723TIP3    H171660   1.453   4.844   4.119 -0.3211 -0.5387  0.3273
16723TIP3    H271661   1.319   4.792   4.168 -0.2083  0.9616  2.3179
16724TIP3   OH271662   4.561   6.174   4.415  0.2295  0.6250 -0.1843
16724TIP3    H171663   4.483   6.160   4.468  1.6669  0.0642  1.8891
16724TIP3    H271664   4.566   6.269   4.404 -0.4701  0.6971  0.0884
16725TIP3   OH271665   4.380   3.033  12.383 -0.2314  0.1002 -0.6293
16725TIP3    H171666   4.336   3.032  12.298 -2.7035  2.6660  0.5522
16725TIP3    H271667   4.408   3.123  12.395 -0.6626 -0.0366  1.6495
16726TIP3   OH271668   0.674   4.102   2.804 -0.0321 -0.1298  0.1178
16726TIP3    H171669   0.666   4.046   2.727 -2.0022 -2.0398  1.6866
16726TIP3    H271670   0.734   4.055   2.862  0.7013  0.8589  0.1782
16727TIP3   OH271671   3.693   0.942   0.276  0.1476  0.7743  0.1262
16727TIP3    H171672   3.783   0.960   0.249  0.1450  1.1598  0.3701
16727TIP3    H271673   3.682   0.848   0.263 -0.1087  1.0702 -1.9607
16728TIP3   OH271674   0.835   2.058   1.441 -0.0261 -0.4530 -0.9888
16728TIP3    H171675   0.757   2.111   1.428 -0.0042  0.1386  1.0176
16728TIP3    H271676   0.809   1.970   1.415 -2.1919 -0.7686  1.9146
16729TIP3   OH271677   6.097   3.540  13.017  0.6707  0.4117  0.1255
16729TIP3    H171678   6.071   3.593  13.093  2.0210  0.0739  0.8277
16729TIP3    H271679   6.181   3.503  13.041  0.0778 -1.4742 -0.6665
16730TIP3   OH271680   1.526   0.296  15.140 -0.9547 -0.4607  0.2356
16730TIP3    H171681   1.454   0.359  15.137 -0.0804  0.4720 -1.6341
16730TIP3    H271682   1.570   0.306  15.056  1.6160 -0.7593  1.5194
16731TIP3   OH271683   0.528   6.634  15.687  0.1524  0.6480  0.1935
16731TIP3    H171684   0.592   6.562  15.680  1.2900  1.5492  1.1156
16731TIP3    H271685   0.454   6.605  15.633  1.2300 -0.5283 -0.6998
16732TIP3   OH271686   6.478   4.719  11.542 -0.0961  0.2997  0.1369
16732TIP3    H171687   6.435   4.727  11.456 -0.3784  1.4653  0.3779
16732TIP3    H271688   6.571   4.708  11.521 -0.4340 -1.7448 -0.3756
16733TIP3   OH271689   3.001   4.861  16.588 -0.3748 -0.4381  0.7440
16733TIP3    H171690   3.017   4.942  16.538 -0.1782 -0.7681  0.2698
16733TIP3    H271691   2.996   4.891  16.679  1.9562 -0.1575  0.8187
16734TIP3   OH271692   4.542   3.257  15.439  0.4152  0.4013  0.4904
16734TIP3    H171693   4.597   3.178  15.440  0.8829  0.6327 -2.0191
16734TIP3    H271694   4.582   3.313  15.373 -1.0358  1.9188  0.8644
16735TIP3   OH271695   3.403   1.067   1.331 -0.2995 -0.0258  0.4763
16735TIP3    H171696   3.467   0.998   1.353  0.5876  1.2368  1.9325
16735TIP3    H271697   3.318   1.022   1.335  0.3567 -1.3479  0.0989
16736TIP3   OH271698   6.251   4.359   4.767  0.0508 -0.0478 -0.0564
16736TIP3    H171699   6.172   4.360   4.712  0.7539 -1.8184 -1.1142
16736TIP3    H271700   6.219   4.333   4.854 -0.7955  1.0628 -0.0215
16737TIP3   OH271701   3.837   1.308   0.277 -1.0934  0.1407 -0.6895
16737TIP3    H171702   3.928   1.318   0.247 -1.0465  1.5296 -0.1556
16737TIP3    H271703   3.845   1.276   0.367 -1.1860 -1.7805 -1.3510
16738TIP3   OH271704   1.410   1.548  16.070  0.0129  0.1575 -0.0516
16738TIP3    H171705   1.415   1.633  16.112 -0.8837  0.7724 -1.1420
16738TIP3    H271706   1.317   1.538  16.047  0.0204 -1.3069  0.4677
16739TIP3   OH271707   3.902   6.440   4.519  0.4217 -0.2604  0.0774
16739TIP3    H171708   3.917   6.415   4.610  0.7262 -0.3701 -0.0043
16739TIP3    H271709   3.808   6.428   4.507  0.1891  0.8077  0.7008
16740TIP3   OH271710   5.170   5.558   4.174 -0.3210 -0.0430 -0.7345
16740TIP3    H171711   5.166   5.616   4.099  0.0040 -0.1665 -0.8454
16740TIP3    H271712   5.232   5.598   4.234 -0.4225 -0.0518 -0.6209
16741TIP3   OH271713   4.676   0.932   3.353 -0.2213  0.2769  0.2448
16741TIP3    H171714   4.672   0.912   3.447 -1.2588  2.2598  0.6565
16741TIP3    H271715   4.598   0.889   3.316 -0.0930 -0.0668  0.3684
16742TIP3   OH271716   5.712   6.331  17.007  0.2667 -0.3105  0.2653
16742TIP3    H171717   5.785   6.385  16.977  0.5301 -1.0825 -0.5089
16742TIP3    H271718   5.667   6.385  17.072  0.7311  0.6989 -0.2374
16743TIP3   OH271719   1.205   1.622  12.888 -0.3214  0.2147 -0.4208
16743TIP3    H171720   1.197   1.529  12.909 -3.1631  0.2451 -1.1680
16743TIP3    H271721   1.187   1.667  12.970  1.7319  0.1092  0.1007
16744TIP3   OH271722   2.225   4.045   5.260 -0.0345 -0.1114 -0.3505
16744TIP3    H171723   2.283   4.046   5.183 -0.4726  1.1647 -0.6733
16744TIP3    H271724   2.270   3.989   5.322  0.3374 -1.1563 -1.5349
16745TIP3   OH271725   2.747   4.271  14.057  0.1962 -0.0745 -0.0160
16745TIP3    H171726   2.785   4.332  13.994 -1.6041  1.4305  0.3136
16745TIP3    H271727   2.815   4.260  14.123  0.9731  0.6707 -0.6719
16746TIP3   OH271728   4.936   0.830  12.789  0.0125 -0.0027 -0.6809
16746TIP3    H171729   4.926   0.758  12.850 -0.2386 -0.6813 -1.5248
16746TIP3    H271730   4.881   0.808  12.714 -1.5629  1.9543 -0.1588
16747TIP3   OH271731   5.469   0.614   4.002  0.2846 -0.1975  0.7572
16747TIP3    H171732   5.439   0.574   4.084  0.9916  1.0526  1.6473
16747TIP3    H271733   5.406   0.683   3.985  1.3586  0.9914  1.4563
16748TIP3   OH271734   6.663   6.548   0.841  0.3170  0.2944 -0.2023
16748TIP3    H171735   6.671   6.494   0.920  0.8252  0.9829  0.2210
16748TIP3    H271736   6.747   6.591   0.832 -0.0728  0.9934 -0.5578
16749TIP3   OH271737   2.447   3.210   3.523  0.0217 -0.1322 -0.2717
16749TIP3    H171738   2.354   3.195   3.504  0.1431  0.6352 -1.5142
16749TIP3    H271739   2.487   3.123   3.516 -0.5454 -0.4258  0.0200
16750TIP3   OH271740   6.758   1.450   3.204 -0.7414  0.0796 -0.5745
16750TIP3    H171741   6.804   1.505   3.141  0.4562 -0.0529  0.1477
16750TIP3    H271742   6.716   1.382   3.151 -0.3855  0.4111 -1.2871
16751TIP3   OH271743   0.125   1.432   4.109  0.4009 -0.0881  0.4098
16751TIP3    H171744   0.211   1.394   4.093  0.4610  0.5850 -0.9807
16751TIP3    H271745   0.068   1.357   4.125  1.2488 -0.5350  1.3491
16752TIP3   OH271746   4.609   4.867   2.361 -0.0589 -0.2590 -0.5098
16752TIP3    H171747   4.674   4.803   2.331  1.1829  0.9554 -0.4629
16752TIP3    H271748   4.600   4.848   2.454 -0.7219 -1.2479 -0.7634
16753TIP3   OH271749   4.832   4.672   2.395 -0.9076 -0.3059  0.8148
16753TIP3    H171750   4.861   4.757   2.429 -1.4160  0.1397  0.1570
16753TIP3    H271751   4.894   4.609   2.431  2.0776  0.8277 -2.1648
16754TIP3   OH271752   5.750   5.370  14.507 -0.7104  0.1759  0.1820
16754TIP3    H171753   5.825   5.322  14.472 -0.7292  0.4187 -0.1950
16754TIP3    H271754   5.787   5.453  14.536 -0.7881  0.1878  0.2463
16755TIP3   OH271755   1.373   2.148   5.462  0.1704 -0.0111  0.5389
16755TIP3    H171756   1.399   2.084   5.396  0.9300  0.1638  0.6613
16755TIP3    H271757   1.317   2.210   5.416  0.8635  0.2223  0.0110
16756TIP3   OH271758   2.744   3.190  13.062  0.3947  0.1600  0.2549
16756TIP3    H171759   2.709   3.212  12.976  0.3029 -1.2786 -0.0949
16756TIP3    H271760   2.834   3.160  13.044  0.9349  1.3990  0.8499
16757TIP3   OH271761   2.823   5.325  13.126  0.3026  0.1628  0.2871
16757TIP3    H171762   2.765   5.401  13.135  0.1183 -0.0488  0.8676
16757TIP3    H271763   2.874   5.344  13.048 -1.3641 -0.1835 -0.9246
16758TIP3   OH271764   6.805   6.719   3.483  0.8072 -0.7865 -0.3705
16758TIP3    H171765   6.861   6.776   3.536  0.0517 -0.9362  0.6010
16758TIP3    H271766   6.732   6.774   3.456 -0.4971 -1.5547  1.4967
16759TIP3   OH271767   0.259   6.690   1.958  0.3018 -0.3254 -0.1062
16759TIP3    H171768   0.195   6.720   1.893  1.2346  0.2124 -0.7804
16759TIP3    H271769   0.298   6.770   1.993 -0.7738 -0.5570  1.7499
16760TIP3   OH271770   5.262   1.854   2.789  0.3008 -0.6860 -0.1443
16760TIP3    H171771   5.303   1.809   2.715 -0.9063 -2.1246  0.0448
16760TIP3    H271772   5.215   1.926   2.749  1.7736  0.1069 -0.5060
16761TIP3   OH271773   6.344   3.893   3.003 -0.3376  0.4078  0.5369
16761TIP3    H171774   6.408   3.833   2.964 -0.8913  1.2322 -1.7324
16761TIP3    H271775   6.306   3.939   2.928 -2.1821  1.3360  2.0033
16762TIP3   OH271776   6.692   1.557  16.868  0.1389  0.3781 -0.0689
16762TIP3    H171777   6.615   1.613  16.858 -0.1253  0.1423  0.6343
16762TIP3    H271778   6.699   1.510  16.784  0.0254  1.0260 -0.4425
16763TIP3   OH271779   6.126   2.258  14.745  0.1270 -0.1161 -0.2136
16763TIP3    H171780   6.037   2.225  14.729  0.2813 -0.4665 -0.3593
16763TIP3    H271781   6.121   2.351  14.725 -0.0820 -0.2358 -0.7313
16764TIP3   OH271782   5.557   3.868  17.249 -0.1022 -0.2246  0.3758
16764TIP3    H171783   5.528   3.922  17.174 -0.1670  1.1856  1.3866
16764TIP3    H271784   5.479   3.863  17.305  0.4196  0.1041  1.1335
16765TIP3   OH271785   5.313   1.762   3.310 -0.7727  0.0693 -0.2890
16765TIP3    H171786   5.273   1.737   3.227 -2.5723 -0.8070  0.8105
16765TIP3    H271787   5.301   1.856   3.315 -0.7008  0.1195 -0.9982
16766TIP3   OH271788   0.177   0.269  14.200 -0.5036 -0.1484  0.3757
16766TIP3    H171789   0.100   0.269  14.257 -0.9667  0.7722 -0.2239
16766TIP3    H271790   0.218   0.184  14.214 -1.2557 -0.3806  1.2083
16767TIP3   OH271791   2.777   2.689  13.091  0.0404  0.1275 -0.2427
16767TIP3    H171792   2.858   2.710  13.137  0.0121 -0.5587  0.1308
16767TIP3    H271793   2.796   2.609  13.042 -0.6000 -0.4034  0.3606
16768TIP3   OH271794   3.632   3.497   0.517 -0.2423  0.0785  0.6338
16768TIP3    H171795   3.551   3.512   0.565 -0.6182 -2.9144  0.9982
16768TIP3    H271796   3.692   3.461   0.582  0.2010 -1.1752 -0.4557
16769TIP3   OH271797   0.680   2.066  16.553 -0.7847 -0.7777 -0.7390
16769TIP3    H171798   0.763   2.039  16.514 -0.1218  0.0544  0.0787
16769TIP3    H271799   0.676   2.021  16.637 -1.2365 -0.9323 -0.8386
16770TIP3   OH271800   4.464   3.030  11.948  0.1547  0.1509 -0.9584
16770TIP3    H171801   4.495   3.074  12.027  2.1492 -0.3949 -1.4270
16770TIP3    H271802   4.486   3.089  11.877 -0.2825 -0.0487 -1.2644
16771TIP3   OH271803   1.212   3.723  13.162  0.7554 -0.2227 -0.2468
16771TIP3    H171804   1.137   3.753  13.112  0.0140 -0.7203  0.5554
16771TIP3    H271805   1.246   3.802  13.205  0.7483  0.0158 -0.6832
16772TIP3   OH271806   6.551   1.484   2.429  0.0321  0.4626  0.0247
16772TIP3    H171807   6.521   1.427   2.358 -1.7140  0.4010  0.7888
16772TIP3    H271808   6.499   1.564   2.419 -1.1338 -0.0201  1.9447
16773TIP3   OH271809   5.414   2.474  15.299 -0.1204 -0.0524  0.0179
16773TIP3    H171810   5.352   2.469  15.372  1.3011  0.5526  1.2729
16773TIP3    H271811   5.486   2.416  15.325  0.6983  0.6821 -0.6152
16774TIP3   OH271812   2.971   6.122  16.207 -0.0459 -0.0237  0.2167
16774TIP3    H171813   2.901   6.136  16.143  0.1632  0.9911  0.1945
16774TIP3    H271814   2.944   6.173  16.284 -0.3478 -1.3297  0.9831
16775TIP3   OH271815   2.316   5.110  14.157  0.3444  0.4386 -0.1411
16775TIP3    H171816   2.320   5.078  14.247  0.8150 -0.4085 -0.4610
16775TIP3    H271817   2.225   5.097  14.130 -0.0301  1.5949  0.5366
16776TIP3   OH271818   4.775   0.063  15.789  0.2306  0.4028  0.3046
16776TIP3    H171819   4.820   0.031  15.711  1.0594 -1.1945  1.4255
16776TIP3    H271820   4.840   0.117  15.834 -0.1919  1.1797  0.0025
16777TIP3   OH271821   4.819   0.115  11.385  0.1731 -0.2414 -0.2210
16777TIP3    H171822   4.875   0.192  11.371  2.5118 -2.1383 -1.7256
16777TIP3    H271823   4.815   0.106  11.481  0.7263  1.1266 -0.0514
16778TIP3   OH271824   2.514   0.948   4.012  0.1995 -0.3666 -0.6807
16778TIP3    H171825   2.424   0.950   4.047  0.4294  0.1339 -0.1088
16778TIP3    H271826   2.534   0.855   4.004  0.2893 -0.5083  0.9307
16779TIP3   OH271827   1.546   3.544  11.164  0.3410 -0.0245  0.1539
16779TIP3    H171828   1.467   3.524  11.212 -0.1852 -0.5559 -0.9102
16779TIP3    H271829   1.520   3.540  11.072  0.6837  3.5841 -0.1697
16780TIP3   OH271830   2.518   0.276  12.913  0.1485  0.7671 -0.1777
16780TIP3    H171831   2.586   0.326  12.959 -0.0431  1.1311 -0.2895
16780TIP3    H271832   2.552   0.265  12.824 -1.1845  3.4166 -1.0602
16781TIP3   OH271833   2.514   6.204   4.578 -0.0352 -0.1465 -0.1782
16781TIP3    H171834   2.464   6.124   4.594 -0.9799  0.2327 -1.1778
16781TIP3    H271835   2.595   6.192   4.627 -0.5442 -1.3412  0.3820
16782TIP3   OH271836   1.478   3.421   1.723  0.0039  0.5312  0.3388
16782TIP3    H171837   1.570   3.404   1.704 -0.3013  0.4502 -1.1160
16782TIP3    H271838   1.442   3.336   1.748 -0.3581 -0.0144 -2.0015
16783TIP3   OH271839   4.121   4.859  12.178 -0.6444 -0.7306  0.4463
16783TIP3    H171840   4.200   4.825  12.220 -0.1684 -1.3263 -0.8934
16783TIP3    H271841   4.151   4.934  12.127 -0.8934 -1.1291 -0.2928
16784TIP3   OH271842   4.942   5.821  12.197 -0.0937  0.4959  0.7619
16784TIP3    H171843   4.955   5.896  12.254  0.7381 -0.5429  1.9590
16784TIP3    H271844   5.015   5.762  12.217 -0.1519 -0.1750 -0.9008
16785TIP3   OH271845   2.252   0.005   0.853  0.5419  0.5837  0.1651
16785TIP3    H171846   2.293   0.069   0.912 -0.2909  1.7897 -0.5515
16785TIP3    H271847   2.184   0.054   0.808 -0.4286 -0.9291 -0.0612
16786TIP3   OH271848   5.123   0.473   0.777  0.4749 -0.1891 -0.4759
16786TIP3    H171849   5.079   0.451   0.860 -0.6884  0.0869 -1.0202
16786TIP3    H271850   5.125   0.568   0.775 -1.0834 -0.1652 -1.5882
16787TIP3   OH271851   1.426   4.301   4.959 -0.0078 -0.3609  0.4222
16787TIP3    H171852   1.457   4.391   4.968 -0.0380 -0.2054 -0.8929
16787TIP3    H271853   1.353   4.294   5.020 -0.4236  0.7178  0.0571
16788TIP3   OH271854   2.306   4.084  13.266 -0.1140  0.2519 -0.1710
16788TIP3    H171855   2.387   4.069  13.218 -0.7320 -2.0952 -0.5330
16788TIP3    H271856   2.288   4.000  13.310 -1.8601  1.0203  0.6375
16789TIP3   OH271857   5.566   1.374  12.669  0.2896  1.0180 -0.1163
16789TIP3    H171858   5.556   1.339  12.580  0.7710 -0.1281  0.2787
16789TIP3    H271859   5.566   1.469  12.657  0.3280  0.8711 -1.3384
16790TIP3   OH271860   4.791   2.961  11.686 -0.0414  0.2008  0.0409
16790TIP3    H171861   4.812   3.011  11.606  0.1364 -0.6336 -0.4415
16790TIP3    H271862   4.704   2.925  11.669 -0.5702  1.1182  0.7770
16791TIP3   OH271863   3.056   0.137  10.716  0.2868 -0.1753 -0.2529
16791TIP3    H171864   3.133   0.193  10.703  0.0025  0.8730  2.3447
16791TIP3    H271865   2.983   0.188  10.681  0.3469  0.1301  0.0632
16792TIP3   OH271866   1.810   6.593  11.606 -0.2340  0.3067  0.1044
16792TIP3    H171867   1.782   6.521  11.662  1.2215 -1.7654 -1.7185
16792TIP3    H271868   1.730   6.625  11.564 -0.8207 -0.5952  0.5384
16793TIP3   OH271869   6.662   4.139  13.586 -0.2134  0.1434 -0.2225
16793TIP3    H171870   6.600   4.130  13.659  0.0313 -0.5699 -0.0997
16793TIP3    H271871   6.685   4.232  13.586 -1.2169  0.4055 -0.2187
16794TIP3   OH271872   2.793   0.626  16.234 -0.3412 -0.5638  0.4477
16794TIP3    H171873   2.865   0.654  16.289  0.4621 -0.0519 -0.8302
16794TIP3    H271874   2.823   0.544  16.194  0.1675  0.3983 -1.2225
16795TIP3   OH271875   2.993   2.506   1.206  0.0509  0.2665 -0.3564
16795TIP3    H171876   3.016   2.465   1.289  1.4482 -1.8521 -1.7548
16795TIP3    H271877   2.918   2.456   1.174  0.3603  0.2186 -1.0149
16796TIP3   OH271878   2.597   6.034  15.232 -0.8058 -0.1964  0.5867
16796TIP3    H171879   2.532   6.104  15.237 -0.0895  0.5349 -0.2872
16796TIP3    H271880   2.678   6.074  15.261 -0.2726 -0.5147 -0.4369
16797TIP3   OH271881   4.759   6.605  11.821 -0.6574  0.4143  0.1566
16797TIP3    H171882   4.686   6.554  11.857 -0.1688 -0.7801 -0.5312
16797TIP3    H271883   4.811   6.629  11.897 -0.8175 -0.2274  0.4720
16798TIP3   OH271884   3.781   1.738  14.056  0.5240  0.5917  0.1324
16798TIP3    H171885   3.692   1.708  14.040  0.7985  1.1240 -2.6597
16798TIP3    H271886   3.780   1.769  14.146 -1.4979 -1.5357  0.9021
16799TIP3   OH271887   4.106   4.957  13.450 -0.2968 -0.2670  0.0998
16799TIP3    H171888   4.176   5.022  13.459 -0.9609  0.8050 -2.1259
16799TIP3    H271889   4.054   4.967  13.530  0.6672  0.6643  0.6259
16800TIP3   OH271890   1.015   1.039   1.905  0.4933  0.4584  0.6523
16800TIP3    H171891   0.949   1.100   1.873  1.3768  1.8328  1.4340
16800TIP3    H271892   0.966   0.958   1.920 -0.5874  0.8152 -0.8391
16801TIP3   OH271893   2.564   2.547   3.424  0.4113 -0.5220 -0.6041
16801TIP3    H171894   2.605   2.460   3.420  1.2508 -0.1185 -0.8144
16801TIP3    H271895   2.631   2.607   3.391 -0.4875  0.0998 -1.3376
16802TIP3   OH271896   3.611   6.387   5.548 -0.5172 -0.0598  0.3175
16802TIP3    H171897   3.535   6.444   5.540 -1.1197 -0.9373 -0.2451
16802TIP3    H271898   3.586   6.306   5.504  0.0426 -1.0449  1.7708
16803TIP3   OH271899   2.667   0.059   2.767 -0.3861  0.0443 -0.1950
16803TIP3    H171900   2.650   0.147   2.734 -0.8464  0.6499  1.5676
16803TIP3    H271901   2.637   0.061   2.858  1.3174 -1.3911  0.4384
16804TIP3   OH271902   1.692   0.212   4.614  0.7666  0.6668  0.1791
16804TIP3    H171903   1.733   0.298   4.614 -1.2930  1.6784  0.1029
16804TIP3    H271904   1.640   0.210   4.534  0.2792 -0.3780  0.5111
16805TIP3   OH271905   1.008   1.020   4.941  0.1275  0.0873  0.5684
16805TIP3    H171906   0.925   0.996   4.983  0.0289  0.8729  0.8232
16805TIP3    H271907   0.993   1.108   4.906  0.3463 -0.3880 -0.7584
16806TIP3   OH271908   3.523   0.379   3.314  0.0177 -1.1393  0.1909
16806TIP3    H171909   3.583   0.305   3.321  0.3547 -1.0676 -1.7836
16806TIP3    H271910   3.502   0.385   3.221 -0.8905  0.5421  0.4819
16807TIP3   OH271911   5.911   5.714   1.711 -0.1527 -0.1414 -0.4109
16807TIP3    H171912   5.938   5.777   1.644  0.6469 -1.0323 -0.9648
16807TIP3    H271913   5.857   5.651   1.663  0.9377 -1.1288 -0.3612
16808TIP3   OH271914   5.566   2.888  15.231 -0.2285 -0.1296 -0.6024
16808TIP3    H171915   5.580   2.898  15.325  0.0249 -0.5514 -0.5947
16808TIP3    H271916   5.611   2.964  15.192 -0.0762 -0.1190 -0.4056
16809TIP3   OH271917   2.298   6.344  15.538 -0.1468 -0.5674  0.1171
16809TIP3    H171918   2.342   6.345  15.623  0.5447 -0.0781 -0.2427
16809TIP3    H271919   2.216   6.298  15.555  0.6050 -1.7107  0.7337
16810TIP3   OH271920   2.050   1.136  15.061  0.1051  0.3932  0.6510
16810TIP3    H171921   2.034   1.222  15.022  1.4893  1.8460  3.1497
16810TIP3    H271922   2.017   1.144  15.150  2.2557 -0.9471  1.5990
16811TIP3   OH271923   5.655   5.337  14.083  0.1406  0.7396  0.3213
16811TIP3    H171924   5.561   5.340  14.066  0.1333  0.8959  0.3861
16811TIP3    H271925   5.666   5.387  14.164  0.2720  0.6742  0.3435
16812TIP3   OH271926   6.801   0.378  13.351 -0.1753 -0.1959 -0.0792
16812TIP3    H171927   6.835   0.403  13.265  0.0243 -1.1959 -0.2980
16812TIP3    H271928   6.879   0.365  13.404 -0.2896  0.0644  0.1523
16813TIP3   OH271929   1.202   1.726   4.391  0.2672 -0.1098 -0.7090
16813TIP3    H171930   1.112   1.757   4.399  0.6573  0.4529  1.9866
16813TIP3    H271931   1.195   1.631   4.393 -0.3295 -0.0980 -1.6443
16814TIP3   OH271932   1.233   5.877  14.025  0.1539  0.0956 -0.6334
16814TIP3    H171933   1.233   5.906  14.116  1.1096  0.0449 -0.6129
16814TIP3    H271934   1.174   5.938  13.980  0.0069  0.3735 -0.0621
16815TIP3   OH271935   1.091   6.575  16.207 -0.3638 -0.1371  0.3960
16815TIP3    H171936   1.097   6.630  16.130 -0.9169 -0.6108  0.0103
16815TIP3    H271937   1.143   6.497  16.185 -0.9745 -0.5133  0.2886
16816TIP3   OH271938   2.547   5.888   5.209 -0.0386 -0.0651 -0.3404
16816TIP3    H171939   2.480   5.883   5.277  0.8536 -0.0960  0.5398
16816TIP3    H271940   2.560   5.981   5.194  1.2020 -0.0198  0.9640
16817TIP3   OH271941   3.670   5.724  12.809  0.5349  0.5444 -0.0938
16817TIP3    H171942   3.638   5.661  12.745  1.4230  0.4624 -0.4664
16817TIP3    H271943   3.605   5.794  12.808  0.3395  0.3576 -0.8029
16818TIP3   OH271944   5.415   5.852   0.414 -0.0990  0.4881 -0.3811
16818TIP3    H171945   5.443   5.820   0.500 -0.0571 -1.8471 -1.2094
16818TIP3    H271946   5.486   5.909   0.386  0.1484  0.8326  0.8945
16819TIP3   OH271947   1.722   5.996  12.804 -0.4288  0.4261  0.0701
16819TIP3    H171948   1.781   5.970  12.734 -0.7150  2.2961 -0.8804
16819TIP3    H271949   1.778   6.040  12.868 -0.6408  1.2847 -0.3413
16820TIP3   OH271950   0.724   1.646  13.744  0.4041 -0.6530 -0.5457
16820TIP3    H171951   0.737   1.569  13.800 -1.5409 -0.2126  0.5551
16820TIP3    H271952   0.718   1.719  13.805  0.7007  0.1616 -1.4902
16821TIP3   OH271953   2.274   2.501   4.296 -0.7233  0.7915  0.1225
16821TIP3    H171954   2.330   2.499   4.373 -2.0414 -0.6742  1.0997
16821TIP3    H271955   2.320   2.556   4.233  1.0243  0.9052  1.4662
16822TIP3   OH271956   1.574   1.868   2.052  0.0194 -0.0290 -0.1938
16822TIP3    H171957   1.610   1.807   2.116 -0.6748  1.8277  2.0548
16822TIP3    H271958   1.498   1.906   2.096  0.0711  1.9777 -1.7774
16823TIP3   OH271959   5.248   5.040  16.212 -0.0999 -0.0984  0.4559
16823TIP3    H171960   5.243   5.114  16.152 -0.7961 -0.5303 -0.0308
16823TIP3    H271961   5.250   5.079  16.299  1.2176  0.5475  0.1498
16824TIP3   OH271962   2.817   3.163  11.259 -0.5784  0.3174 -0.4121
16824TIP3    H171963   2.875   3.129  11.191  0.5134 -2.8920  2.0030
16824TIP3    H271964   2.730   3.158  11.222  0.0214 -1.2171 -1.6483
16825TIP3   OH271965   4.881   3.469   4.814  0.6852 -0.1291 -0.3700
16825TIP3    H171966   4.828   3.543   4.845 -1.4940 -1.8731  0.2291
16825TIP3    H271967   4.820   3.418   4.760  2.6721 -0.5274 -2.2809
16826TIP3   OH271968   1.206   4.140   2.755  0.0479  0.0199  0.0030
16826TIP3    H171969   1.195   4.215   2.813  1.6625 -0.3263  0.7715
16826TIP3    H271970   1.271   4.085   2.798  0.6136 -0.6865 -1.6903
16827TIP3   OH271971   2.612   5.749   1.026 -0.6906  0.2139  0.1767
16827TIP3    H171972   2.695   5.794   1.013 -0.2807 -0.9491 -1.2745
16827TIP3    H271973   2.570   5.751   0.940 -1.1608 -1.2105  0.3642
16828TIP3   OH271974   1.415   3.896   5.599  0.0568 -0.5106  0.1848
16828TIP3    H171975   1.447   3.863   5.684 -0.5221  1.0448  1.0155
16828TIP3    H271976   1.322   3.912   5.613 -0.2606 -1.2260 -1.0625
16829TIP3   OH271977   2.290   1.990  17.079  0.5167 -0.0568 -0.2156
16829TIP3    H171978   2.331   1.929  17.018  2.3353  2.0507 -1.1531
16829TIP3    H271979   2.363   2.034  17.121 -0.7623 -0.0677  2.0532
16830TIP3   OH271980   1.590   5.737   1.572  0.5051 -0.3149 -0.3993
16830TIP3    H171981   1.585   5.832   1.585  0.4933 -0.1031 -1.7872
16830TIP3    H271982   1.684   5.720   1.566  0.5546 -0.5667  0.9631
16831TIP3   OH271983   3.266   0.400  17.124  0.2700  0.2766 -0.1189
16831TIP3    H171984   3.293   0.350  17.046 -1.2918 -0.9002  0.0675
16831TIP3    H271985   3.348   0.416  17.171  0.9507 -1.0215 -0.8229
16832TIP3   OH271986   4.811   0.421  12.550 -0.4373 -0.5046  0.0235
16832TIP3    H171987   4.826   0.515  12.537 -0.3112 -0.6706 -1.0032
16832TIP3    H271988   4.732   0.402  12.500 -1.1334 -0.7100  1.1884
16833TIP3   OH271989   4.812   0.319   5.297 -0.0564 -0.2816  0.0407
16833TIP3    H171990   4.878   0.291   5.234 -0.1759  0.0785 -0.2462
16833TIP3    H271991   4.818   0.415   5.297  0.7726 -0.3117  1.4593
16834TIP3   OH271992   6.695   2.237  11.815 -0.2666  0.0404 -0.1178
16834TIP3    H171993   6.639   2.170  11.855  0.0558 -0.3322 -0.2877
16834TIP3    H271994   6.647   2.319  11.827  0.6030  0.2101  2.6113
16835TIP3   OH271995   5.904   0.999  16.308  0.3135 -0.1997 -0.5514
16835TIP3    H171996   5.976   0.990  16.370  1.0142 -1.0342 -1.4749
16835TIP3    H271997   5.880   0.910  16.285 -0.4414  0.0896 -0.9243
16836TIP3   OH271998   6.529   2.000   0.094  0.3701  0.5825 -0.2141
16836TIP3    H171999   6.622   1.977   0.096  0.3216  0.3330 -0.7493
16836TIP3    H272000   6.525   2.079   0.039  0.1420 -0.0124 -1.0630
16837TIP3   OH272001   3.003   0.365  11.456  0.3731 -0.5890 -0.4171
16837TIP3    H172002   3.046   0.285  11.427  0.2687 -0.1447 -1.8042
16837TIP3    H272003   3.041   0.434  11.402 -1.2362 -0.0284 -0.8683
16838TIP3   OH272004   4.296   4.699   5.393  0.1769  0.1574 -0.4577
16838TIP3    H172005   4.270   4.642   5.321 -2.3889  1.9456 -1.0179
16838TIP3    H272006   4.327   4.779   5.350  0.5066  0.4970  0.3896
16839TIP3   OH272007   6.489   1.285  12.067 -0.0276 -0.8716  0.4959
16839TIP3    H172008   6.418   1.319  12.122  0.1431  1.7606 -0.8217
16839TIP3    H272009   6.548   1.242  12.128 -0.4271  0.9883  2.2674
16840TIP3   OH272010   5.575   4.164  12.061 -0.0030 -0.2745 -0.6412
16840TIP3    H172011   5.637   4.130  11.997  2.1303  3.1686 -0.4786
16840TIP3    H272012   5.536   4.241  12.019 -0.7125  0.3312  1.0745
16841TIP3   OH272013   6.096   0.390  16.633  0.3131 -0.2140 -0.0634
16841TIP3    H172014   6.035   0.370  16.562 -1.2660  0.9348  0.9259
16841TIP3    H272015   6.044   0.441  16.695  2.2159  0.5233  0.9620
16842TIP3   OH272016   5.076   5.237   0.136 -0.1271  0.0291  0.5727
16842TIP3    H172017   5.127   5.213   0.058  1.3750  1.8034  0.9778
16842TIP3    H272018   5.120   5.314   0.171 -0.8127 -0.7112  3.1856
16843TIP3   OH272019   1.612   2.779   4.280 -0.3350  0.3085 -0.2075
16843TIP3    H172020   1.678   2.849   4.283 -1.7282  1.6208  0.9367
16843TIP3    H272021   1.560   2.799   4.202 -1.4169  1.2276  0.7238
16844TIP3   OH272022   4.175   1.072  10.735  0.1913 -0.3418  0.4064
16844TIP3    H172023   4.260   1.066  10.692  0.7316  0.2549  1.3884
16844TIP3    H272024   4.154   1.165  10.736  0.6082 -0.2474  2.2369
16845TIP3   OH272025   5.811   2.253  14.951  0.2628 -0.5275  0.1164
16845TIP3    H172026   5.818   2.308  14.873  1.3544 -0.8920 -0.0579
16845TIP3    H272027   5.770   2.172  14.920  1.0698 -0.8352 -0.1855
16846TIP3   OH272028   4.067   3.779  13.653 -0.3468 -0.2869 -0.0773
16846TIP3    H172029   4.089   3.865  13.618 -0.4239  0.2393  1.1430
16846TIP3    H272030   3.973   3.769  13.635 -0.2461 -0.3047 -0.6017
16847TIP3   OH272031   2.983   4.045  17.168  0.4338  0.0965 -0.2175
16847TIP3    H172032   2.987   3.951  17.183  0.0557  0.1794  0.4320
16847TIP3    H272033   2.954   4.081  17.251 -0.2450  0.7072 -0.7149
16848TIP3   OH272034   1.851   0.064  17.222  0.2662  0.2214 -0.9058
16848TIP3    H172035   1.784   0.099  17.280  1.7406  1.6684 -0.0359
16848TIP3    H272036   1.802   0.027  17.148 -1.5080  0.6396  0.0308
16849TIP3   OH272037   5.344   4.978   3.933  0.6053 -0.0310 -0.0424
16849TIP3    H172038   5.418   5.011   3.882 -0.1135  1.8076  0.0650
16849TIP3    H272039   5.296   4.922   3.871  1.8736 -0.9424 -0.2129
16850TIP3   OH272040   3.969   4.278   6.267  0.5779  0.1396  0.1377
16850TIP3    H172041   3.996   4.353   6.322  0.6464 -0.7996  1.4205
16850TIP3    H272042   4.014   4.203   6.307 -1.4855 -0.9808  0.4161
16851TIP3   OH272043   6.050   2.913   5.643  0.6820  0.1764 -0.1697
16851TIP3    H172044   6.032   2.822   5.621 -0.3375  0.1183  0.8697
16851TIP3    H272045   6.131   2.909   5.695  0.0973 -0.2534  0.7292
16852TIP3   OH272046   0.635   5.470   3.589  0.2937  0.1397  0.2023
16852TIP3    H172047   0.718   5.448   3.633  0.2579 -0.0787  0.1584
16852TIP3    H272048   0.658   5.472   3.496  0.3630  0.5731  0.2284
16853TIP3   OH272049   6.439   1.985   0.569  0.4572 -0.1438  0.4584
16853TIP3    H172050   6.417   2.064   0.618  2.5916  1.2530 -0.7476
16853TIP3    H272051   6.482   1.928   0.633 -0.3425  0.0094  1.1363
16854TIP3   OH272052   1.256   2.906   5.089 -0.3364  0.3400  0.1839
16854TIP3    H172053   1.224   2.838   5.148 -1.7184  1.4975  0.7753
16854TIP3    H272054   1.192   2.909   5.018 -0.7716  1.6498  0.6231
16855TIP3   OH272055   0.848   6.149   5.321  0.0954  0.1829 -0.3882
16855TIP3    H172056   0.932   6.118   5.356  1.2943  3.4492 -0.1494
16855TIP3    H272057   0.858   6.143   5.226 -0.0909 -1.0824 -0.3386
16856TIP3   OH272058   0.523   6.613   4.886 -0.3469  0.4902 -0.1901
16856TIP3    H172059   0.578   6.684   4.918 -0.4409  1.1619 -1.5047
16856TIP3    H272060   0.510   6.556   4.963  0.8985  1.1313  0.5076
16857TIP3   OH272061   4.119   5.744  12.069 -0.1324  0.3379 -0.4029
16857TIP3    H172062   4.156   5.658  12.048  0.0585  0.4501 -0.5184
16857TIP3    H272063   4.087   5.778  11.985  0.2598  0.6072 -0.4406
16858TIP3   OH272064   6.746   1.676   5.607 -0.0926  0.4484 -0.5089
16858TIP3    H172065   6.737   1.588   5.571 -0.0369  0.4270 -0.4714
16858TIP3    H272066   6.800   1.723   5.543  0.2273  0.3344 -0.3246
16859TIP3   OH272067   6.613   2.817  14.586  0.1252  0.1429 -0.2557
16859TIP3    H172068   6.688   2.831  14.529  0.8391 -0.1380  0.5994
16859TIP3    H272069   6.602   2.900  14.633  0.0437  0.1177 -0.2307
16860TIP3   OH272070   5.783   1.987   4.388  0.0307 -0.2667 -0.5380
16860TIP3    H172071   5.753   1.903   4.424 -0.7983  0.3067  0.1163
16860TIP3    H272072   5.847   2.019   4.452  0.4002 -0.4272 -0.8234
16861TIP3   OH272073   1.836   2.877   2.463 -0.1143 -0.2501  0.2036
16861TIP3    H172074   1.747   2.885   2.497 -0.8092 -0.2900 -1.5707
16861TIP3    H272075   1.844   2.950   2.401  0.5109 -1.2316 -0.8869
16862TIP3   OH272076   6.435   0.238  16.861 -0.2815  0.3515 -0.6473
16862TIP3    H172077   6.497   0.200  16.924  0.7803  1.3798 -1.0411
16862TIP3    H272078   6.478   0.320  16.832 -1.1221  0.2992 -2.0817
16863TIP3   OH272079   2.737   1.460  17.124  0.0030  0.4229 -0.2289
16863TIP3    H172080   2.789   1.381  17.112 -1.1375 -0.3863  0.0662
16863TIP3    H272081   2.648   1.428  17.142 -0.0418  1.7203  2.0591
16864TIP3   OH272082   6.022   5.446   3.180 -0.3745  0.0518  0.4315
16864TIP3    H172083   6.066   5.494   3.110 -2.1948 -0.2994 -0.9818
16864TIP3    H272084   6.030   5.354   3.154  0.9683 -0.2711  1.8870
16865TIP3   OH272085   0.548   1.676  11.474  0.1243 -0.5653 -0.4389
16865TIP3    H172086   0.465   1.723  11.480  0.1622 -0.6993  1.9189
16865TIP3    H272087   0.523   1.583  11.474  0.2221 -0.5901 -0.6608
16866TIP3   OH272088   2.999   3.586  10.879  0.0896 -0.6385 -0.1827
16866TIP3    H172089   2.906   3.584  10.853 -0.0671  1.2030  0.1906
16866TIP3    H272090   2.997   3.598  10.973  0.7138  1.1322 -0.3827
16867TIP3   OH272091   0.167   6.477  16.092  0.3704 -0.4791 -0.5932
16867TIP3    H172092   0.082   6.521  16.104  0.3461 -0.3151 -1.3125
16867TIP3    H272093   0.218   6.503  16.168 -0.2948 -0.7276 -0.0585
16868TIP3   OH272094   6.363   6.279  14.915  0.4731 -0.2303 -0.0011
16868TIP3    H172095   6.270   6.300  14.922  0.2418 -1.1536 -0.1794
16868TIP3    H272096   6.387   6.246  15.002  0.5787 -0.2057 -0.0208
16869TIP3   OH272097   3.547   4.273  14.934  0.3907 -0.2044  0.3280
16869TIP3    H172098   3.495   4.225  14.870  0.4957  1.6536 -1.1881
16869TIP3    H272099   3.488   4.340  14.968  1.0539  0.3759  0.3625
16870TIP3   OH272100   4.426   3.945  11.398  0.7711 -0.0796  0.3166
16870TIP3    H172101   4.506   3.903  11.368  1.6735  1.6957  0.1881
16870TIP3    H272102   4.394   3.994  11.322  1.4947  2.0668  1.3485
16871TIP3   OH272103   5.131   5.164   1.784  0.3505 -0.4860 -0.6954
16871TIP3    H172104   5.203   5.205   1.832  0.6735 -0.3455 -1.3016
16871TIP3    H272105   5.169   5.086   1.744  0.1395 -0.4663 -0.9365
16872TIP3   OH272106   4.976   4.580  11.466 -0.0410  0.1127  0.4751
16872TIP3    H172107   4.935   4.664  11.485  2.6286  1.0621  2.4484
16872TIP3    H272108   4.971   4.532  11.549  1.6172 -0.2479  0.3908
16873TIP3   OH272109   6.415   6.446   1.998 -0.3750 -0.5530  0.1128
16873TIP3    H172110   6.395   6.437   1.905  0.3893  0.9529 -0.2218
16873TIP3    H272111   6.510   6.435   2.002 -0.4071 -0.5976  0.7092
16874TIP3   OH272112   2.152   3.003  15.448 -0.6345  0.2822  0.2320
16874TIP3    H172113   2.245   3.002  15.426 -0.6561  1.1116  0.1086
16874TIP3    H272114   2.110   2.956  15.375 -0.1353 -1.6186  1.1434
16875TIP3   OH272115   2.340   1.839  11.451  0.6809 -0.1030 -0.1182
16875TIP3    H172116   2.434   1.849  11.434  1.0876 -1.2359  1.3659
16875TIP3    H272117   2.336   1.802  11.540 -1.1555 -0.5090 -0.3622
16876TIP3   OH272118   2.972   0.001  12.478 -0.3725 -0.3679 -0.0578
16876TIP3    H172119   2.942   0.019  12.567 -0.5312  3.6203 -0.7938
16876TIP3    H272120   3.056   0.046  12.471 -0.5177 -0.3292 -1.9996
16877TIP3   OH272121   5.783   3.210   0.646 -0.3578 -0.1303 -0.1776
16877TIP3    H172122   5.850   3.239   0.708 -0.8278 -1.7223  1.0931
16877TIP3    H272123   5.763   3.120   0.671 -2.0868 -0.1009 -1.3262
16878TIP3   OH272124   5.485   1.339  13.191  0.3567  0.1333 -0.5223
16878TIP3    H172125   5.576   1.368  13.185  0.7198 -1.0052 -0.6156
16878TIP3    H272126   5.442   1.407  13.242  1.1826  0.8622 -0.7830
16879TIP3   OH272127   3.460   5.902  12.777 -0.1686  0.3267 -0.3426
16879TIP3    H172128   3.373   5.911  12.736  0.3433  1.4631 -1.2084
16879TIP3    H272129   3.485   5.992  12.798  0.5186 -0.0688  0.4989
16880TIP3   OH272130   1.343   5.256   3.686 -0.1973 -0.1678 -0.0214
16880TIP3    H172131   1.286   5.259   3.608 -0.7727 -0.3285  0.3860
16880TIP3    H272132   1.337   5.165   3.716  1.7673 -0.6638 -1.0549
16881TIP3   OH272133   5.906   4.697  13.499 -0.3410 -0.5004  0.1189
16881TIP3    H172134   5.861   4.767  13.451 -0.2346  0.6853  1.7137
16881TIP3    H272135   5.856   4.618  13.478 -1.1596  0.2447 -0.7832
16882TIP3   OH272136   0.655   2.027  14.133  0.2240  0.1821  0.2094
16882TIP3    H172137   0.628   1.936  14.147 -0.2627  0.3479  0.3396
16882TIP3    H272138   0.698   2.026  14.048 -0.0432 -0.1127  0.0771
16883TIP3   OH272139   1.658   2.921   4.594  0.0339  0.3340 -0.2800
16883TIP3    H172140   1.596   2.933   4.523 -0.3920 -0.0769  0.0190
16883TIP3    H272141   1.661   3.006   4.639 -0.8936  0.1326  0.1699
16884TIP3   OH272142   3.183   1.712  16.795  0.1931 -0.5763 -0.0032
16884TIP3    H172143   3.163   1.715  16.702  1.5159 -0.0362 -0.2914
16884TIP3    H272144   3.207   1.620  16.811  1.5282 -0.3427 -0.5610
16885TIP3   OH272145   1.767   4.444   1.530 -0.2884  0.4300 -1.0093
16885TIP3    H172146   1.763   4.385   1.455 -0.3031 -1.3200  0.3358
16885TIP3    H272147   1.850   4.423   1.572 -2.1894 -1.6510  1.8643
16886TIP3   OH272148   2.256   3.449   2.064 -0.1112  0.2018 -0.5665
16886TIP3    H172149   2.223   3.371   2.108  0.2779  0.6925  0.6074
16886TIP3    H272150   2.327   3.481   2.120 -0.0569  1.2157 -1.1895
16887TIP3   OH272151   3.065   1.792   5.940 -0.4403  0.4652 -0.2138
16887TIP3    H172152   3.018   1.816   6.020 -0.4337 -0.4331  0.0579
16887TIP3    H272153   3.034   1.855   5.874 -1.1371  0.6138  0.2535
16888TIP3   OH272154   6.535   2.912  12.985 -0.2858  0.1033  0.1718
16888TIP3    H172155   6.583   2.956  13.055  0.0713  0.9771 -0.6080
16888TIP3    H272156   6.454   2.963  12.976  1.3066  2.3175 -2.5544
16889TIP3   OH272157   0.404   4.173   2.876 -0.2295  0.2372 -0.0010
16889TIP3    H172158   0.492   4.138   2.864 -0.4450 -0.0395 -0.7758
16889TIP3    H272159   0.382   4.152   2.967 -0.4157 -1.8227 -0.4930
16890TIP3   OH272160   2.472   6.013  12.591  0.1716  0.2243 -0.0046
16890TIP3    H172161   2.491   6.074  12.661  2.5013  0.7429 -1.0169
16890TIP3    H272162   2.531   6.039  12.520 -0.8041 -1.4271 -1.4690
16891TIP3   OH272163   6.560   1.049  11.569 -0.2899 -0.5462  0.4757
16891TIP3    H172164   6.495   0.978  11.566  0.1849 -0.9275 -1.4801
16891TIP3    H272165   6.588   1.052  11.660  2.6583 -5.6083 -0.1074
16892TIP3   OH272166   1.527   6.696  12.669 -0.3865  0.1648 -0.1370
16892TIP3    H172167   1.456   6.758  12.687 -0.8893 -0.2841 -0.5424
16892TIP3    H272168   1.482   6.613  12.650  0.2252  0.0120 -0.9426
16893TIP3   OH272169   6.633   6.119  12.765  0.1329  0.1844 -0.4029
16893TIP3    H172170   6.665   6.209  12.768 -0.1989  0.2653  1.0943
16893TIP3    H272171   6.557   6.122  12.707  2.0308  0.2367 -2.9470
16894TIP3   OH272172   4.869   2.463   0.659 -0.2441  0.2286  0.1171
16894TIP3    H172173   4.814   2.406   0.605  0.9479 -0.2118 -0.6407
16894TIP3    H272174   4.906   2.405   0.725  0.1240  0.3302 -0.0001
16895TIP3   OH272175   5.554   6.555  16.026 -0.7709  0.9663 -0.7056
16895TIP3    H172176   5.492   6.520  15.961 -2.4677  1.7662  0.4374
16895TIP3    H272177   5.604   6.479  16.055 -1.7801  0.1618 -1.0516
16896TIP3   OH272178   5.938   6.555   3.309  0.6050 -0.4714  0.0491
16896TIP3    H172179   5.855   6.510   3.294  0.0849  0.6743 -0.6121
16896TIP3    H272180   5.964   6.588   3.223 -0.7229  3.2922  0.9545
16897TIP3   OH272181   1.056   0.425  14.062 -0.3778 -0.5595  0.4933
16897TIP3    H172182   1.034   0.376  14.141 -1.0930 -1.0161  0.0054
16897TIP3    H272183   1.151   0.438  14.068 -0.5696  0.2689  1.9225
16898TIP3   OH272184   5.638   6.811  16.767 -0.3845 -0.7765  0.3298
16898TIP3    H172185   5.623   6.847  16.680 -0.2104  0.3836  0.7752
16898TIP3    H272186   5.733   6.801  16.774 -0.4706 -1.8770 -0.0094
16899TIP3   OH272187   5.151   5.325  16.309 -0.1912 -0.4578 -0.4757
16899TIP3    H172188   5.228   5.317  16.366 -0.2312 -1.0289 -0.4964
16899TIP3    H272189   5.154   5.415  16.277 -0.4742  0.0531  0.8811
16900TIP3   OH272190   3.002   4.674   6.571 -0.3618 -0.1618 -0.1186
16900TIP3    H172191   3.058   4.748   6.547 -0.2004  0.3583  1.8076
16900TIP3    H272192   2.939   4.668   6.499  2.0472 -0.6852 -2.2832
16901TIP3   OH272193   6.584   6.031   4.676 -0.0565 -0.1115  0.2362
16901TIP3    H172194   6.531   6.089   4.622 -0.5612 -1.1474 -0.3865
16901TIP3    H272195   6.628   6.089   4.739 -0.3915  0.9542 -0.5195
16902TIP3   OH272196   5.602   6.703   5.756  0.4063  0.2637 -0.3193
16902TIP3    H172197   5.574   6.640   5.690  1.5096  0.0881 -0.6304
16902TIP3    H272198   5.697   6.695   5.758  0.5359  1.6957 -0.1373
16903TIP3   OH272199   2.600   5.273   2.109 -0.3223  0.2153  0.2654
16903TIP3    H172200   2.592   5.205   2.175  0.1177 -0.9502 -0.8743
16903TIP3    H272201   2.694   5.289   2.102 -0.2523 -0.8593 -1.2833
16904TIP3   OH272202   1.012   6.537  15.474  0.5569 -0.3223  0.0155
16904TIP3    H172203   0.982   6.515  15.562 -0.0063  1.4092  0.2783
16904TIP3    H272204   1.101   6.502  15.470  0.4422 -0.7634  1.1366
16905TIP3   OH272205   3.589   4.756  11.956  0.1687  0.1495  0.5056
16905TIP3    H172206   3.656   4.816  11.987 -0.3662  1.1485 -0.2413
16905TIP3    H272207   3.573   4.698  12.030 -1.2803  2.6449  2.2303
16906TIP3   OH272208   3.982   2.247  12.909  0.1248 -0.1110  0.7804
16906TIP3    H172209   3.954   2.195  12.985 -0.7639 -1.5517 -0.5142
16906TIP3    H272210   3.960   2.193  12.834  2.6458  0.5123 -0.4531
16907TIP3   OH272211   1.210   1.953  11.313  0.0223 -0.3160 -0.2078
16907TIP3    H172212   1.205   1.990  11.402  2.1238  0.2308 -0.2743
16907TIP3    H272213   1.120   1.935  11.289 -0.7833  1.7479  1.1397
16908TIP3   OH272214   4.205   0.944  13.263 -0.0808  0.2461  0.2231
16908TIP3    H172215   4.162   1.028  13.245 -1.2669 -0.2729  0.5819
16908TIP3    H272216   4.193   0.931  13.358  2.2638  0.8511  0.6180
16909TIP3   OH272217   4.949   3.827  16.801  0.0506  0.2798  0.1108
16909TIP3    H172218   4.993   3.902  16.842 -0.0946  0.8694 -0.7856
16909TIP3    H272219   4.936   3.854  16.710  0.4589 -1.0454 -0.3538
16910TIP3   OH272220   4.445   5.535   0.292  0.0799  0.3832 -0.0971
16910TIP3    H172221   4.474   5.466   0.231 -0.2719  0.0592  0.0960
16910TIP3    H272222   4.386   5.489   0.352  0.1457  0.7791  0.2660
16911TIP3   OH272223   6.582   2.365  13.824 -0.0650 -0.5351  0.6447
16911TIP3    H172224   6.655   2.306  13.806  0.2735  0.3763 -1.0742
16911TIP3    H272225   6.504   2.314  13.805  0.0882 -1.5544  2.6081
16912TIP3   OH272226   6.024   2.185  13.068 -0.4993 -0.6424 -0.5256
16912TIP3    H172227   6.093   2.212  13.007 -2.2116  2.4327 -1.2206
16912TIP3    H272228   6.037   2.091  13.079  2.2013 -0.5793 -2.6444
16913TIP3   OH272229   0.232   0.175  11.112  1.1214 -0.3061 -0.2924
16913TIP3    H172230   0.279   0.180  11.195  0.3314  0.5480  0.1173
16913TIP3    H272231   0.299   0.191  11.046  1.5403  0.2038  0.2450
16914TIP3   OH272232   5.704   6.755  15.924  0.6767 -0.2998  0.0549
16914TIP3    H172233   5.639   6.708  15.976 -1.0228  1.3236 -0.5377
16914TIP3    H272234   5.677   6.742  15.833  2.7388 -1.8260 -0.3877
16915TIP3   OH272235   2.558   1.241  15.604  0.6390  0.0766  0.7512
16915TIP3    H172236   2.484   1.190  15.638 -0.3432 -0.2855 -1.7968
16915TIP3    H272237   2.538   1.332  15.626  0.0531 -0.1551  1.1734
16916TIP3   OH272238   2.939   0.048  15.209 -0.5499  0.5125 -0.1468
16916TIP3    H172239   2.913  -0.037  15.245 -2.2905  0.5589 -1.2106
16916TIP3    H272240   2.885   0.058  15.130  0.0433  2.3511 -0.3444
16917TIP3   OH272241   0.999   0.494   2.392  0.2581 -0.6634  0.3036
16917TIP3    H172242   0.938   0.493   2.465  1.5584 -1.2652  1.3885
16917TIP3    H272243   0.972   0.570   2.339  0.1004  0.5408  2.0807
16918TIP3   OH272244   1.799   5.080  13.664 -0.0341 -0.6730 -0.3302
16918TIP3    H172245   1.886   5.120  13.665 -0.0903 -0.5577  0.1780
16918TIP3    H272246   1.810   5.001  13.611  0.2958 -0.4691 -0.5688
16919TIP3   OH272247   0.796   4.172  13.607 -0.1982  0.5952  0.0055
16919TIP3    H172248   0.817   4.202  13.695 -0.0781 -1.5212  0.7251
16919TIP3    H272249   0.714   4.123  13.617  0.2259 -0.3132 -0.9151
16920TIP3   OH272250   0.762   1.424   2.096  0.4949  0.1106 -0.0728
16920TIP3    H172251   0.738   1.341   2.137 -0.8001 -0.6283 -2.2441
16920TIP3    H272252   0.696   1.486   2.129  1.0916  0.1641  1.0612
16921TIP3   OH272253   2.430   6.430  11.333 -0.1444  0.1330  0.2250
16921TIP3    H172254   2.397   6.443  11.245  1.3454  1.1196 -0.2039
16921TIP3    H272255   2.502   6.368  11.323 -0.6336 -0.5553  0.8941
16922TIP3   OH272256   4.020   6.584   3.342  0.0160  0.3720 -0.3148
16922TIP3    H172257   4.089   6.586   3.408  0.5313 -0.2322 -0.8188
16922TIP3    H272258   4.055   6.637   3.270 -0.5189  0.9846 -0.1277
16923TIP3   OH272259   5.841   3.571  16.001 -0.2052 -0.6546  1.2696
16923TIP3    H172260   5.852   3.515  15.924 -1.5996  0.3864  0.2908
16923TIP3    H272261   5.920   3.625  16.002 -0.8571  0.3433 -0.2862
16924TIP3   OH272262   0.709   2.862  12.346 -0.4227  0.0774 -0.0229
16924TIP3    H172263   0.668   2.814  12.274 -0.1014 -1.1162  0.5652
16924TIP3    H272264   0.781   2.909  12.306 -0.1189 -0.7478 -0.4535
16925TIP3   OH272265   1.409   4.361  15.444 -0.0891 -0.2479 -0.5103
16925TIP3    H172266   1.499   4.388  15.424 -0.1240 -1.8452 -3.0859
16925TIP3    H272267   1.385   4.413  15.521  3.0147  0.2136  0.2205
16926TIP3   OH272268   1.027   2.347   2.113 -0.1304  0.2215  0.1452
16926TIP3    H172269   0.989   2.325   2.027  0.4630  0.1873 -0.1077
16926TIP3    H272270   1.014   2.268   2.166 -2.2434  0.8955  0.6992
16927TIP3   OH272271   1.284   2.263  14.027 -0.2813  0.2359  0.6237
16927TIP3    H172272   1.319   2.226  13.945  1.1497  0.7757  0.9691
16927TIP3    H272273   1.215   2.202  14.053 -0.2648 -0.3287 -0.6205
16928TIP3   OH272274   2.884   1.102   2.464  0.8406  0.7348  0.1027
16928TIP3    H172275   2.920   1.183   2.500  1.0586  0.5049  0.4064
16928TIP3    H272276   2.791   1.105   2.487  0.6181  1.4382 -0.8871
16929TIP3   OH272277   0.701   6.659   0.408 -0.4598 -0.1456 -0.1917
16929TIP3    H172278   0.641   6.589   0.380 -0.3163 -0.0394 -0.7731
16929TIP3    H272279   0.670   6.684   0.495 -0.9451 -0.4485 -0.2756
16930TIP3   OH272280   4.964   1.538   2.730  0.0409  0.2433 -0.1388
16930TIP3    H172281   5.001   1.513   2.645  1.5901 -2.8579  1.3820
16930TIP3    H272282   4.906   1.466   2.753 -1.0417  1.4802  1.0299
16931TIP3   OH272283   4.808   3.170  15.046  0.1499  0.3428 -0.0117
16931TIP3    H172284   4.757   3.179  14.965  0.1543  1.2733  0.0799
16931TIP3    H272285   4.879   3.111  15.023  1.0671  1.8584 -1.1396
16932TIP3   OH272286   5.667   1.607  10.786  0.4873  0.4086  0.2703
16932TIP3    H172287   5.694   1.531  10.735  0.5794  1.0431 -0.6320
16932TIP3    H272288   5.573   1.596  10.798  0.6747 -0.3909  1.0563
16933TIP3   OH272289   1.123   2.102   5.071  0.2516 -0.2389  1.0829
16933TIP3    H172290   1.052   2.133   5.016  0.0429  1.2461  2.1635
16933TIP3    H272291   1.082   2.087   5.157  0.8340 -1.3146  1.1896
16934TIP3   OH272292   6.819   2.730  13.157 -0.0967  0.4118 -0.1648
16934TIP3    H172293   6.905   2.751  13.119 -0.9746  1.2936 -1.7101
16934TIP3    H272294   6.819   2.774  13.242  1.9343 -1.6696  0.9738
16935TIP3   OH272295   3.337   0.863   4.965  0.1717  0.0861 -0.0668
16935TIP3    H172296   3.247   0.884   4.941 -0.0107  0.3145  0.7884
16935TIP3    H272297   3.329   0.809   5.043  0.7753  0.1358  0.0333
16936TIP3   OH272298   4.810   6.204  11.782 -0.3493  0.3394 -0.3169
16936TIP3    H172299   4.834   6.136  11.846 -1.5380 -0.1501 -0.3826
16936TIP3    H272300   4.890   6.255  11.772  0.3979 -0.6925  0.1806
16937TIP3   OH272301   0.425   0.117  10.933 -0.2663 -0.0769  0.3949
16937TIP3    H172302   0.499   0.129  10.874 -1.1802  0.6508 -0.6315
16937TIP3    H272303   0.434   0.027  10.966  0.1256 -0.5759 -1.0398
16938TIP3   OH272304   3.655   3.884   1.184 -0.0236  0.1772  0.5921
16938TIP3    H172305   3.619   3.930   1.260 -0.9260 -0.3660  0.5058
16938TIP3    H272306   3.649   3.791   1.207  0.8397  0.0545  0.3472
16939TIP3   OH272307   4.385   5.003  13.109 -0.3016 -0.1526 -0.4180
16939TIP3    H172308   4.332   4.942  13.057 -0.1259 -0.2977 -0.4260
16939TIP3    H272309   4.320   5.059  13.152 -0.5006 -0.7928  0.1368
16940TIP3   OH272310   3.518   0.171  15.722  0.5192  0.3760 -0.2768
16940TIP3    H172311   3.507   0.104  15.655 -0.0783 -0.0193  0.2190
16940TIP3    H272312   3.429   0.191  15.752  0.5398  2.5426 -1.5570
16941TIP3   OH272313   1.411   1.873  12.612 -0.6094 -0.1529 -0.4799
16941TIP3    H172314   1.467   1.921  12.673 -2.5875 -0.6952  1.8062
16941TIP3    H272315   1.346   1.936  12.584 -0.2834 -0.1741 -1.2932
16942TIP3   OH272316   2.969   6.003  10.237 -0.3426 -0.4558  0.1089
16942TIP3    H172317   2.948   6.084  10.190 -0.1244  0.8060  2.1113
16942TIP3    H272318   3.065   6.005  10.247 -0.1047 -2.0355 -1.7001
16943TIP3   OH272319   2.455   0.434   5.318 -0.2258 -0.1030  0.6200
16943TIP3    H172320   2.382   0.427   5.256  0.9133 -0.9296 -0.6652
16943TIP3    H272321   2.415   0.421   5.404 -1.5113 -1.1484 -0.1138
16944TIP3   OH272322   6.070   0.491  15.465 -0.8024  0.6421  0.0477
16944TIP3    H172323   6.088   0.584  15.453  0.0869  0.4744  0.0385
16944TIP3    H272324   6.064   0.479  15.559  1.1741  0.3479  0.1715
16945TIP3   OH272325   4.676   5.885   3.730  0.6029  0.4482  0.2984
16945TIP3    H172326   4.696   5.869   3.822  0.1619 -1.7703  0.0389
16945TIP3    H272327   4.760   5.904   3.690  0.9132  0.5849  1.0049
16946TIP3   OH272328   4.605   5.321   4.014 -0.1661  0.1504  0.1993
16946TIP3    H172329   4.584   5.227   4.013  2.8286 -0.5559 -0.5988
16946TIP3    H272330   4.623   5.340   4.106  0.6727 -0.4324  0.1645
16947TIP3   OH272331   2.483   6.529   3.166  0.4744 -0.4221 -0.3497
16947TIP3    H172332   2.451   6.580   3.240  1.4060 -1.4473  0.7845
16947TIP3    H272333   2.457   6.579   3.089 -0.6513  0.5754  0.6647
16948TIP3   OH272334   6.449   6.815   2.872  0.5252  0.3224  0.0705
16948TIP3    H172335   6.456   6.720   2.882  0.9895  0.2921 -0.5271
16948TIP3    H272336   6.435   6.847   2.961 -0.9311 -0.4117  0.1128
16949TIP3   OH272337   4.965   2.667   5.233 -0.1120 -0.2385  0.0216
16949TIP3    H172338   4.953   2.724   5.157  1.3801  0.7818  0.5175
16949TIP3    H272339   4.994   2.584   5.197  1.1134  0.4022 -0.5121
16950TIP3   OH272340   0.350   5.929  16.612  1.1304  0.1628  0.3511
16950TIP3    H172341   0.373   5.844  16.651 -0.0516 -0.5332 -0.4370
16950TIP3    H272342   0.259   5.943  16.638  1.3160  1.1919  0.4563
16951TIP3   OH272343   2.018   5.909  16.385  0.8633  0.2622  0.6370
16951TIP3    H172344   2.075   5.973  16.427 -1.7501  3.7596 -0.9592
16951TIP3    H272345   1.935   5.916  16.431  0.4478 -1.9281  0.3068
16952TIP3   OH272346   2.493   1.803   1.348  0.1469 -0.2952  0.5531
16952TIP3    H172347   2.456   1.724   1.386  1.2804 -0.7313  0.7330
16952TIP3    H272348   2.540   1.773   1.270  3.4059 -0.2587  2.4239
16953TIP3   OH272349   1.490   6.550  15.272  0.6897  0.3556  0.1696
16953TIP3    H172350   1.454   6.531  15.185 -0.8410 -0.4619  0.9694
16953TIP3    H272351   1.544   6.628  15.259  0.9601 -0.1129 -1.6362
16954TIP3   OH272352   3.816   3.666   5.838 -0.3850 -0.3555  0.1757
16954TIP3    H172353   3.860   3.717   5.906  0.4922 -1.4169  0.4220
16954TIP3    H272354   3.725   3.659   5.867 -0.3480  0.4719  0.4852
16955TIP3   OH272355   4.961   3.862   0.056 -0.2539  0.0593  0.0888
16955TIP3    H172356   5.050   3.876   0.024 -0.2503  1.6694  0.7592
16955TIP3    H272357   4.905   3.886  -0.018 -0.1266 -0.7645 -0.2693
16956TIP3   OH272358   3.229   3.678  15.015 -0.5170 -0.4585 -0.6920
16956TIP3    H172359   3.243   3.726  14.933  0.8654 -1.7219 -1.2282
16956TIP3    H272360   3.309   3.626  15.026 -0.7848 -0.4699  1.3518
16957TIP3   OH272361   2.537   3.808   3.252 -0.6492  0.4955  0.5868
16957TIP3    H172362   2.443   3.791   3.260 -0.1650 -1.7425  1.6668
16957TIP3    H272363   2.556   3.871   3.322 -0.8229 -1.2006  2.1793
16958TIP3   OH272364   2.211   6.759   0.179  0.0202  0.3062  0.7791
16958TIP3    H172365   2.154   6.726   0.248 -1.6567  2.3930  0.4193
16958TIP3    H272366   2.159   6.825   0.134  2.1261  1.0424 -0.6394
16959TIP3   OH272367   1.948   2.961   0.956  0.1777  0.3015 -0.2249
16959TIP3    H172368   2.015   2.894   0.969 -0.2840  0.2477  2.0679
16959TIP3    H272369   1.880   2.918   0.905  0.3132 -0.6910  0.4221
16960TIP3   OH272370   2.524   6.047   4.296  0.3966 -0.1203  0.2046
16960TIP3    H172371   2.607   6.078   4.333  0.6737 -0.5294 -0.0739
16960TIP3    H272372   2.490   5.986   4.361  1.0525 -1.1043 -0.3668
16961TIP3   OH272373   4.599   2.952  11.223  0.2915 -0.5159 -0.0693
16961TIP3    H172374   4.524   2.968  11.165 -0.0507  1.1744  0.8265
16961TIP3    H272375   4.673   2.940  11.163 -0.6783 -2.2270 -0.9589
16962TIP3   OH272376   6.524   2.866   1.483 -0.1903 -0.5919  0.7872
16962TIP3    H172377   6.599   2.869   1.424 -0.6988  0.4437  0.1919
16962TIP3    H272378   6.561   2.884   1.570 -0.2363  3.3383  0.0399
16963TIP3   OH272379   1.234   3.490  15.813  0.3069 -0.2138  0.0127
16963TIP3    H172380   1.213   3.440  15.734 -0.5786  1.2440 -0.7054
16963TIP3    H272381   1.196   3.576  15.797  0.8986  0.3705  1.6649
16964TIP3   OH272382   1.119   4.623   0.332  0.6619 -0.7525  0.5793
16964TIP3    H172383   1.157   4.679   0.400  2.2202  0.3104 -1.1119
16964TIP3    H272384   1.028   4.651   0.327  1.3909  1.6878 -0.1896
16965TIP3   OH272385   6.525   3.382   0.755 -0.0294  0.1439 -0.3512
16965TIP3    H172386   6.506   3.396   0.662 -1.1173  1.6679  0.0789
16965TIP3    H272387   6.535   3.471   0.790 -1.3310 -0.3682  1.3317
16966TIP3   OH272388   3.398   5.042   4.812 -0.1579 -0.2542  0.6098
16966TIP3    H172389   3.453   4.988   4.756 -0.8893 -0.5077  0.1260
16966TIP3    H272390   3.444   5.126   4.817  0.9468 -0.8923  1.3075
16967TIP3   OH272391   2.441   4.909   1.638  0.1698  0.7743  0.0137
16967TIP3    H172392   2.407   4.853   1.708  0.0974 -1.7461 -1.9773
16967TIP3    H272393   2.364   4.957   1.607  0.1183  1.5706  1.3111
16968TIP3   OH272394   3.426   5.160  15.169 -0.2624 -0.2554 -0.5049
16968TIP3    H172395   3.485   5.236  15.167  0.8047 -1.0821 -0.5008
16968TIP3    H272396   3.484   5.084  15.168 -1.3237 -1.0795 -0.2912
16969TIP3   OH272397   1.270   6.533   5.274  0.2513  0.1249 -0.8102
16969TIP3    H172398   1.217   6.477   5.218  3.1016 -2.2065 -1.2846
16969TIP3    H272399   1.268   6.490   5.360  0.5609  0.5512 -0.5870
16970TIP3   OH272400   0.471   0.960  13.717 -0.2212 -0.2449  0.9358
16970TIP3    H172401   0.416   0.933  13.790  0.9375  0.9566  2.2739
16970TIP3    H272402   0.519   0.881  13.692 -1.9768 -1.1156  0.2423
16971TIP3   OH272403   6.050   5.265   5.429 -0.2607 -0.6338  0.1064
16971TIP3    H172404   5.993   5.201   5.472  0.4524 -0.7239  0.9410
16971TIP3    H272405   6.010   5.350   5.447  0.8884 -0.5255  2.3655
16972TIP3   OH272406   1.183   5.646  12.420 -0.4795 -0.7189  0.4090
16972TIP3    H172407   1.248   5.710  12.391 -0.1616 -2.1272 -2.1118
16972TIP3    H272408   1.228   5.594  12.487 -0.2856  0.7233  1.4298
16973TIP3   OH272409   5.487   1.561   1.082  0.0555 -0.1072  0.0375
16973TIP3    H172410   5.409   1.560   1.026 -0.7005 -0.3437  1.0764
16973TIP3    H272411   5.457   1.601   1.163  0.9130 -0.5835  0.5914
16974TIP3   OH272412   2.505   4.133   1.425  0.7204 -0.5203  0.0093
16974TIP3    H172413   2.431   4.092   1.471 -0.3244  1.4619  0.1764
16974TIP3    H272414   2.476   4.138   1.334  1.3705 -1.3144 -0.2416
16975TIP3   OH272415   0.237   3.135  17.120  0.6476  0.3089 -0.2927
16975TIP3    H172416   0.224   3.047  17.085  1.1870  0.6099 -1.2620
16975TIP3    H272417   0.274   3.121  17.207 -0.5277 -0.4391  0.0941
16976TIP3   OH272418   0.195   2.214   3.844  0.0365  0.2863 -0.6883
16976TIP3    H172419   0.139   2.158   3.898  0.6370  0.8100  0.4827
16976TIP3    H272420   0.258   2.153   3.805  1.8277  0.3359  2.0141
16977TIP3   OH272421   6.569   3.153   3.626  0.0522 -0.4233  0.4063
16977TIP3    H172422   6.641   3.178   3.683  0.2422 -0.7359  0.3020
16977TIP3    H272423   6.492   3.195   3.665  0.1907 -0.5818  0.8512
16978TIP3   OH272424   1.930   1.012   4.612 -0.1889  0.4881  0.2549
16978TIP3    H172425   1.838   1.038   4.621 -0.4863 -0.7537  0.8469
16978TIP3    H272426   1.979   1.088   4.645 -1.0210  0.8200  0.7503
16979TIP3   OH272427   1.897   4.917   4.106 -0.0085  0.4994 -0.1048
16979TIP3    H172428   1.869   5.009   4.103 -1.4632  0.0484 -1.1034
16979TIP3    H272429   1.936   4.901   4.020  0.3558  0.2196  0.1128
16980TIP3   OH272430   0.659   6.297  16.626 -0.3441  0.0979 -0.1516
16980TIP3    H172431   0.626   6.218  16.668 -0.9279  0.7835  0.6817
16980TIP3    H272432   0.582   6.338  16.586  0.3401 -1.0767 -2.8429
16981TIP3   OH272433   1.462   0.907  14.221 -0.0856 -0.0499 -0.0015
16981TIP3    H172434   1.546   0.871  14.248  0.0417  0.4552  0.2753
16981TIP3    H272435   1.476   1.002  14.220 -0.2338 -0.0310 -1.3204
16982TIP3   OH272436   3.290   3.938   3.290  0.0574 -0.4186 -0.5452
16982TIP3    H172437   3.312   4.012   3.233  1.0293 -0.2430  0.0421
16982TIP3    H272438   3.199   3.916   3.267 -0.3187  1.1009 -0.5504
16983TIP3   OH272439   2.059   2.195   4.983  0.4859  0.3681 -0.5071
16983TIP3    H172440   2.012   2.250   5.046 -0.8276  2.0557 -2.8460
16983TIP3    H272441   2.135   2.247   4.957  0.3057  0.2763 -1.2533
16984TIP3   OH272442   1.193   3.776  17.148  0.4688 -0.4872  0.3992
16984TIP3    H172443   1.179   3.776  17.242  2.6973  0.7574  0.7400
16984TIP3    H272444   1.271   3.830  17.134 -0.4357  0.2470 -2.2426
16985TIP3   OH272445   5.118   2.154  11.726 -0.1319 -0.0698 -0.4962
16985TIP3    H172446   5.081   2.138  11.639 -3.2216 -0.8383  0.8998
16985TIP3    H272447   5.108   2.071  11.771 -0.5758  0.9495  1.3097
16986TIP3   OH272448   0.655   3.591   1.331  0.4383  0.4208  0.2378
16986TIP3    H172449   0.742   3.558   1.306  0.6792 -1.1838  3.0498
16986TIP3    H272450   0.669   3.685   1.344  1.6899  0.2413  0.3162
16987TIP3   OH272451   5.461   3.989   6.095  0.0899  0.2899  0.1760
16987TIP3    H172452   5.425   4.013   6.010  1.9646  1.3374 -0.3473
16987TIP3    H272453   5.446   4.066   6.150  2.1454  1.0298 -0.2575
16988TIP3   OH272454   3.571   3.047  12.467 -0.4198 -0.3910  0.5304
16988TIP3    H172455   3.599   3.110  12.401 -1.2373 -1.0691 -0.4854
16988TIP3    H272456   3.646   2.988  12.477 -0.1136  0.0060  0.5701
16989TIP3   OH272457   5.967   1.936  14.573 -0.0939  0.5048 -0.3369
16989TIP3    H172458   5.886   1.983  14.554 -0.8559 -0.2111  1.0459
16989TIP3    H272459   6.036   1.999  14.555 -1.0536  1.7426  0.2574
16990TIP3   OH272460   6.134   2.565  14.683 -0.4943  0.5077  0.4125
16990TIP3    H172461   6.119   2.602  14.597  3.3006  0.0702 -0.5268
16990TIP3    H272462   6.220   2.598  14.709  1.8265 -5.1441  0.7434
16991TIP3   OH272463   2.567   6.158   5.042  0.0185  0.4924  0.5445
16991TIP3    H172464   2.474   6.156   5.021  0.5896  1.4299 -2.2082
16991TIP3    H272465   2.580   6.241   5.087 -0.3673  0.5760  0.5036
16992TIP3   OH272466   5.542   5.174  12.396  0.2106  0.1663 -0.1683
16992TIP3    H172467   5.514   5.263  12.374  0.0966 -0.0378 -0.8459
16992TIP3    H272468   5.615   5.187  12.457  1.3556  0.7681 -1.6244
16993TIP3   OH272469   4.670   5.435   4.241 -0.1948 -0.1924  0.0767
16993TIP3    H172470   4.710   5.519   4.221 -0.4228 -0.1628 -0.2565
16993TIP3    H272471   4.724   5.399   4.312 -0.4659  0.5050  0.6363
16994TIP3   OH272472   2.668   0.291   2.632  0.0121 -0.3033  0.5247
16994TIP3    H172473   2.622   0.374   2.644 -1.7665 -1.5167  2.6084
16994TIP3    H272474   2.750   0.314   2.590 -1.2677  2.2914 -0.6501
16995TIP3   OH272475   5.269   0.838  14.515  0.8200  0.4481  0.6858
16995TIP3    H172476   5.233   0.750  14.522 -0.1739  0.9412  1.9197
16995TIP3    H272477   5.363   0.827  14.534  0.5953 -0.2618  1.4141
16996TIP3   OH272478   3.469   3.166   0.068  0.2043 -0.5042  0.2642
16996TIP3    H172479   3.431   3.180   0.154  0.8942 -0.4421  0.5650
16996TIP3    H272480   3.555   3.208   0.073  1.3274 -2.7154  0.3990
16997TIP3   OH272481   2.494   0.870   3.712 -0.2873  0.0450  0.4981
16997TIP3    H172482   2.561   0.892   3.647  0.0669 -3.6295 -0.5013
16997TIP3    H272483   2.544   0.842   3.789 -0.6475 -0.5387  0.5263
16998TIP3   OH272484   3.162   5.542  12.074  0.1723  0.6825 -0.3122
16998TIP3    H172485   3.139   5.619  12.022 -1.7796  0.8343  0.7147
16998TIP3    H272486   3.195   5.479  12.010  0.7678  1.9726 -1.3088
16999TIP3   OH272487   3.531   3.862   5.340 -0.5111 -0.4148 -0.5682
16999TIP3    H172488   3.489   3.948   5.341 -2.1426 -1.1952  0.4090
16999TIP3    H272489   3.572   3.857   5.253 -1.5917  0.7912 -1.1722
17000TIP3   OH272490   1.643   5.628  11.643 -0.5606 -0.5843  0.1172
17000TIP3    H172491   1.624   5.648  11.551 -0.8119 -2.3566 -0.2427
17000TIP3    H272492   1.563   5.652  11.689  0.3910  2.5319  0.2461
17001TIP3   OH272493   5.899   1.245  11.546  0.2621  0.2673 -0.6497
17001TIP3    H172494   5.931   1.260  11.635 -2.0474 -0.5808  0.3815
17001TIP3    H272495   5.929   1.157  11.524 -0.4828 -0.1255 -0.0965
17002TIP3   OH272496   5.003   1.425  16.671 -0.2528  0.0471  0.1047
17002TIP3    H172497   5.086   1.467  16.647 -0.1759 -0.2271 -0.1146
17002TIP3    H272498   5.025   1.369  16.745 -0.6320  1.4310  1.2980
17003TIP3   OH272499   6.378   4.606   4.701  0.4919 -0.1814  0.1048
17003TIP3    H172500   6.344   4.528   4.745  0.7609 -0.8384 -0.8258
17003TIP3    H272501   6.301   4.662   4.689  0.2029 -0.5346  0.3028
17004TIP3   OH272502   1.818   0.589  10.778 -0.2530  0.1813 -0.3336
17004TIP3    H172503   1.876   0.592  10.702  2.1091 -1.9694  1.2907
17004TIP3    H272504   1.791   0.497  10.784 -2.3109  0.7777  0.0776
17005TIP3   OH272505   3.632   3.609  12.765  0.5372 -0.3534 -0.0855
17005TIP3    H172506   3.542   3.631  12.738  0.9938  1.1153 -0.4285
17005TIP3    H272507   3.651   3.528  12.717 -0.9342 -1.1906  0.6953
17006TIP3   OH272508   3.437   4.712   0.985  1.5403 -0.9066 -0.0504
17006TIP3    H172509   3.519   4.729   0.938  0.8992 -0.6239 -1.0825
17006TIP3    H272510   3.447   4.757   1.069  1.4214  1.2609 -1.1914
17007TIP3   OH272511   5.210   0.991   2.053  0.0448 -0.4813  0.4524
17007TIP3    H172512   5.209   1.066   1.992  0.4543 -0.8008  0.0505
17007TIP3    H272513   5.201   1.031   2.140  1.9490  0.1708  0.3751
17008TIP3   OH272514   4.717   3.564   2.989 -0.4336 -0.0505 -0.7422
17008TIP3    H172515   4.647   3.504   2.962  0.9777 -1.3232 -1.6254
17008TIP3    H272516   4.750   3.527   3.071 -2.0024  1.5869  0.6874
17009TIP3   OH272517   3.764   6.443  13.678  0.3352  0.3833 -0.6541
17009TIP3    H172518   3.818   6.367  13.657  0.2954 -0.2535  1.4362
17009TIP3    H272519   3.820   6.500  13.729  0.2522  1.6360 -1.9120
17010TIP3   OH272520   5.967   3.428  14.648 -0.1849 -0.7558  0.6038
17010TIP3    H172521   5.972   3.378  14.566 -1.1005  0.8658 -0.4884
17010TIP3    H272522   5.873   3.435  14.666 -0.0249 -0.2581  1.2514
17011TIP3   OH272523   5.604   5.282  10.821  0.1045 -0.6119 -0.2574
17011TIP3    H172524   5.522   5.313  10.782  0.7995 -1.3285 -2.3438
17011TIP3    H272525   5.656   5.362  10.833 -0.7457 -0.1964  0.7408
17012TIP3   OH272526   3.768   2.543   0.461  0.0331 -0.4507  0.2053
17012TIP3    H172527   3.673   2.538   0.449  0.0910 -0.9894 -0.0481
17012TIP3    H272528   3.803   2.473   0.406  0.4203 -1.8067  2.1344
17013TIP3   OH272529   3.513   6.068   2.204 -0.2868  0.1129  0.2659
17013TIP3    H172530   3.510   6.118   2.122  2.4036  1.3290  0.8587
17013TIP3    H272531   3.485   5.980   2.179  1.7771  0.1053 -2.2757
17014TIP3   OH272532   2.708   0.183   4.457 -0.4794  0.0115  0.3786
17014TIP3    H172533   2.677   0.135   4.533 -0.1560 -0.7023  0.0659
17014TIP3    H272534   2.741   0.115   4.397 -1.0686  0.5299 -0.5528
17015TIP3   OH272535   6.759   0.624  13.589  0.0144  0.3863 -0.3142
17015TIP3    H172536   6.766   0.560  13.518  1.6907  0.1804  0.0187
17015TIP3    H272537   6.744   0.708  13.544  0.4407  0.1629 -0.8799
17016TIP3   OH272538   5.703   3.926  14.892 -0.2174 -0.6623  0.4632
17016TIP3    H172539   5.744   3.928  14.979  1.6506  0.1661 -0.4160
17016TIP3    H272540   5.728   3.841  14.856  2.4352  0.5998 -0.8327
17017TIP3   OH272541   5.323   5.858  16.428  0.0649 -0.0226  0.2003
17017TIP3    H172542   5.237   5.821  16.448 -0.5124  0.0601 -2.0608
17017TIP3    H272543   5.333   5.930  16.490 -1.5103  0.0047  0.4443
17018TIP3   OH272544   6.014   5.827   2.032  0.2417  0.0021 -0.0638
17018TIP3    H172545   6.082   5.884   2.067 -0.9164  1.2751  0.1611
17018TIP3    H272546   6.062   5.755   1.990  1.7200  1.0226 -0.1653
17019TIP3   OH272547   0.429   5.378   1.286 -0.2031  0.0544  0.8234
17019TIP3    H172548   0.510   5.391   1.335  0.5937  0.8115 -0.6702
17019TIP3    H272549   0.382   5.461   1.295 -0.2593  0.0386  0.6713
17020TIP3   OH272550   3.146   4.590  14.780 -0.0898 -1.0288 -0.0149
17020TIP3    H172551   3.170   4.540  14.858  0.2954 -1.8408 -0.6440
17020TIP3    H272552   3.210   4.564  14.714 -0.7825 -0.8181 -0.7838
17021TIP3   OH272553   5.622   6.491   0.958 -0.3459  0.7225 -0.2219
17021TIP3    H172554   5.549   6.529   0.911 -1.2185 -0.5352  0.0775
17021TIP3    H272555   5.674   6.446   0.891 -0.0141  1.3379 -0.3843
17022TIP3   OH272556   5.039   5.287   3.485  0.1076 -0.8621 -0.7686
17022TIP3    H172557   5.091   5.339   3.423  1.2488 -0.5504  0.4195
17022TIP3    H272558   4.974   5.348   3.519  0.4748 -0.6200 -0.5022
17023TIP3   OH272559   4.110   3.245  14.054  0.4349  0.5325 -0.1926
17023TIP3    H172560   4.056   3.286  14.122  1.6895 -0.0300  1.1665
17023TIP3    H272561   4.080   3.154  14.052  2.1001 -0.0897  1.4170
17024TIP3   OH272562   2.204   2.337   3.687  0.3666 -0.1016  0.0267
17024TIP3    H172563   2.268   2.388   3.736  0.5182  0.8276 -1.0971
17024TIP3    H272564   2.252   2.305   3.610  0.4999 -2.6809  1.1236
17025TIP3   OH272565   5.721   5.034  10.757  0.0918  0.1062  0.2691
17025TIP3    H172566   5.644   4.981  10.734  0.9998 -0.1798 -2.2711
17025TIP3    H272567   5.684   5.117  10.787 -1.2273 -0.0447 -0.8667
17026TIP3   OH272568   3.858   6.446  11.129  0.0399  0.7664 -0.2452
17026TIP3    H172569   3.904   6.460  11.047  0.4932  1.1662  0.0758
17026TIP3    H272570   3.785   6.388  11.106  1.0753 -0.4099 -0.6383
17027TIP3   OH272571   0.228   5.052  12.368 -0.0049 -0.0836 -0.5551
17027TIP3    H172572   0.308   5.009  12.337  0.1182 -0.5867  0.4294
17027TIP3    H272573   0.243   5.145  12.351  1.5600  0.0252  1.2158
17028TIP3   OH272574   0.898   4.653   2.382  0.0357  0.4388  0.3261
17028TIP3    H172575   0.900   4.729   2.323  0.7741  0.0280 -0.1749
17028TIP3    H272576   0.988   4.621   2.383 -0.8171 -2.1773 -1.7379
17029TIP3   OH272577   1.237   4.689  13.733 -0.1614  0.2519  0.0122
17029TIP3    H172578   1.205   4.770  13.772 -0.1871 -0.3796  1.3176
17029TIP3    H272579   1.195   4.620  13.783  0.8008 -0.5752 -0.3096
17030TIP3   OH272580   1.602   0.246   6.735 -0.4665 -0.0969  0.1729
17030TIP3    H172581   1.506   0.241   6.728 -0.4125 -0.8652 -0.0991
17030TIP3    H272582   1.633   0.170   6.685  0.1822 -1.7352  2.9915
17031TIP3   OH272583   1.736   5.376  13.632  0.0866  0.5583  0.0998
17031TIP3    H172584   1.762   5.284  13.629  0.6231  0.7401 -1.2398
17031TIP3    H272585   1.803   5.418  13.686 -0.1359  0.1736  0.6760
17032TIP3   OH272586   2.616   4.301   1.793 -0.1138  0.1552 -0.2224
17032TIP3    H172587   2.655   4.290   1.706  1.0457 -0.4504  0.3684
17032TIP3    H272588   2.560   4.224   1.805  0.5431 -0.2830  0.0022
17033TIP3   OH272589   5.898   1.006   3.800 -0.4023 -0.2777 -0.1284
17033TIP3    H172590   5.854   0.950   3.736 -0.0710 -0.3764 -0.2705
17033TIP3    H272591   5.962   0.948   3.843  0.6229  0.2278 -0.9566
17034TIP3   OH272592   5.964   2.428  15.106  0.0578  0.4440  1.2153
17034TIP3    H172593   5.928   2.359  15.050  0.5249  2.5413 -1.8051
17034TIP3    H272594   5.889   2.485  15.123  0.4907  1.2490  0.4615
17035TIP3   OH272595   1.835   2.764   1.128  0.0629  0.6038  0.5097
17035TIP3    H172596   1.882   2.689   1.091  1.9466  2.0417 -0.0542
17035TIP3    H272597   1.893   2.796   1.197 -0.5508  1.7924  0.4708
17036TIP3   OH272598   4.110   2.808  13.539 -0.2749 -0.1644  0.2608
17036TIP3    H172599   4.171   2.860  13.591 -0.2159  1.4886 -1.4055
17036TIP3    H272600   4.073   2.745  13.601  0.6418  1.0009  2.0286
17037TIP3   OH272601   0.831   3.194  15.956  0.2386 -0.4667 -0.2089
17037TIP3    H172602   0.888   3.247  16.012 -0.4838  0.3140 -0.1964
17037TIP3    H272603   0.857   3.217  15.867  0.5330 -0.7649 -0.2000
17038TIP3   OH272604   2.211   1.410  14.882  0.0152  0.0726  0.2481
17038TIP3    H172605   2.235   1.434  14.972 -0.6802 -0.6229  0.6244
17038TIP3    H272606   2.184   1.492  14.842 -0.9743  0.1743  1.0939
17039TIP3   OH272607   2.493   2.754  13.568  0.3940 -0.4546 -0.6293
17039TIP3    H172608   2.487   2.721  13.658  0.0101 -0.2295 -0.5725
17039TIP3    H272609   2.556   2.826  13.573  1.0316 -1.0004 -0.7031
17040TIP3   OH272610   0.724   4.254   2.455 -0.3637  0.1210  0.4892
17040TIP3    H172611   0.661   4.322   2.481 -0.7770 -0.4372  0.9313
17040TIP3    H272612   0.809   4.300   2.454 -0.7243  0.8008  0.1721
17041TIP3   OH272613   5.663   0.034   0.833  0.0071  0.2025  0.1988
17041TIP3    H172614   5.581  -0.013   0.846  0.5117 -0.5871  0.6091
17041TIP3    H272615   5.712   0.020   0.914  0.4908  0.7776  0.0146
17042TIP3   OH272616   4.599   3.804  12.941  0.1417 -0.4067  0.3687
17042TIP3    H172617   4.569   3.714  12.952  2.2825 -1.0381  1.2274
17042TIP3    H272618   4.677   3.798  12.887 -1.4601  1.2841 -2.2755
17043TIP3   OH272619   2.439   0.439  10.806 -0.1301  0.0840 -0.5519
17043TIP3    H172620   2.493   0.515  10.828  0.2379  0.1232 -1.5773
17043TIP3    H272621   2.501   0.366  10.803  0.0693  0.3119 -2.8126
17044TIP3   OH272622   2.901   2.655   1.484  0.2846  0.8004  0.5705
17044TIP3    H172623   2.919   2.561   1.488  0.1453  0.7847  0.8105
17044TIP3    H272624   2.823   2.667   1.538  0.2619  1.0445  0.4844
17045TIP3   OH272625   3.210   1.119   5.303 -0.0833  0.1895  0.1993
17045TIP3    H172626   3.120   1.147   5.320 -0.6956 -2.2556  1.2034
17045TIP3    H272627   3.259   1.146   5.380 -0.6350 -1.2826  1.0889
17046TIP3   OH272628   1.956   3.455   5.089 -0.4992  0.1242  0.3557
17046TIP3    H172629   1.980   3.437   5.180  1.5435 -1.0472 -0.3955
17046TIP3    H272630   1.962   3.551   5.082  0.1320  0.1615  1.2347
17047TIP3   OH272631   5.752   6.423   0.722  0.3959  0.2994  0.4372
17047TIP3    H172632   5.771   6.353   0.659 -0.2096 -0.8097  1.4634
17047TIP3    H272633   5.817   6.491   0.702  0.2494 -0.0440 -1.3402
17048TIP3   OH272634   3.255   6.598  13.406  0.6808 -1.1378 -0.2937
17048TIP3    H172635   3.182   6.575  13.348  0.4050  0.0665 -0.4418
17048TIP3    H272636   3.308   6.657  13.354  0.7363 -0.4958  0.4877
17049TIP3   OH272637   3.067   3.888   2.705 -0.4072  0.6729 -0.4072
17049TIP3    H172638   3.148   3.853   2.668 -1.0132  0.2524 -1.3438
17049TIP3    H272639   3.007   3.895   2.630 -1.6365 -0.1653  0.4821
17050TIP3   OH272640   5.769   1.318   2.976 -1.3074 -0.1018 -0.1197
17050TIP3    H172641   5.727   1.399   3.003  2.7176  1.5799  1.4743
17050TIP3    H272642   5.785   1.329   2.882 -2.6287  0.0400 -0.3327
17051TIP3   OH272643   3.523   4.549   6.263 -0.1658  0.2254 -0.7340
17051TIP3    H172644   3.592   4.499   6.306 -2.3698 -2.3220  0.0261
17051TIP3    H272645   3.517   4.511   6.176 -0.6096  0.3957 -0.7785
17052TIP3   OH272646   4.364   2.191   3.899 -0.8900  0.3946  0.3762
17052TIP3    H172647   4.435   2.250   3.871  0.7560 -2.6663 -2.1580
17052TIP3    H272648   4.405   2.135   3.965 -1.6229  0.1111  0.5855
17053TIP3   OH272649   3.545   3.622  11.011  0.1363  0.2301  0.6888
17053TIP3    H172650   3.501   3.541  10.986  0.4053 -0.2148  1.6125
17053TIP3    H272651   3.634   3.594  11.035  0.4970  0.9237  0.1865
17054TIP3   OH272652   2.698   4.990  12.182 -0.9489 -0.1818 -0.3087
17054TIP3    H172653   2.672   5.078  12.152  1.2803  0.7943  0.5253
17054TIP3    H272654   2.654   4.980  12.266 -0.2675  0.6593  0.1627
17055TIP3   OH272655   4.720   3.682   5.256  0.2761 -0.3763 -0.1645
17055TIP3    H172656   4.690   3.770   5.278  1.8390 -0.0753  0.9299
17055TIP3    H272657   4.814   3.684   5.275  1.1236 -1.0979 -3.9673
17056TIP3   OH272658   3.136   3.428   2.449 -1.1208  0.3092  0.5505
17056TIP3    H172659   3.174   3.423   2.361  0.1419 -1.1075  1.1416
17056TIP3    H272660   3.200   3.477   2.500 -1.4477  0.4028  0.8733
17057TIP3   OH272661   3.002   6.398  15.350 -0.1561  0.5501 -0.4678
17057TIP3    H172662   3.015   6.308  15.380  1.6083  1.7228  2.5443
17057TIP3    H272663   2.924   6.428  15.397  0.5964  1.3189  0.2906
17058TIP3   OH272664   2.819   6.813   3.634  0.2418 -0.0055  0.2689
17058TIP3    H172665   2.786   6.879   3.573 -1.8229 -1.9151 -0.7350
17058TIP3    H272666   2.862   6.748   3.578  0.2839 -0.6573  1.0436
17059TIP3   OH272667   1.011   2.670   4.374  0.4502  0.3379  0.1732
17059TIP3    H172668   1.097   2.645   4.408  0.6915  0.2146 -0.5266
17059TIP3    H272669   0.977   2.591   4.333 -0.2687  0.2134  0.9849
17060TIP3   OH272670   2.853   4.474   5.430  0.2159 -0.2667  0.3932
17060TIP3    H172671   2.766   4.458   5.393  0.8295  0.7825 -1.5941
17060TIP3    H272672   2.847   4.562   5.467 -0.6112 -1.5880  3.5682
17061TIP3   OH272673   4.087   4.253   6.668  0.2190  0.0127  0.3806
17061TIP3    H172674   4.130   4.197   6.603  0.4853 -0.0726  0.6298
17061TIP3    H272675   4.096   4.341   6.634  1.7708  0.1412  1.0821
17062TIP3   OH272676   0.777   2.014   2.031 -0.3165  0.5337 -0.1821
17062TIP3    H172677   0.812   2.069   2.101  0.6950  0.2576 -0.4559
17062TIP3    H272678   0.778   1.925   2.067  0.8057  0.3034 -0.7581
17063TIP3   OH272679   4.953   5.981   2.883  0.6334 -0.0577 -0.5257
17063TIP3    H172680   5.046   6.004   2.893 -0.0758  2.4607  0.7455
17063TIP3    H272681   4.931   5.936   2.964  0.2850  0.9945 -0.0359
17064TIP3   OH272682   1.114   2.946   3.173 -0.2925 -0.0291 -0.4475
17064TIP3    H172683   1.185   2.998   3.210 -0.2631  0.4587 -1.1762
17064TIP3    H272684   1.134   2.855   3.197  0.3240  0.1624 -0.2541
17065TIP3   OH272685   6.754   1.511   1.171  0.6763  0.2500  0.0789
17065TIP3    H172686   6.692   1.451   1.212 -0.2130 -0.0932 -1.7146
17065TIP3    H272687   6.820   1.454   1.131  1.3001  0.5713  0.6213
17066TIP3   OH272688   1.484   3.135  10.601  0.4342 -0.1664 -0.1444
17066TIP3    H172689   1.580   3.133  10.598  0.4748 -0.1228  0.7834
17066TIP3    H272690   1.462   3.086  10.681 -0.1538  2.7386  1.5366
17067TIP3   OH272691   2.476   3.598  13.562  0.1967  0.6731  0.0656
17067TIP3    H172692   2.438   3.632  13.643 -0.6012  0.0699 -0.0453
17067TIP3    H272693   2.515   3.514  13.587  1.3548  1.2195  0.1470
17068TIP3   OH272694   1.404   2.465  13.370 -0.4685 -0.4436 -0.4492
17068TIP3    H172695   1.372   2.466  13.460 -2.0466 -1.6149 -0.9811
17068TIP3    H272696   1.325   2.456  13.316  0.4944 -0.2485 -1.9251
17069TIP3   OH272697   3.732   4.488   2.411  0.0759 -0.4440  0.0885
17069TIP3    H172698   3.773   4.429   2.474  0.0542 -0.5652 -0.0097
17069TIP3    H272699   3.756   4.576   2.441 -0.0536 -0.4960  0.3441
17070TIP3   OH272700   1.697   0.595  16.194  0.2269  0.0008 -0.2184
17070TIP3    H172701   1.666   0.680  16.163 -1.4997 -0.7390 -0.5507
17070TIP3    H272702   1.624   0.535  16.179  0.9261 -1.2727  1.2501
17071TIP3   OH272703   2.853   3.184   3.253 -0.4396  0.5138  0.0871
17071TIP3    H172704   2.809   3.120   3.308 -1.6192  1.4701  0.2950
17071TIP3    H272705   2.852   3.265   3.305  0.3565  0.8821 -0.4625
17072TIP3   OH272706   4.581   0.247  14.464  0.1139 -0.5376  0.2618
17072TIP3    H172707   4.514   0.243  14.396  0.4185  1.6494 -0.1883
17072TIP3    H272708   4.534   0.224  14.545 -0.6259 -1.4073 -0.3977
17073TIP3   OH272709   0.241   0.910  10.445  0.2211 -0.0313 -0.0925
17073TIP3    H172710   0.192   0.988  10.420  0.8954  0.5957  0.4842
17073TIP3    H272711   0.207   0.886  10.531 -0.6704 -0.9612 -0.7032
17074TIP3   OH272712   1.291   6.435  10.708  0.1314  0.0347 -0.5553
17074TIP3    H172713   1.368   6.380  10.715  0.8555  1.0298 -0.6261
17074TIP3    H272714   1.305   6.506  10.770  0.6974  1.8767 -2.7208
17075TIP3   OH272715   0.586   3.705   2.209 -0.5505 -0.0174 -0.2003
17075TIP3    H172716   0.638   3.778   2.175 -0.6296  0.8604  1.5116
17075TIP3    H272717   0.497   3.740   2.216 -0.8193 -0.6361 -0.4677
17076TIP3   OH272718   1.687   1.363   6.001 -0.7635 -0.0347 -0.1424
17076TIP3    H172719   1.627   1.434   5.979 -0.2257  0.6806  0.6646
17076TIP3    H272720   1.731   1.392   6.081  0.6842 -0.5124 -0.7330
17077TIP3   OH272721   3.211   4.785   1.373  0.0542  0.3613 -0.0664
17077TIP3    H172722   3.166   4.866   1.348  2.0515  1.5322 -0.0600
17077TIP3    H272723   3.199   4.779   1.468  1.0545  1.4067  0.1358
17078TIP3   OH272724   3.439   5.785  15.112  0.4083  0.1736  0.3457
17078TIP3    H172725   3.354   5.812  15.078  0.6628  0.6712  0.0986
17078TIP3    H272726   3.473   5.725  15.045  0.6630  0.7131 -0.0092
17079TIP3   OH272727   0.969   2.877  16.526 -0.6806  0.3781 -0.1518
17079TIP3    H172728   0.983   2.800  16.470  0.7830  1.3983 -1.2352
17079TIP3    H272729   1.053   2.923  16.523 -0.2546 -0.0451  3.6956
17080TIP3   OH272730   2.478   5.010   4.286 -0.2861  0.0145  0.6631
17080TIP3    H172731   2.545   5.077   4.298  0.4520 -0.3106 -1.3756
17080TIP3    H272732   2.519   4.929   4.316 -0.2051  0.0218  0.5705
17081TIP3   OH272733   1.272   3.486   3.786 -0.4443  0.5202  0.5954
17081TIP3    H172734   1.250   3.559   3.729 -0.4554 -0.4903 -0.7070
17081TIP3    H272735   1.244   3.408   3.738  0.7374 -0.4275  1.3960
17082TIP3   OH272736   2.040   0.122   1.218 -0.2646  0.4500  0.1603
17082TIP3    H172737   2.099   0.051   1.242 -0.7297 -0.4365 -1.2636
17082TIP3    H272738   2.088   0.171   1.150 -0.6528  0.4522 -0.1160
17083TIP3   OH272739   5.718   0.018   6.003  0.0473 -0.3538 -0.4844
17083TIP3    H172740   5.698  -0.023   6.086 -0.1312 -1.0096 -0.8508
17083TIP3    H272741   5.668  -0.032   5.938  1.4768 -0.8957 -1.1986
17084TIP3   OH272742   1.155   0.668   3.892 -0.0298 -0.2188  0.8275
17084TIP3    H172743   1.215   0.626   3.954  2.1294  0.4793 -0.7491
17084TIP3    H272744   1.181   0.760   3.892 -0.2195 -0.1491 -0.8702
17085TIP3   OH272745   0.531   0.960  11.524  0.2158  0.1967  0.0889
17085TIP3    H172746   0.477   1.015  11.581  1.5201  0.8018  0.7509
17085TIP3    H272747   0.507   0.871  11.549 -0.6478  0.4532  0.2194
17086TIP3   OH272748   4.202   3.046   5.295  0.4896  0.6409 -0.0004
17086TIP3    H172749   4.198   3.111   5.224 -2.3336  0.2912 -0.1998
17086TIP3    H272750   4.153   3.086   5.367  0.0596 -0.6145  0.4200
17087TIP3   OH272751   2.028   2.430  14.928 -0.0341  0.6112 -0.4547
17087TIP3    H172752   2.032   2.493  14.856  2.0828  0.6221 -0.3621
17087TIP3    H272753   1.983   2.477  14.999 -0.3550  1.2801 -1.0932
17088TIP3   OH272754   6.555   4.517  16.855 -0.1684  0.4268  0.1456
17088TIP3    H172755   6.505   4.472  16.786 -1.8809  0.2420  1.4693
17088TIP3    H272756   6.536   4.468  16.935 -0.0220  1.9700  1.1579
17089TIP3   OH272757   4.802   5.309   0.030  0.4085  0.7919 -0.1092
17089TIP3    H172758   4.854   5.321  -0.050  0.6824  0.1059 -0.0355
17089TIP3    H272759   4.864   5.326   0.101  0.5652 -0.1628 -0.0164
17090TIP3   OH272760   2.022   4.437   6.595  0.0528  0.0960  0.3009
17090TIP3    H172761   1.942   4.453   6.545  0.2454 -1.2368 -0.4544
17090TIP3    H272762   2.003   4.361   6.649  0.9013 -0.4357 -0.1237
17091TIP3   OH272763   4.121   5.608   1.861  0.4593  0.0175 -0.3103
17091TIP3    H172764   4.128   5.622   1.956  0.6903 -1.2431 -0.1248
17091TIP3    H272765   4.032   5.634   1.839  0.2887 -0.0159  0.3219
17092TIP3   OH272766   5.646   0.070   2.906  0.0409 -0.0104  0.2826
17092TIP3    H172767   5.709   0.039   2.971 -0.3091  0.3707  0.8075
17092TIP3    H272768   5.571   0.012   2.916  0.2681 -0.4209 -0.2975
17093TIP3   OH272769   2.318   1.841  13.614 -0.1606  0.4771 -0.5434
17093TIP3    H172770   2.232   1.865  13.579 -1.1752 -0.5232  1.1819
17093TIP3    H272771   2.369   1.814  13.538 -0.9728  2.2422 -1.7425
17094TIP3   OH272772   1.704   0.641  12.930 -1.0266 -0.5544 -0.8096
17094TIP3    H172773   1.760   0.635  13.007 -0.6608  1.7693 -0.8404
17094TIP3    H272774   1.717   0.559  12.884  2.1171 -0.1920 -0.6500
17095TIP3   OH272775   6.105   1.754  11.315  0.1641  0.3656 -0.2390
17095TIP3    H172776   6.111   1.801  11.232  0.8697 -0.4843 -0.6847
17095TIP3    H272777   6.055   1.812  11.372 -0.6824  0.7854 -1.3787
17096TIP3   OH272778   3.625   2.213   2.734 -0.1059  0.8533  0.5020
17096TIP3    H172779   3.684   2.168   2.674 -1.4876 -0.3256  0.0071
17096TIP3    H272780   3.681   2.277   2.779  1.3558  0.3586 -0.5716
17097TIP3   OH272781   1.127   4.477   2.639  0.4536  0.3715  0.5529
17097TIP3    H172782   1.139   4.495   2.732  0.2248  2.7493  0.1507
17097TIP3    H272783   1.032   4.464   2.629  0.2006  2.2774  0.3158
17098TIP3   OH272784   3.573   1.482  13.436 -0.2167  0.0200  0.4154
17098TIP3    H172785   3.599   1.542  13.367 -1.2964 -2.1638 -1.9610
17098TIP3    H272786   3.556   1.399  13.391 -0.9654 -1.4563  3.2899
17099TIP3   OH272787   6.819   0.034  17.208  0.1676 -0.3302 -0.5762
17099TIP3    H172788   6.785  -0.049  17.240 -0.6018  0.2720  0.2096
17099TIP3    H272789   6.910   0.016  17.185  0.1022 -1.3007 -0.0960
17100TIP3   OH272790   4.673   3.486   2.002  0.7774  0.4328  0.3263
17100TIP3    H172791   4.725   3.507   2.080  0.0424  0.1874  0.8871
17100TIP3    H272792   4.623   3.408   2.026  0.5739  0.3273 -0.4070
17101TIP3   OH272793   2.286   2.951  16.242  0.0062  0.1491  0.4498
17101TIP3    H172794   2.232   2.889  16.194  2.4322 -1.5998 -0.1317
17101TIP3    H272795   2.349   2.896  16.290  0.4341  2.0435  2.1627
17102TIP3   OH272796   0.461   5.569   5.515  0.6259 -0.3300 -0.5474
17102TIP3    H172797   0.477   5.534   5.427  1.5580 -0.2728 -0.4075
17102TIP3    H272798   0.366   5.567   5.525  0.5326 -0.5784 -1.4602
17103TIP3   OH272799   4.085   1.017   2.816  0.3146 -0.6125 -0.4862
17103TIP3    H172800   4.058   1.003   2.725 -1.9208 -2.0792  0.3402
17103TIP3    H272801   4.033   1.092   2.845  0.3759 -0.6937 -0.1651
17104TIP3   OH272802   1.637   5.494  16.057  0.9212 -0.0623 -0.5278
17104TIP3    H172803   1.606   5.404  16.055 -0.5054  0.3815  0.8991
17104TIP3    H272804   1.559   5.547  16.043  1.9537  0.9529 -2.7495
17105TIP3   OH272805   1.730   4.537  14.290  0.3253 -0.5852 -0.1197
17105TIP3    H172806   1.640   4.560  14.266  0.6213  0.2054 -0.4927
17105TIP3    H272807   1.730   4.441  14.293 -0.4182 -0.6043 -0.5636
17106TIP3   OH272808   4.829   4.338  17.116 -0.1381  0.3584  0.8782
17106TIP3    H172809   4.792   4.276  17.053 -0.3714 -0.3730  1.7282
17106TIP3    H272810   4.775   4.416  17.107 -0.6442 -0.0111  0.7092
17107TIP3   OH272811   1.322   1.813   0.093 -0.4004 -0.0459 -0.0128
17107TIP3    H172812   1.294   1.788   0.005  1.1441 -1.6506 -0.0792
17107TIP3    H272813   1.339   1.729   0.137 -0.5053  0.7566  1.6065
17108TIP3   OH272814   4.700   6.249   0.304 -0.9459 -0.6235 -0.2218
17108TIP3    H172815   4.619   6.211   0.339 -0.2535  0.2118  2.3715
17108TIP3    H272816   4.760   6.175   0.294 -1.2628 -0.9172  0.0423
17109TIP3   OH272817   0.884   3.549   2.070 -0.0994  0.3099  0.2367
17109TIP3    H172818   0.829   3.481   2.108  0.3461 -0.8333 -1.1061
17109TIP3    H272819   0.973   3.514   2.077  0.0036  0.1549 -1.6678
17110TIP3   OH272820   2.357   5.094   2.143 -0.6422  0.6631 -0.0214
17110TIP3    H172821   2.302   5.171   2.139 -2.0264 -0.2238  1.3341
17110TIP3    H272822   2.388   5.091   2.234 -0.6242 -0.3813 -0.0520
17111TIP3   OH272823   2.119   4.243   3.266 -0.6227 -0.0901 -0.3308
17111TIP3    H172824   2.065   4.312   3.305 -0.0009 -0.1867  0.7221
17111TIP3    H272825   2.167   4.288   3.196  0.1186  0.6552  0.6423
17112TIP3   OH272826   0.940   3.121   3.733  0.2520 -0.1901 -0.3537
17112TIP3    H172827   0.849   3.105   3.757  0.1551 -0.7180 -1.0752
17112TIP3    H272828   0.987   3.123   3.817 -0.5986  1.2701  0.1076
17113TIP3   OH272829   5.964   6.458  16.949  0.0023  0.1228 -0.1259
17113TIP3    H172830   5.946   6.551  16.936  2.1311  0.6622  0.4639
17113TIP3    H272831   6.032   6.456  17.017  2.2459 -1.6791 -2.3066
17114TIP3   OH272832   1.428   1.679   5.325 -0.5336 -0.4868  0.1099
17114TIP3    H172833   1.502   1.644   5.375 -0.6571 -2.0662 -0.7569
17114TIP3    H272834   1.452   1.770   5.307  0.8113 -0.7393  0.5719
17115TIP3   OH272835   3.990   4.166   0.846  0.4731  0.4208  0.7653
17115TIP3    H172836   3.971   4.148   0.938  2.0331  0.4074  1.0937
17115TIP3    H272837   3.999   4.079   0.806 -0.4041  0.4261  0.5595
17116TIP3   OH272838   5.128   3.352   4.818  0.5783  0.3437 -0.6913
17116TIP3    H172839   5.147   3.321   4.730 -0.4782 -1.5848 -0.2661
17116TIP3    H272840   5.040   3.391   4.811  0.2359 -0.3602 -0.3740
17117TIP3   OH272841   5.637   6.326   3.995 -0.0532  0.4601 -0.0550
17117TIP3    H172842   5.597   6.290   4.075  1.8869  2.2471  1.7744
17117TIP3    H272843   5.562   6.344   3.937 -1.6385  0.6142  1.9845
17118TIP3   OH272844   4.053   4.591  14.541  0.1838  0.6623  0.0568
17118TIP3    H172845   4.079   4.682  14.555 -1.2844  1.1401 -0.2267
17118TIP3    H272846   3.958   4.591  14.554  0.0902 -0.7011 -0.5619
17119TIP3   OH272847   4.663   5.488   1.657  0.0059 -0.3378  0.0444
17119TIP3    H172848   4.754   5.520   1.663 -0.1025  0.2994 -1.4474
17119TIP3    H272849   4.672   5.398   1.626  0.1980 -0.9029  1.7000
17120TIP3   OH272850   6.667   4.247   0.262 -0.0261  0.8787 -0.4222
17120TIP3    H172851   6.595   4.203   0.307 -0.2471 -0.2437 -1.8652
17120TIP3    H272852   6.664   4.214   0.173  1.8789  1.3161 -0.6680
17121TIP3   OH272853   1.638   1.398  14.901  0.5139  0.1033 -0.2042
17121TIP3    H172854   1.730   1.384  14.921  0.4417 -2.5528 -1.5759
17121TIP3    H272855   1.636   1.418  14.807 -0.2250  1.0062 -0.0006
17122TIP3   OH272856   0.680   2.234  12.153  0.1154  0.5334  0.6169
17122TIP3    H172857   0.748   2.170  12.135  0.2508  0.9244 -0.2521
17122TIP3    H272858   0.599   2.183  12.155  0.0851  0.4883 -1.1583
17123TIP3   OH272859   0.004   5.155   5.255  0.4548 -0.0323 -0.5127
17123TIP3    H172860   0.094   5.181   5.232  0.9471 -0.9274  0.3690
17123TIP3    H272861  -0.003   5.176   5.348  0.3382 -1.5751 -0.1586
17124TIP3   OH272862   3.594   4.592  17.216 -0.0141  0.0367 -0.4253
17124TIP3    H172863   3.586   4.615  17.124  2.7611 -0.4121 -0.7982
17124TIP3    H272864   3.580   4.497  17.218  1.8969 -0.2732 -0.6839
17125TIP3   OH272865   3.943   1.053  14.429  0.3314  0.0962 -0.1680
17125TIP3    H172866   3.881   1.025  14.361  0.2900 -1.1461  0.3665
17125TIP3    H272867   4.019   1.083  14.380 -0.0982  0.1821 -0.7940
17126TIP3   OH272868   2.337   3.580   5.233 -0.5148 -0.0470 -0.0484
17126TIP3    H172869   2.318   3.622   5.149  0.8608 -0.5049 -0.6112
17126TIP3    H272870   2.412   3.628   5.268  0.0745 -1.0246  0.0453
17127TIP3   OH272871   6.706   0.243   2.436  0.3850  0.3878 -0.0055
17127TIP3    H172872   6.769   0.175   2.460  0.6512  0.7707  0.3825
17127TIP3    H272873   6.754   0.302   2.378 -0.2157 -0.4548 -1.3850
17128TIP3   OH272874   0.008   4.033   3.324 -0.3114 -0.0784 -0.1846
17128TIP3    H172875  -0.058   3.971   3.292 -0.7879  0.9166 -1.2194
17128TIP3    H272876   0.014   4.098   3.254  0.7038  0.6401  0.5611
17129TIP3   OH272877   4.354   0.053   4.623 -0.1904 -0.1285  0.4101
17129TIP3    H172878   4.442   0.058   4.661 -0.0935 -0.0816  0.1832
17129TIP3    H272879   4.325  -0.037   4.640  0.3100 -0.4544 -0.4116
17130TIP3   OH272880   4.593   0.488  10.908 -0.1391  0.1153  0.1555
17130TIP3    H172881   4.515   0.491  10.964 -0.1546 -0.7069  0.1808
17130TIP3    H272882   4.568   0.431  10.835  0.6656 -0.7315  0.5244
17131TIP3   OH272883   3.544   2.721  12.399  0.5382  0.3290 -0.2979
17131TIP3    H172884   3.551   2.797  12.340  0.4967  0.8973  0.4242
17131TIP3    H272885   3.602   2.742  12.472  0.8932 -0.5513 -0.3146
17132TIP3   OH272886   1.897   4.256   2.108  0.1181 -0.4578  0.0150
17132TIP3    H172887   1.887   4.290   2.019  0.3192 -2.0313 -0.6343
17132TIP3    H272888   1.890   4.161   2.098  0.5917 -0.6771  1.6235
17133TIP3   OH272889   0.573   2.789  15.265 -0.2671 -0.5614 -0.4707
17133TIP3    H172890   0.599   2.838  15.187 -1.5511  0.4599 -0.2869
17133TIP3    H272891   0.530   2.711  15.230  1.6035 -1.4755 -0.7667
17134TIP3   OH272892   3.968   5.329  11.354  0.1636  0.6233  0.0554
17134TIP3    H172893   3.962   5.315  11.259 -1.3846 -0.6180  0.3107
17134TIP3    H272894   3.879   5.311  11.386  1.1218 -0.7613  1.9699
17135TIP3   OH272895   3.137   6.328  12.197 -0.5279 -0.0355  0.3316
17135TIP3    H172896   3.194   6.321  12.121  2.6548  0.7320  2.5540
17135TIP3    H272897   3.136   6.240  12.235 -2.6750 -0.5887 -0.9313
17136TIP3   OH272898   5.221   5.959  13.423  0.4155  0.1360 -0.6227
17136TIP3    H172899   5.212   5.864  13.426  0.0422  0.1878 -0.0503
17136TIP3    H272900   5.133   5.992  13.437  0.7568  0.5896  0.4792
17137TIP3   OH272901   4.469   3.457  14.710 -0.2942 -0.0560  0.5860
17137TIP3    H172902   4.503   3.456  14.799 -2.2647 -0.4463  1.3545
17137TIP3    H272903   4.430   3.544  14.700 -1.7281 -0.6523  0.7734
17138TIP3   OH272904   1.146   2.472   6.205  0.1421 -0.1282 -0.5358
17138TIP3    H172905   1.191   2.544   6.159  0.1912 -1.5994 -2.8708
17138TIP3    H272906   1.179   2.393   6.162 -1.6730 -1.4294  0.4484
17139TIP3   OH272907   2.684   2.712   5.400 -0.0755 -0.0224 -0.0983
17139TIP3    H172908   2.660   2.620   5.410 -0.1920  0.2222  1.9173
17139TIP3    H272909   2.666   2.752   5.485  0.8672  1.6692 -0.6662
17140TIP3   OH272910   2.258   5.007   3.665  0.4664 -0.1923 -0.0764
17140TIP3    H172911   2.275   4.917   3.639  1.3193  0.0274 -0.2943
17140TIP3    H272912   2.299   5.016   3.751  1.3780  0.2985 -0.5455
17141TIP3   OH272913   3.309   1.867  15.216 -0.5160 -0.1581  0.0242
17141TIP3    H172914   3.324   1.773  15.201 -0.4360 -0.1521  0.0664
17141TIP3    H272915   3.371   1.910  15.157 -0.5139 -0.1322  0.0448
17142TIP3   OH272916   1.095   4.608  12.862 -0.4727  0.0470 -0.5688
17142TIP3    H172917   1.166   4.558  12.822  0.8873  2.5402 -1.3467
17142TIP3    H272918   1.115   4.608  12.955  0.5667  0.7986 -0.7965
17143TIP3   OH272919   3.193   0.133  13.185  0.1887 -0.5981  0.1625
17143TIP3    H172920   3.142   0.053  13.195 -1.0586  0.1348 -0.1946
17143TIP3    H272921   3.128   0.203  13.188  1.1880  0.3575 -0.2079
17144TIP3   OH272922   4.892   0.627   3.803 -0.1134 -0.4081 -0.5909
17144TIP3    H172923   4.843   0.673   3.871 -0.6252 -1.1796 -0.4334
17144TIP3    H272924   4.829   0.565   3.765  1.0663 -2.3725  0.5342
17145TIP3   OH272925   5.736   4.183   6.867  0.7080  0.1628  0.0088
17145TIP3    H172926   5.674   4.228   6.926  2.5027 -1.5020  3.3242
17145TIP3    H272927   5.682   4.119   6.821 -0.5007  0.3529  1.1084
17146TIP3   OH272928   5.196   0.603   6.419 -0.2068  0.1696  0.2294
17146TIP3    H172929   5.201   0.519   6.373  1.4079  1.2475 -1.6435
17146TIP3    H272930   5.267   0.600   6.483 -0.9548 -0.3837  1.0433
17147TIP3   OH272931   1.768   0.193  15.922  0.0565  0.3165 -0.2465
17147TIP3    H172932   1.732   0.211  16.009  0.5116  1.9344 -0.3799
17147TIP3    H272933   1.729   0.110  15.897  0.7223 -0.7142  1.9476
17148TIP3   OH272934   4.905   6.492  16.512 -0.3908 -0.4069 -0.3277
17148TIP3    H172935   4.993   6.491  16.473  0.5326 -0.0106  1.6735
17148TIP3    H272936   4.896   6.406  16.552 -1.4736 -0.9398 -1.6852
17149TIP3   OH272937   4.285   4.004   4.807  0.4124  0.6008 -0.1265
17149TIP3    H172938   4.380   3.994   4.793  0.1994  0.3165 -1.4892
17149TIP3    H272939   4.276   4.090   4.847  1.1512  1.2103 -1.2411
17150TIP3   OH272940   6.542   6.072  14.012  0.0609  0.0805  1.0959
17150TIP3    H172941   6.583   5.996  13.971 -0.0041 -0.4052  1.9213
17150TIP3    H272942   6.480   6.104  13.946  2.0580  1.1089 -0.3622
17151TIP3   OH272943   0.207   4.266   3.721 -0.1017  0.3065  0.3431
17151TIP3    H172944   0.194   4.357   3.695  1.0756  0.0693 -1.1092
17151TIP3    H272945   0.202   4.216   3.640  0.1101 -0.8209  1.0144
17152TIP3   OH272946   2.220   0.525  15.827 -0.2094  0.1697 -0.1491
17152TIP3    H172947   2.131   0.499  15.850  0.4309 -0.8596  1.3441
17152TIP3    H272948   2.211   0.611  15.786 -1.7060  0.9865  1.8066
17153TIP3   OH272949   6.556   3.384   6.542  0.0086 -0.1115 -0.5056
17153TIP3    H172950   6.647   3.375   6.515  0.8254  0.4409  1.9922
17153TIP3    H272951   6.536   3.477   6.527 -0.3638 -0.3643 -1.6479
17154TIP3   OH272952   6.222   0.392  10.464 -0.1979  0.2090  0.0575
17154TIP3    H172953   6.170   0.390  10.384 -1.1053  0.3768  0.6400
17154TIP3    H272954   6.161   0.370  10.534  0.4838  0.5255  0.7661
17155TIP3   OH272955   1.261   0.071   3.847  0.1381 -0.3181 -0.6922
17155TIP3    H172956   1.234   0.162   3.847  1.5817  0.1229 -0.1670
17155TIP3    H272957   1.356   0.074   3.840  0.1991 -1.7840 -0.7068
17156TIP3   OH272958   3.132   6.598  15.960  0.4374  0.5843  0.4060
17156TIP3    H172959   3.058   6.629  15.908 -0.1217  1.3527  1.6533
17156TIP3    H272960   3.110   6.507  15.981  0.2163  0.5707  0.1255
17157TIP3   OH272961   5.742   6.363   3.231 -0.4439 -0.3924  0.2302
17157TIP3    H172962   5.777   6.285   3.274  1.4647  0.6825  0.6779
17157TIP3    H272963   5.649   6.364   3.255 -0.2616 -1.9699  1.0557
17158TIP3   OH272964   4.540   3.318   2.685 -0.4585 -0.2376 -0.2736
17158TIP3    H172965   4.516   3.228   2.661 -1.2836  0.0723 -0.6366
17158TIP3    H272966   4.617   3.337   2.631 -2.0315  0.2926 -2.3701
17159TIP3   OH272967   6.571   4.716   4.516 -0.1759 -0.5574  0.4861
17159TIP3    H172968   6.532   4.666   4.588 -0.3584 -1.1309 -0.0060
17159TIP3    H272969   6.544   4.806   4.532 -2.3293 -1.0420 -0.2625
17160TIP3   OH272970   2.380   4.507   3.617  0.2772  0.4014 -0.3040
17160TIP3    H172971   2.384   4.412   3.606  1.3255  0.1962  1.7173
17160TIP3    H272972   2.468   4.532   3.647  0.6129  2.2800 -2.6811
17161TIP3   OH272973   4.164   1.244  13.157  0.3560 -0.0087  0.7130
17161TIP3    H172974   4.129   1.329  13.131 -1.3809 -0.4754  1.4645
17161TIP3    H272975   4.254   1.262  13.184  0.9478  1.1153 -1.8636
17162TIP3   OH272976   3.962   6.782   3.659 -0.3468 -0.7646  0.1816
17162TIP3    H172977   3.872   6.815   3.661 -0.5534 -1.3308  0.3633
17162TIP3    H272978   3.954   6.693   3.625  0.1632 -0.7675  0.0665
17163TIP3   OH272979   3.246   2.805   3.638 -0.3191  0.2211  0.5241
17163TIP3    H172980   3.295   2.759   3.706 -0.7852 -0.2374  0.5523
17163TIP3    H272981   3.154   2.791   3.661 -0.4727  0.4215  0.0391
17164TIP3   OH272982   6.325   6.806   5.337 -0.6334  0.5704 -0.0580
17164TIP3    H172983   6.244   6.786   5.385  0.1353 -0.4303  0.8604
17164TIP3    H272984   6.355   6.889   5.373 -1.0183  0.7207 -0.0840
17165TIP3   OH272985   5.455   3.560   2.229 -0.1241 -0.1665 -0.2479
17165TIP3    H172986   5.491   3.620   2.165 -2.6658  1.4561 -0.2262
17165TIP3    H272987   5.375   3.603   2.260 -0.5342 -2.2964  1.7839
17166TIP3   OH272988   5.720   2.403  12.105 -0.7096 -0.0933 -0.0528
17166TIP3    H172989   5.643   2.377  12.055 -2.2426 -0.8614  2.6126
17166TIP3    H272990   5.767   2.322  12.122 -1.4387 -0.1856  1.6840
17167TIP3   OH272991   3.894   5.971  17.146  0.2823  0.3297  0.4296
17167TIP3    H172992   3.842   6.046  17.118  1.5902  0.8852 -0.5431
17167TIP3    H272993   3.885   5.907  17.075  0.4779  0.2019  0.5178
17168TIP3   OH272994   0.046   1.165  15.414  0.1598 -0.0833  0.5910
17168TIP3    H172995   0.089   1.091  15.457  0.7816  0.3828  0.7839
17168TIP3    H272996   0.006   1.214  15.486 -1.8969 -1.2770  0.2760
17169TIP3   OH272997   1.895   4.735  15.734 -0.0497 -0.4601 -0.1971
17169TIP3    H172998   1.838   4.807  15.709  0.4363 -0.2037 -0.5591
17169TIP3    H272999   1.838   4.676  15.783 -0.3727  0.3357  0.4045
17170TIP3   OH273000   0.692   2.630   4.166 -0.0082  0.0968 -0.4065
17170TIP3    H173001   0.725   2.696   4.227 -1.2524  0.6205 -0.2721
17170TIP3    H273002   0.641   2.570   4.221 -1.8877  1.0701 -1.0180
17171TIP3   OH273003   5.057   1.208   0.031  0.1833 -0.4848  0.2746
17171TIP3    H173004   4.972   1.196   0.074  0.2492 -3.4898 -0.3649
17171TIP3    H273005   5.110   1.135   0.062  3.0784  2.1842  1.8105
17172TIP3   OH273006   4.955   4.305   3.174 -0.0065  0.8292 -0.1164
17172TIP3    H173007   4.907   4.249   3.113  0.5856 -2.3484  2.2167
17172TIP3    H273008   4.893   4.320   3.246  0.4694  1.6790  0.1144
17173TIP3   OH273009   0.083   0.488  14.543  0.0691 -0.0470 -0.3188
17173TIP3    H173010   0.151   0.421  14.547 -0.0135 -0.1046  0.1911
17173TIP3    H273011   0.019   0.460  14.609 -0.3953  0.0618 -0.7263
17174TIP3   OH273012   1.555   6.285  14.353 -0.1715  0.5131  0.5557
17174TIP3    H173013   1.607   6.352  14.308 -0.1753  1.0324  1.3091
17174TIP3    H273014   1.602   6.270  14.435  1.0598 -2.0419 -0.5441
17175TIP3   OH273015   6.469   4.233  11.649  0.0308  0.1954 -0.3658
17175TIP3    H173016   6.418   4.313  11.664  1.0990  0.6296  1.1336
17175TIP3    H273017   6.554   4.251  11.692 -0.6767 -2.7867  2.4811
17176TIP3   OH273018   5.918   6.089  12.467 -0.4342  0.0277 -0.5404
17176TIP3    H173019   5.847   6.030  12.492 -1.0192  0.7590 -0.4753
17176TIP3    H273020   5.928   6.148  12.542 -0.0820  0.2249 -0.7433
17177TIP3   OH273021   5.709   6.268   4.557  0.4660  0.4408  0.2602
17177TIP3    H173022   5.787   6.324   4.559  0.0420  1.0165  1.4463
17177TIP3    H273023   5.736   6.187   4.600  0.5701  0.4163  0.1504
17178TIP3   OH273024   6.523   2.811   5.047 -0.2507 -0.5646 -0.7805
17178TIP3    H173025   6.457   2.873   5.016 -1.4194 -1.4392 -0.0824
17178TIP3    H273026   6.605   2.859   5.041 -0.5831 -0.2415 -3.9847
17179TIP3   OH273027   3.192   4.224   3.931  0.4612  0.0663  0.1525
17179TIP3    H173028   3.263   4.247   3.991  1.2872 -1.1571 -0.3395
17179TIP3    H273029   3.234   4.218   3.845  0.0456 -1.9826  0.0663
17180TIP3   OH273030   6.445   1.585  12.213 -0.8757  0.3140  0.2349
17180TIP3    H173031   6.399   1.575  12.129 -0.8862 -1.6387  0.4523
17180TIP3    H273032   6.531   1.618  12.189 -1.2212  0.7378 -0.4598
17181TIP3   OH273033   2.592   0.563   3.419 -0.2511 -0.0864 -0.1708
17181TIP3    H173034   2.513   0.602   3.455  0.1416 -0.2381  0.8807
17181TIP3    H273035   2.661   0.588   3.480  0.3285 -0.8031 -0.5211
17182TIP3   OH273036   4.500   3.861   0.863 -0.3260 -0.0533 -0.4096
17182TIP3    H173037   4.439   3.856   0.937 -0.2743 -0.6011 -0.3972
17182TIP3    H273038   4.476   3.941   0.817  1.0013  1.4148  1.3758
17183TIP3   OH273039   2.946   3.567  14.422 -0.9387 -0.9883 -0.1845
17183TIP3    H173040   2.881   3.636  14.436  0.0615 -0.1270  0.2455
17183TIP3    H273041   2.899   3.499  14.374 -1.6228  0.4633 -1.5856
17184TIP3   OH273042   5.043   2.797  11.661  0.0841  0.4119  0.2419
17184TIP3    H173043   4.981   2.748  11.606 -1.0745 -1.1371  2.8268
17184TIP3    H273044   4.990   2.864  11.703  0.8523  1.2430 -0.1010
17185TIP3   OH273045   0.896   5.841  16.280 -0.1504  0.0740  0.3994
17185TIP3    H173046   0.943   5.880  16.206  0.3779  1.2341  1.3373
17185TIP3    H273047   0.946   5.763  16.303 -1.3709 -1.3762 -1.6742
17186TIP3   OH273048   3.964   1.371  13.605  0.1091 -0.3035 -0.1510
17186TIP3    H173049   3.961   1.296  13.546 -0.4656 -0.7186  0.4120
17186TIP3    H273050   3.889   1.425  13.580 -0.1172 -0.4644  0.1849
17187TIP3   OH273051   1.882   3.467   3.872  0.0304 -0.1894 -0.1762
17187TIP3    H173052   1.969   3.506   3.871  1.2852 -2.9033 -0.7408
17187TIP3    H273053   1.883   3.404   3.801 -1.6570 -1.8195  1.1907
17188TIP3   OH273054   1.305   0.733   2.838 -0.2815 -0.1546 -1.0176
17188TIP3    H173055   1.291   0.646   2.876 -1.4825 -1.1686 -3.6892
17188TIP3    H273056   1.390   0.727   2.795  0.8006  0.8077  0.9404
17189TIP3   OH273057   0.029   3.810  11.994  0.5635 -0.3880  0.2780
17189TIP3    H173058  -0.015   3.895  12.002  0.9279 -0.2309  0.6464
17189TIP3    H273059  -0.031   3.748  12.036  0.0038 -0.4188 -0.5538
17190TIP3   OH273060   3.211   5.946  17.035  0.5608  0.1358  0.2969
17190TIP3    H173061   3.180   5.937  17.125  1.5637 -2.2508  0.4388
17190TIP3    H273062   3.154   5.889  16.984  0.7397  0.5679 -0.4013
17191TIP3   OH273063   1.278   1.502   3.260  0.1790 -0.2094 -0.1010
17191TIP3    H173064   1.330   1.519   3.338  1.1894  2.5672 -1.3283
17191TIP3    H273065   1.200   1.556   3.271 -0.5093 -1.1579 -0.2234
17192TIP3   OH273066   2.900   0.168  16.660  0.0585  0.2783  0.2969
17192TIP3    H173067   2.931   0.120  16.737  1.5035  1.0903  0.2233
17192TIP3    H273068   2.924   0.113  16.586  1.6695  1.0724  0.2171
17193TIP3   OH273069   1.101   0.717   5.186  0.1013  0.0187  0.9425
17193TIP3    H173070   1.068   0.799   5.221 -0.2062  0.2255  0.1772
17193TIP3    H273071   1.048   0.701   5.107  2.6359  1.0145 -1.0568
17194TIP3   OH273072   6.367   2.416   4.817 -0.5539  0.2038 -0.1741
17194TIP3    H173073   6.408   2.419   4.903  1.1420  1.0018 -0.9819
17194TIP3    H273074   6.285   2.465   4.827 -0.7111 -0.3210  1.1491
17195TIP3   OH273075   4.384   2.130  10.827 -0.7398 -0.2748 -0.4781
17195TIP3    H173076   4.479   2.120  10.828 -0.7079 -0.0632  2.5440
17195TIP3    H273077   4.369   2.224  10.816 -0.4425  0.3641  3.7009
17196TIP3   OH273078   3.197   0.419   5.187 -0.1211 -0.1702  0.2214
17196TIP3    H173079   3.147   0.369   5.251 -0.6789  0.6629  0.4315
17196TIP3    H273080   3.288   0.401   5.209 -0.2975  0.7744  1.7682
17197TIP3   OH273081   1.210   3.655   5.555  0.1859 -0.7057  0.1015
17197TIP3    H173082   1.247   3.583   5.607 -0.2681 -2.1611 -1.5609
17197TIP3    H273083   1.115   3.650   5.572  0.2274  0.0053  0.5845
17198TIP3   OH273084   1.553   4.582   1.484 -0.6984 -0.8703  0.0003
17198TIP3    H173085   1.629   4.535   1.518  0.1865 -0.5945 -1.5250
17198TIP3    H273086   1.495   4.513   1.451 -0.4129 -1.0101 -0.2108
17199TIP3   OH273087   2.543   3.458   3.028 -0.0975 -0.6236 -0.5120
17199TIP3    H173088   2.635   3.434   3.035  0.7682  2.4617 -0.2544
17199TIP3    H273089   2.505   3.430   3.112  1.5379  1.5532  1.0370
17200TIP3   OH273090   0.436   2.771   0.014 -0.1215  0.0651 -0.0867
17200TIP3    H173091   0.504   2.810   0.068 -0.5569  0.5998  0.0795
17200TIP3    H273092   0.354   2.807   0.048 -0.4091  0.2892 -0.9948
17201TIP3   OH273093   0.584   3.220   4.086 -0.6538  0.3035  0.1782
17201TIP3    H173094   0.559   3.269   4.164 -0.3600  1.0767 -0.2070
17201TIP3    H273095   0.666   3.260   4.058  0.1190 -1.0671  0.4269
17202TIP3   OH273096   2.331   6.759   4.809 -0.5740  0.2057  0.5072
17202TIP3    H173097   2.343   6.688   4.872  0.4048  0.7249  0.9146
17202TIP3    H273098   2.335   6.839   4.861 -0.3322  0.6194 -0.1322
17203TIP3   OH273099   2.969   2.810   3.590  0.1453 -0.9067 -0.3760
17203TIP3    H173100   2.965   2.726   3.544 -0.6089 -0.7180 -0.6485
17203TIP3    H273101   2.885   2.852   3.572 -0.1969 -0.8794  1.2729
17204TIP3   OH273102   5.856   2.632  11.228  0.0309  0.0175 -0.5757
17204TIP3    H173103   5.911   2.653  11.152 -0.3247  0.5820 -0.6811
17204TIP3    H273104   5.767   2.650  11.198 -0.3507 -2.1362 -0.8471
17205TIP3   OH273105   4.010   4.534   5.537 -0.5401 -0.0667 -0.5367
17205TIP3    H173106   3.956   4.561   5.463 -0.7073  1.1763  0.0149
17205TIP3    H273107   3.989   4.442   5.551 -0.3779 -0.3612 -2.1300
17206TIP3   OH273108   1.277   6.748   0.972 -0.2871  0.7211 -0.3817
17206TIP3    H173109   1.349   6.722   1.030 -1.7221  0.0750  1.1450
17206TIP3    H273110   1.252   6.835   1.003 -0.2984  0.8558 -0.7735
17207TIP3   OH273111   5.466   1.399  14.920  0.2760  0.1873 -0.8996
17207TIP3    H173112   5.465   1.455  14.842 -1.4655  0.3791 -0.7681
17207TIP3    H273113   5.426   1.454  14.988 -1.1321 -1.0803 -0.6804
17208TIP3   OH273114   3.165   5.740  15.143  0.2515  0.2579  0.5078
17208TIP3    H173115   3.147   5.832  15.162 -1.0389  0.1444 -0.0567
17208TIP3    H273116   3.110   5.721  15.066 -1.0045 -1.4851  1.8035
17209TIP3   OH273117   0.510   5.185   4.233 -0.2848 -0.3609  0.0608
17209TIP3    H173118   0.434   5.126   4.238 -0.4928 -0.1072 -0.0685
17209TIP3    H273119   0.475   5.270   4.260  0.4996 -0.7419  2.3220
17210TIP3   OH273120   4.115   0.279  11.832  0.3150 -0.2873 -0.1265
17210TIP3    H173121   4.117   0.184  11.820  1.3467 -0.5855  2.0610
17210TIP3    H273122   4.104   0.291  11.927  1.1293  1.7662 -0.2566
17211TIP3   OH273123   6.559   4.609   1.693  0.7141  0.1262  0.1158
17211TIP3    H173124   6.496   4.636   1.625 -0.5985 -0.5248  1.0500
17211TIP3    H273125   6.643   4.639   1.660 -0.1663  1.6336 -0.8502
17212TIP3   OH273126   0.843   5.651   1.605 -1.0219 -0.3536 -0.4757
17212TIP3    H173127   0.822   5.580   1.665  1.2686 -1.0191 -0.4436
17212TIP3    H273128   0.801   5.728   1.644 -0.2748 -0.9349  1.5510
17213TIP3   OH273129   5.327   0.553  10.296  1.1757 -0.1537  0.5947
17213TIP3    H173130   5.366   0.469  10.274  1.3189  0.1628 -0.3854
17213TIP3    H273131   5.397   0.600  10.342  1.3646 -0.2594  0.4162
17214TIP3   OH273132   0.188   1.648  13.432 -0.0334 -0.4338 -0.3778
17214TIP3    H173133   0.206   1.718  13.369  1.2995 -0.6978 -0.2893
17214TIP3    H273134   0.093   1.654  13.447  0.3913  2.7722  1.3423
17215TIP3   OH273135   5.792   4.757  11.741  0.2976 -0.0829 -0.0214
17215TIP3    H173136   5.709   4.717  11.713  1.1032 -1.0731 -1.0483
17215TIP3    H273137   5.798   4.837  11.689 -0.0365  0.0140  0.0874
17216TIP3   OH273138   5.741   5.929  11.420  0.6325 -0.2500  0.9659
17216TIP3    H173139   5.705   5.853  11.375  1.7133 -0.5901  0.6734
17216TIP3    H273140   5.834   5.927  11.401  0.4831  1.8604 -0.0991
17217TIP3   OH273141   1.207   3.158  15.314  0.1162  0.1893  0.4488
17217TIP3    H173142   1.164   3.137  15.232  0.2009  0.9150  0.2152
17217TIP3    H273143   1.294   3.188  15.288  1.0461 -1.9736  0.9547
17218TIP3   OH273144   3.338   5.996  13.077 -0.9707  0.2520 -0.0817
17218TIP3    H173145   3.246   6.011  13.096 -0.4737  2.0236  1.0534
17218TIP3    H273146   3.376   5.970  13.161  0.1143  2.4011  0.1205
17219TIP3   OH273147   0.284   0.039  14.275  0.5394  0.3716 -0.0024
17219TIP3    H173148   0.251   0.019  14.363  1.1651  0.1512  0.1859
17219TIP3    H273149   0.378   0.050  14.287  0.6194  0.3785 -0.6406
17220TIP3   OH273150   5.295   5.915  15.509  0.1298 -0.5398 -0.0556
17220TIP3    H173151   5.273   5.990  15.454  1.1620 -0.6922 -0.6898
17220TIP3    H273152   5.341   5.952  15.584 -1.6374 -0.2907  0.9260
17221TIP3   OH273153   3.335   1.224   0.987 -0.1035  0.6932 -0.4633
17221TIP3    H173154   3.378   1.140   0.974 -0.1650  0.5589  0.2023
17221TIP3    H273155   3.359   1.251   1.076 -0.5884  1.0823 -0.4424
17222TIP3   OH273156   3.994   5.178  14.000  0.0314 -0.2873 -0.4742
17222TIP3    H173157   4.066   5.121  14.029  0.3779 -0.5493 -1.7971
17222TIP3    H273158   3.944   5.197  14.080  2.1409  0.7257  0.6497
17223TIP3   OH273159   4.811   2.112  13.980 -0.1743 -0.4824  0.8930
17223TIP3    H173160   4.860   2.032  13.999  1.4114  0.7646  2.2083
17223TIP3    H273161   4.836   2.135  13.891 -0.3524 -1.2444  0.6460
17224TIP3   OH273162   4.924   6.352   2.440  0.2103 -0.5254 -0.1415
17224TIP3    H173163   4.940   6.259   2.455 -1.1148 -0.9031 -0.9007
17224TIP3    H273164   4.835   6.366   2.474 -0.3234  0.0267 -1.7278
17225TIP3   OH273165   5.887   0.667   6.296 -0.0045  0.4363 -0.3314
17225TIP3    H173166   5.956   0.675   6.362 -0.1751  1.5537 -0.2781
17225TIP3    H273167   5.821   0.611   6.337  0.8223 -0.5936 -0.3618
17226TIP3   OH273168   5.422   0.418  13.662  0.1500 -0.0552 -0.7386
17226TIP3    H173169   5.339   0.374  13.645 -0.9346  0.5687  2.5635
17226TIP3    H273170   5.482   0.347  13.688 -0.5962 -0.0408  1.0913
17227TIP3   OH273171   2.223   0.410   3.176  0.4392 -0.1886  0.0080
17227TIP3    H173172   2.197   0.502   3.164  0.3362 -0.3058 -0.6760
17227TIP3    H273173   2.319   0.413   3.181  0.4737 -0.1185 -0.6864
17228TIP3   OH273174   3.060   1.445   0.166  0.3535  0.6135  0.2571
17228TIP3    H173175   3.130   1.383   0.186 -0.2528 -0.4601 -0.8992
17228TIP3    H273176   2.987   1.418   0.223 -0.5960 -1.0195 -1.6823
17229TIP3   OH273177   5.709   3.706  14.743  0.1920  0.6505  0.2049
17229TIP3    H173178   5.646   3.649  14.698 -1.7060  1.3448  1.9127
17229TIP3    H273179   5.795   3.668  14.723 -0.8768 -1.2564 -0.8369
17230TIP3   OH273180   0.130   4.757   2.506 -0.2677 -0.5306  0.7225
17230TIP3    H173181   0.089   4.839   2.478  1.0385 -0.3016 -0.6028
17230TIP3    H273182   0.202   4.744   2.444  0.8988 -1.5586  2.2503
17231TIP3   OH273183   1.961   2.769  13.656  0.1545 -0.0069  0.5237
17231TIP3    H173184   1.983   2.783  13.564  0.3402  0.7476  0.6849
17231TIP3    H273185   2.041   2.732  13.694  0.0772 -0.3197  0.3845
17232TIP3   OH273186   3.344   6.520   3.533 -0.1096 -0.4900 -0.6245
17232TIP3    H173187   3.325   6.492   3.443 -0.8858 -2.2114  0.0359
17232TIP3    H273188   3.398   6.449   3.568 -0.1357 -0.0098  0.3829
17233TIP3   OH273189   0.968   0.554   0.670  0.4218 -0.5441  0.0142
17233TIP3    H173190   1.022   0.598   0.603 -0.4117  0.3089 -0.1064
17233TIP3    H273191   0.889   0.529   0.623 -2.3366  4.3411  1.6733
17234TIP3   OH273192   1.470   6.586   4.388  0.0796 -0.4605  0.1388
17234TIP3    H173193   1.403   6.518   4.377  0.6074 -0.8627 -0.6250
17234TIP3    H273194   1.533   6.548   4.449 -0.3299 -0.1163  0.7892
17235TIP3   OH273195   3.470   0.340   5.182  0.6981 -0.2402 -0.0006
17235TIP3    H173196   3.513   0.370   5.102 -1.5445  1.2596 -0.7043
17235TIP3    H273197   3.442   0.250   5.163  0.5074 -0.0191 -0.7727
17236TIP3   OH273198   1.412   5.652  11.807  0.1245  0.1422 -0.2996
17236TIP3    H173199   1.496   5.660  11.853  0.4166 -0.9630 -0.6128
17236TIP3    H273200   1.363   5.730  11.832  1.2637  0.8129 -0.1385
17237TIP3   OH273201   5.531   3.876  13.096  0.3258 -0.1847  0.2450
17237TIP3    H173202   5.466   3.854  13.162  1.0336  1.8660  1.6696
17237TIP3    H273203   5.609   3.825  13.120  0.6650  0.7495  1.1788
17238TIP3   OH273204   2.730   1.968  15.129  0.0466  0.4473 -0.1333
17238TIP3    H173205   2.766   1.879  15.132  1.1419  0.8895  0.0533
17238TIP3    H273206   2.780   2.011  15.060  1.2414  1.6415  1.4375
17239TIP3   OH273207   4.308   0.489  10.966  0.3516  0.1699  0.4021
17239TIP3    H173208   4.277   0.491  11.056  0.4954  1.4849  0.4313
17239TIP3    H273209   4.238   0.532  10.915  1.2517  1.4187  0.2049
17240TIP3   OH273210   4.375   6.011   4.765 -0.2901  0.4161  0.0834
17240TIP3    H173211   4.337   5.969   4.842  1.6459 -0.0579  0.8101
17240TIP3    H273212   4.377   5.941   4.699  0.6424  0.0134  0.5162
17241TIP3   OH273213   5.546   0.133  16.977  0.2181  0.6928 -0.3690
17241TIP3    H173214   5.493   0.206  16.943 -2.0176 -1.0167 -0.6313
17241TIP3    H273215   5.577   0.088  16.899 -1.4156 -0.7449 -0.2185
17242TIP3   OH273216   6.628   6.645  13.719 -0.2228 -0.0907  0.1620
17242TIP3    H173217   6.615   6.696  13.639  0.7937 -1.9419 -1.2255
17242TIP3    H273218   6.580   6.564  13.703  0.8363 -0.8894  1.0171
17243TIP3   OH273219   0.512   5.759  13.605  0.0801 -0.4659  0.3553
17243TIP3    H173220   0.506   5.843  13.651 -0.0190 -0.8349  1.0213
17243TIP3    H273221   0.588   5.770  13.547 -1.5363  1.0246 -1.5382
17244TIP3   OH273222   2.643   4.482   6.276  0.4152 -0.2754  0.1283
17244TIP3    H173223   2.675   4.411   6.220  0.7428  0.2350 -0.3321
17244TIP3    H273224   2.549   4.487   6.257 -0.0550 -2.0218  1.7539
17245TIP3   OH273225   2.564   2.431  14.763 -0.3074  0.1202  0.2945
17245TIP3    H173226   2.574   2.493  14.835 -0.0228  0.6038 -0.1564
17245TIP3    H273227   2.653   2.398  14.746 -0.5413 -0.8872  0.9417
17246TIP3   OH273228   0.409   4.509   3.805  0.4054 -0.2423  0.3996
17246TIP3    H173229   0.401   4.568   3.879 -3.6060 -0.1207 -0.0200
17246TIP3    H273230   0.419   4.422   3.844  0.1258  0.0313  1.0807
17247TIP3   OH273231   4.673   1.021  12.253  1.0759 -0.0002  0.5162
17247TIP3    H173232   4.719   1.072  12.320  3.2933 -0.5527 -0.5400
17247TIP3    H273233   4.738   0.958  12.222  0.0190  0.0932 -2.0130
17248TIP3   OH273234   5.457   6.272   1.545 -0.6025 -0.2674 -0.0237
17248TIP3    H173235   5.502   6.204   1.494 -0.7825 -2.5506  2.7707
17248TIP3    H273236   5.492   6.263   1.633 -1.6102  2.4540  0.7087
17249TIP3   OH273237   2.314   0.934   0.669 -0.4336 -0.0313  0.2028
17249TIP3    H173238   2.376   0.863   0.655  0.6694  1.0251 -0.3255
17249TIP3    H273239   2.240   0.912   0.612  1.0714  0.6271 -2.0602
17250TIP3   OH273240   0.557   5.102  12.942 -0.4348  0.3500  0.1137
17250TIP3    H173241   0.535   5.092  13.035  0.9894 -0.2486  0.3895
17250TIP3    H273242   0.630   5.164  12.942 -0.7167  0.6837 -0.6491
17251TIP3   OH273243   4.632   2.951  15.736  0.1468  0.2112 -0.6605
17251TIP3    H173244   4.666   2.904  15.813 -0.2692  1.1170  0.0721
17251TIP3    H273245   4.659   2.896  15.662 -0.0914 -1.0473  0.1728
17252TIP3   OH273246   0.558   4.364  15.387 -0.3397 -0.2224 -0.0117
17252TIP3    H173247   0.538   4.382  15.295 -0.7923 -0.1142  0.1055
17252TIP3    H273248   0.516   4.435  15.435 -1.2317 -1.0080  0.3752
17253TIP3   OH273249   3.082   5.996   3.248  0.4365 -0.5796 -0.3399
17253TIP3    H173250   3.042   5.955   3.325 -3.1666 -0.7724 -2.2434
17253TIP3    H273251   3.089   5.925   3.184  2.8356 -0.2646 -0.4893
17254TIP3   OH273252   2.605   4.828   4.059  0.0406  0.4590  0.3616
17254TIP3    H173253   2.620   4.748   4.110  0.4061 -0.7567 -1.5994
17254TIP3    H273254   2.689   4.847   4.018 -0.6138  0.5616 -0.9680
17255TIP3   OH273255   6.801   3.897  14.882  0.1057 -0.0885  0.2122
17255TIP3    H173256   6.821   3.806  14.903 -1.1300 -0.3296  0.3912
17255TIP3    H273257   6.864   3.921  14.814  0.4619 -1.0638  0.1930
17256TIP3   OH273258   2.912   5.595   3.455  0.0924 -0.4363 -0.0184
17256TIP3    H173259   2.886   5.687   3.457 -0.1179 -0.4376 -2.2022
17256TIP3    H273260   2.883   5.561   3.540  0.0208  1.4461  0.7544
17257TIP3   OH273261   6.504   6.382   5.682  0.2485 -0.0243 -0.1550
17257TIP3    H173262   6.503   6.428   5.766 -0.3039 -0.3917  0.0425
17257TIP3    H273263   6.422   6.407   5.640  0.6358  0.3457 -0.6880
17258TIP3   OH273264   6.625   3.723   5.764  0.4304 -0.6845 -0.0218
17258TIP3    H173265   6.697   3.666   5.738 -0.7737 -1.6904 -1.2384
17258TIP3    H273266   6.666   3.791   5.817  2.3639 -0.8987 -1.1984
17259TIP3   OH273267   4.825   5.068   2.239 -0.3801  0.8059 -0.3485
17259TIP3    H173268   4.772   5.046   2.315  0.0908 -0.5852 -0.4067
17259TIP3    H273269   4.762   5.096   2.172 -0.8973  0.7748  0.1261
17260TIP3   OH273270   5.065   4.156   6.145 -0.2090 -0.7486  0.5618
17260TIP3    H173271   5.002   4.098   6.102 -1.8825  0.7991  0.8499
17260TIP3    H273272   5.068   4.124   6.236  0.9817 -2.0934  0.0571
17261TIP3   OH273273   3.408   3.889   4.130 -0.1860  0.0404  0.7363
17261TIP3    H173274   3.482   3.943   4.158  0.9031 -1.3091  0.5236
17261TIP3    H273275   3.446   3.803   4.114 -1.8070 -0.6676  0.5889
17262TIP3   OH273276   1.557   5.574   0.887  0.7991  0.2853  0.2722
17262TIP3    H173277   1.526   5.510   0.823  1.6739 -2.3770  2.4026
17262TIP3    H273278   1.652   5.565   0.886  0.7979 -0.0176  2.1719
17263TIP3   OH273279   0.680   5.123   4.896  0.2040  0.7848  0.1191
17263TIP3    H173280   0.713   5.193   4.953  1.1369  1.0621 -0.7535
17263TIP3    H273281   0.727   5.135   4.814 -0.1173 -0.4698 -0.2508
17264TIP3   OH273282   3.464   1.365   4.134  0.0787 -0.5247 -0.0564
17264TIP3    H173283   3.510   1.323   4.061  1.8188  0.8117  0.2236
17264TIP3    H273284   3.531   1.373   4.202 -0.2068  2.5467 -0.0733
17265TIP3   OH273285   5.495   2.086   3.371  0.2288  0.3742 -0.9968
17265TIP3    H173286   5.518   2.176   3.393 -1.3489  0.1590  1.7757
17265TIP3    H273287   5.568   2.033   3.404  0.1779  0.4810 -0.7081
17266TIP3   OH273288   0.167   2.863  15.027 -0.4022 -0.1695 -0.3937
17266TIP3    H173289   0.097   2.928  15.017 -1.2536 -0.6536  2.0139
17266TIP3    H273290   0.246   2.914  15.045 -0.8092  0.2782  0.1602
17267TIP3   OH273291   0.643   6.587   5.449 -0.1442  0.5214 -0.4391
17267TIP3    H173292   0.635   6.492   5.457 -2.1824  0.7813  1.0313
17267TIP3    H273293   0.719   6.610   5.502 -1.3823 -0.0037  1.6163
17268TIP3   OH273294   5.035   0.490   1.590  0.4129  0.1704  0.0637
17268TIP3    H173295   5.107   0.504   1.527  3.6344 -1.4632  3.1892
17268TIP3    H273296   5.025   0.574   1.634  1.9537 -0.1709  1.1005
17269TIP3   OH273297   2.997   3.748   1.199 -0.3746 -0.0384 -0.1910
17269TIP3    H173298   3.060   3.802   1.151 -1.1892 -0.0505 -1.3085
17269TIP3    H273299   3.014   3.767   1.291  1.8819 -0.7299 -0.4094
17270TIP3   OH273300   4.946   4.353  14.540  0.2997  0.0072 -0.3100
17270TIP3    H173301   4.993   4.313  14.467  1.9029 -0.0211  0.7077
17270TIP3    H273302   4.962   4.294  14.614  0.5311  1.1548  0.5814
17271TIP3   OH273303   0.262   0.367   3.598  0.1018 -0.1025  0.3149
17271TIP3    H173304   0.230   0.455   3.620  1.2198  0.2038  0.7570
17271TIP3    H273305   0.357   0.372   3.611  0.1015 -1.5560  0.9701
17272TIP3   OH273306   3.032   0.545   5.540  0.3533 -0.1803 -0.0078
17272TIP3    H173307   3.103   0.607   5.554  0.5346 -0.9915  2.9867
17272TIP3    H273308   3.074   0.459   5.545 -0.4176 -0.6094 -0.8119
17273TIP3   OH273309   4.331   6.300   3.393 -0.3988  0.1439 -0.3424
17273TIP3    H173310   4.386   6.236   3.349  0.2264 -0.1587  0.8554
17273TIP3    H273311   4.246   6.293   3.350  0.0160 -0.6124 -1.0410
17274TIP3   OH273312   5.746   2.747  16.946  0.0305  0.1048  0.3766
17274TIP3    H173313   5.754   2.652  16.955  0.1063  0.1475  0.7517
17274TIP3    H273314   5.652   2.763  16.945 -0.0348 -0.1952 -1.9845
17275TIP3   OH273315   4.288   3.254   1.938  0.1306 -0.3358 -0.2357
17275TIP3    H173316   4.241   3.276   1.858 -1.1099 -0.1591  0.5438
17275TIP3    H273317   4.261   3.164   1.958  0.2001 -0.2690  0.1641
17276TIP3   OH273318   3.265   5.162   4.137 -0.4399  0.4385  0.1176
17276TIP3    H173319   3.286   5.164   4.230 -1.1598 -0.0652  0.2943
17276TIP3    H273320   3.281   5.252   4.107  0.1719  0.5082  0.6360
17277TIP3   OH273321   6.796   5.936  15.378 -0.3436  0.4758 -0.7008
17277TIP3    H173322   6.858   6.008  15.363  0.8724 -0.4199 -0.0468
17277TIP3    H273323   6.767   5.948  15.468  1.1864 -0.8490 -0.0192
17278TIP3   OH273324   3.036   5.460  11.690 -0.0464 -0.3395  0.2764
17278TIP3    H173325   2.955   5.409  11.694 -0.4451  0.3738  1.5952
17278TIP3    H273326   3.045   5.484  11.598 -1.3726 -0.3612  0.1406
17279TIP3   OH273327   1.589   2.483   0.492  0.1378  0.3064  0.5878
17279TIP3    H173328   1.622   2.453   0.577  1.3363  1.5861  0.5831
17279TIP3    H273329   1.652   2.447   0.429  0.3451  0.9788  0.4077
17280TIP3   OH273330   1.691   1.707  12.624  0.1895 -0.2516  0.1233
17280TIP3    H173331   1.723   1.628  12.581  0.8887 -0.2631  0.6511
17280TIP3    H273332   1.614   1.733  12.574  0.3475 -0.8944 -0.4509
17281TIP3   OH273333   3.369   0.977   2.887  0.2389 -0.0828 -0.3438
17281TIP3    H173334   3.333   0.889   2.893 -0.2162  0.0581 -0.9370
17281TIP3    H273335   3.393   0.987   2.795 -2.5769  1.5199 -0.9552
17282TIP3   OH273336   4.188   1.191  12.504  0.5200  0.0779 -0.0687
17282TIP3    H173337   4.256   1.141  12.549  1.5482  2.0290  0.6215
17282TIP3    H273338   4.226   1.210  12.418 -0.4400 -1.5105 -0.8608
17283TIP3   OH273339   2.643   6.422  16.323  0.2640 -0.2863 -0.2399
17283TIP3    H173340   2.630   6.328  16.316 -1.8805  0.0808 -1.5299
17283TIP3    H273341   2.567   6.453  16.373  2.7286  0.3514  3.3195
17284TIP3   OH273342   1.925   4.767  15.393 -0.0217  0.0193  0.2452
17284TIP3    H173343   1.915   4.673  15.383  1.3675 -0.3610  2.3347
17284TIP3    H273344   1.841   4.796  15.430  0.8422 -0.9348  3.0243
17285TIP3   OH273345   0.243   1.051  12.075  0.8039 -0.3380  0.0721
17285TIP3    H173346   0.337   1.068  12.085  0.9135 -1.5137  1.2536
17285TIP3    H273347   0.239   0.959  12.048 -0.0353 -0.5157  0.7878
17286TIP3   OH273348   3.378   6.381  16.649 -0.3332  0.8969 -0.1396
17286TIP3    H173349   3.297   6.384  16.597 -0.2841  0.6310 -0.2335
17286TIP3    H273350   3.419   6.466  16.634  0.9122 -0.0594 -2.5240
17287TIP3   OH273351   4.210   4.611   1.450  0.7069 -0.0572 -0.3159
17287TIP3    H173352   4.222   4.530   1.500  2.2546 -0.0541 -0.6530
17287TIP3    H273353   4.150   4.587   1.379  0.4139 -0.6677  0.1318
17288TIP3   OH273354   1.167   5.957   3.750  0.4323  0.5551 -0.0792
17288TIP3    H173355   1.094   5.984   3.806 -0.2309  3.0260 -2.0709
17288TIP3    H273356   1.237   5.934   3.812 -1.2711  0.3025  1.8124
17289TIP3   OH273357   0.534   3.974  16.692  0.4260 -0.0082 -0.1966
17289TIP3    H173358   0.485   3.892  16.699 -0.3099  0.4452 -0.0242
17289TIP3    H273359   0.586   3.978  16.772 -0.3069  0.1922  0.2691
17290TIP3   OH273360   5.908   2.371   2.976  0.8352  0.0992 -0.0798
17290TIP3    H173361   5.812   2.374   2.982  0.7200 -2.9481  1.1143
17290TIP3    H273362   5.938   2.404   3.061  0.7029 -1.4752  0.6082
17291TIP3   OH273363   3.397   3.866   5.795  1.0867  0.5634  0.4209
17291TIP3    H173364   3.387   3.959   5.816 -1.1065  0.0698  1.7631
17291TIP3    H273365   3.339   3.852   5.720  1.2130  0.2361  0.3844
17292TIP3   OH273366   5.608   1.522   6.075 -0.2135 -0.0983  0.3643
17292TIP3    H173367   5.527   1.539   6.123  0.2804  0.2428  1.0772
17292TIP3    H273368   5.612   1.591   6.009 -0.3187  0.0986  0.5641
17293TIP3   OH273369   0.180   5.020   3.368 -0.3970  0.2386 -0.5663
17293TIP3    H173370   0.222   5.105   3.383  1.1781 -0.7502  0.7351
17293TIP3    H273371   0.086   5.040   3.366 -0.0648  1.9526  0.1263
17294TIP3   OH273372   6.676   3.468  11.034 -0.6716 -0.6085 -0.3891
17294TIP3    H173373   6.721   3.407  10.976 -1.8267 -2.3287  0.4851
17294TIP3    H273374   6.609   3.509  10.980 -0.7582 -1.0800 -0.6315
17295TIP3   OH273375   6.686   3.451  13.746  0.0939  0.0357 -0.3775
17295TIP3    H173376   6.683   3.473  13.653 -0.8826  0.0901 -0.3378
17295TIP3    H273377   6.678   3.535  13.792 -0.3599 -0.0720 -0.2479
17296TIP3   OH273378   3.016   0.869   1.040 -0.4418  0.5025 -0.2879
17296TIP3    H173379   3.109   0.853   1.057 -0.9590 -0.1136  2.2295
17296TIP3    H273380   3.011   0.889   0.947  1.5474 -4.2752 -1.5117
17297TIP3   OH273381   5.121   1.556  10.328  0.1114 -0.3758 -0.1073
17297TIP3    H173382   5.034   1.522  10.309  0.1751 -0.8346  0.4019
17297TIP3    H273383   5.111   1.603  10.411  0.1014  0.5637 -0.6266
17298TIP3   OH273384   6.063   3.240   1.834 -0.1732  0.1928  0.2984
17298TIP3    H173385   6.029   3.271   1.750 -0.1443  0.9881  0.5734
17298TIP3    H273386   6.114   3.314   1.867 -1.6507  0.5526  1.8468
17299TIP3   OH273387   3.078   2.990  13.000  0.4032  0.3893 -0.1015
17299TIP3    H173388   3.161   3.019  12.963  0.6242  1.5571  1.2720
17299TIP3    H273389   3.090   2.997  13.095 -1.1797  0.3469  0.1202
17300TIP3   OH273390   5.170   1.618   4.214  0.0437  0.1089  0.2160
17300TIP3    H173391   5.264   1.607   4.225 -0.0955 -0.3150  0.9981
17300TIP3    H273392   5.156   1.712   4.225  0.5258  0.3387 -1.0924
17301TIP3   OH273393   4.154   6.596   4.682 -0.1973 -0.6464 -0.2120
17301TIP3    H173394   4.249   6.603   4.670 -0.3604 -0.8460 -1.6797
17301TIP3    H273395   4.136   6.502   4.676 -0.5608 -0.5558 -0.5808
17302TIP3   OH273396   3.727   1.394   1.210  0.2436  0.2460 -0.1709
17302TIP3    H173397   3.653   1.373   1.267 -0.0046 -0.8118 -0.8584
17302TIP3    H273398   3.740   1.488   1.220 -0.3539  0.2199  0.9573
17303TIP3   OH273399   6.150   5.468  11.387 -0.0571  0.3914  0.0811
17303TIP3    H173400   6.166   5.439  11.297 -1.0677  0.7784 -0.2351
17303TIP3    H273401   6.089   5.541  11.378 -0.9099 -0.1782  1.1430
17304TIP3   OH273402   5.659   2.093   2.769  0.3777 -0.0869 -0.2993
17304TIP3    H173403   5.753   2.110   2.778  0.5714 -0.3053 -1.7943
17304TIP3    H273404   5.631   2.066   2.857  1.3216  1.7887  0.6049
17305TIP3   OH273405   2.783   0.597   3.021 -0.2273 -0.0270  0.5879
17305TIP3    H173406   2.829   0.521   3.056 -0.4528 -0.9668 -1.0785
17305TIP3    H273407   2.692   0.584   3.046 -0.3337 -0.5321 -0.0304
17306TIP3   OH273408   3.242   6.798   4.527 -0.3813 -0.3596  0.0023
17306TIP3    H173409   3.209   6.862   4.590 -0.4399 -0.7927  0.4124
17306TIP3    H273410   3.313   6.753   4.573  0.2855  0.0396 -0.6077
17307TIP3   OH273411   6.687   1.123  12.182 -0.3062 -0.2354 -0.2276
17307TIP3    H173412   6.636   1.049  12.151 -0.0445 -0.9151  0.9487
17307TIP3    H273413   6.777   1.091  12.184 -0.0776  0.3781 -0.5059
17308TIP3   OH273414   5.740   6.452   1.557  0.4484  0.0721 -0.1787
17308TIP3    H173415   5.706   6.366   1.534  0.5015 -0.4473  1.6317
17308TIP3    H273416   5.834   6.446   1.540  0.6191 -0.5800  0.9887
17309TIP3   OH273417   6.605   6.719  11.569 -0.0265 -0.1164  0.4926
17309TIP3    H173418   6.592   6.716  11.664 -0.2310 -0.9321  0.4396
17309TIP3    H273419   6.698   6.698  11.558  0.4454  1.8072  0.6206
17310TIP3   OH273420   6.080   4.076  15.403  0.0113 -0.6656  0.3156
17310TIP3    H173421   6.015   4.147  15.407 -2.2010 -2.6797  1.6869
17310TIP3    H273422   6.028   3.996  15.407  2.3232 -2.4565 -3.1967
17311TIP3   OH273423   5.647   6.768  10.595 -0.3149  0.6448 -0.8834
17311TIP3    H173424   5.634   6.696  10.534 -0.9078  1.5134 -1.7876
17311TIP3    H273425   5.619   6.733  10.680  0.5026 -0.5560 -1.1016
17312TIP3   OH273426   0.089   1.924  11.191 -0.1529 -0.3958  0.0488
17312TIP3    H173427   0.041   1.884  11.118  0.0576  0.9974 -0.8747
17312TIP3    H273428   0.023   1.933  11.260 -0.9412  0.3710 -0.7797
17313TIP3   OH273429   0.216   0.343  13.184 -0.0560 -0.2974 -0.5849
17313TIP3    H173430   0.159   0.396  13.128 -0.4720 -0.8445 -0.6862
17313TIP3    H273431   0.246   0.403  13.252  1.9103  0.8632 -2.4040
17314TIP3   OH273432   6.260   2.651   4.197 -0.1057  0.0688 -0.4301
17314TIP3    H173433   6.178   2.618   4.233  1.1198 -1.7418  0.8195
17314TIP3    H273434   6.323   2.643   4.269  1.4716  0.1846 -1.7549
17315TIP3   OH273435   2.050   4.999  12.712  0.0913 -0.3114 -0.1393
17315TIP3    H173436   2.027   5.089  12.689  0.8451 -0.0927 -0.0710
17315TIP3    H273437   1.967   4.952  12.715 -0.1766  0.0656 -1.5301
17316TIP3   OH273438   3.344   2.790   2.932 -0.4895  0.3204 -0.3312
17316TIP3    H173439   3.289   2.772   3.008 -0.7150 -3.7945 -1.3079
17316TIP3    H273440   3.283   2.802   2.860 -0.2329  0.8773 -0.4535
17317TIP3   OH273441   2.015   1.782  12.491  0.0737 -0.5753 -0.2673
17317TIP3    H173442   1.940   1.794  12.432  0.7832 -0.8763 -1.2295
17317TIP3    H273443   2.022   1.865  12.538 -1.2991 -0.7824  0.3440
17318TIP3   OH273444   4.779   0.563  13.499  0.3054  0.1805  0.1639
17318TIP3    H173445   4.850   0.627  13.510  1.3118 -1.0705  0.9526
17318TIP3    H273446   4.794   0.526  13.412  0.0833  0.5486 -0.0368
17319TIP3   OH273447   3.963   4.808  12.936 -0.0168  0.0193 -0.2376
17319TIP3    H173448   3.914   4.870  12.991 -0.6295  0.2672 -1.0598
17319TIP3    H273449   3.962   4.847  12.849 -2.4112 -2.2860 -1.2696
17320TIP3   OH273450   5.847   3.714  17.248 -0.6408  0.3542 -0.6361
17320TIP3    H173451   5.755   3.687  17.249 -0.8036  0.8448 -1.9977
17320TIP3    H273452   5.849   3.791  17.191  0.5639  0.5367 -0.3601
17321TIP3   OH273453   4.008   1.189  13.412 -0.3671 -0.4989  0.0981
17321TIP3    H173454   4.051   1.202  13.327 -1.3846 -0.5406 -0.4382
17321TIP3    H273455   3.966   1.103  13.404  0.3642 -0.9545  1.0206
17322TIP3   OH273456   6.770   5.680   5.854 -0.4496  0.1186 -0.1551
17322TIP3    H173457   6.861   5.707   5.842 -0.3224  0.6152  1.7348
17322TIP3    H273458   6.774   5.612   5.920 -1.3807 -0.4308 -0.6524
17323TIP3   OH273459   2.273   1.182  16.488 -0.4754 -0.1797  0.4475
17323TIP3    H173460   2.310   1.139  16.565 -1.6245 -0.6889  0.7259
17323TIP3    H273461   2.178   1.178  16.501 -0.7918 -2.1964 -1.9973
17324TIP3   OH273462   0.633   3.402  10.600  0.2865 -0.5855  0.1568
17324TIP3    H173463   0.636   3.354  10.516 -1.9442 -0.3016 -0.1156
17324TIP3    H273464   0.603   3.337  10.663 -1.0721 -0.0264  0.1144
17325TIP3   OH273465   5.166   3.155   0.392  0.1439  0.9346 -0.5256
17325TIP3    H173466   5.169   3.240   0.349  1.6975  1.0528 -0.2102
17325TIP3    H273467   5.180   3.176   0.485  2.3014  0.1878 -0.6647
17326TIP3   OH273468   5.941   1.604   2.898  0.1051  0.1582  0.3312
17326TIP3    H173469   5.890   1.556   2.833  0.4326 -0.0843  0.2489
17326TIP3    H273470   5.881   1.616   2.972 -0.4725  0.9965 -0.2585
17327TIP3   OH273471   4.399   6.698  12.367  0.3030 -0.6060 -0.7268
17327TIP3    H173472   4.307   6.699  12.341  0.6228  1.5481 -1.9465
17327TIP3    H273473   4.397   6.696  12.463 -1.0879  1.5220 -0.6665
17328TIP3   OH273474   6.165   1.900  14.078  0.3634  0.5224  0.3680
17328TIP3    H173475   6.155   1.871  14.169 -0.3770 -1.0495 -0.1970
17328TIP3    H273476   6.225   1.836  14.040  1.9143  2.0767  0.1428
17329TIP3   OH273477   3.894   0.590   4.420  0.6966 -0.2320  0.0807
17329TIP3    H173478   3.858   0.502   4.416 -0.1617  0.0256  1.7337
17329TIP3    H273479   3.856   0.636   4.345  1.2201 -1.2802 -0.8338
17330TIP3   OH273480   0.282   5.033  11.211  0.5470 -0.2337  0.0386
17330TIP3    H173481   0.334   4.986  11.147  0.6028  0.5542 -0.4984
17330TIP3    H273482   0.346   5.068  11.273  0.4392 -1.6251  0.9613
17331TIP3   OH273483   6.733   6.042   5.233  0.2702  0.7020  0.1600
17331TIP3    H173484   6.728   6.041   5.137  2.6127 -0.4178  0.0054
17331TIP3    H273485   6.642   6.050   5.262 -0.3638  2.3455 -2.1533
17332TIP3   OH273486   0.892   2.667  12.761 -0.1572  0.2542 -0.0788
17332TIP3    H173487   0.837   2.719  12.703  1.3977  1.8323 -0.1774
17332TIP3    H273488   0.972   2.650  12.711  0.8716  0.9565  1.2728
17333TIP3   OH273489   4.198   3.689   5.328 -0.4095  0.2599  0.2024
17333TIP3    H173490   4.276   3.719   5.374  0.4665 -2.5617  0.6768
17333TIP3    H273491   4.225   3.607   5.286 -3.1666 -0.8985  0.5673
17334TIP3   OH273492   3.835   2.133  13.113  0.1514 -0.2953  0.2553
17334TIP3    H173493   3.758   2.119  13.059  1.3190 -3.0614 -0.7525
17334TIP3    H273494   3.817   2.086  13.194 -0.3299  1.3423  1.1329
17335TIP3   OH273495   2.938   1.247  13.701  0.4175 -0.3144  0.1490
17335TIP3    H173496   2.991   1.298  13.762 -0.9832  1.9025 -0.4145
17335TIP3    H273497   2.876   1.310  13.665 -2.2528 -2.7403  0.3827
17336TIP3   OH273498   5.199   6.816   3.338  0.1285 -0.1395 -0.3791
17336TIP3    H173499   5.147   6.796   3.416  0.4818  1.5253  0.2992
17336TIP3    H273500   5.157   6.765   3.269 -1.2141 -0.3578  0.5559
17337TIP3   OH273501   0.174   5.705   0.356 -0.0002 -0.9096  0.2597
17337TIP3    H173502   0.212   5.621   0.331  2.4911  1.1990 -3.4899
17337TIP3    H273503   0.243   5.750   0.404 -0.4368 -0.0049  0.0535
17338TIP3   OH273504   5.355   1.568   1.488 -0.0683  0.0708  0.1100
17338TIP3    H173505   5.421   1.580   1.556 -0.0888  0.6384  0.0310
17338TIP3    H273506   5.381   1.628   1.418  0.2687 -0.9250 -0.6223
17339TIP3   OH273507   3.071   2.984  17.227  0.7369 -0.7322 -0.4091
17339TIP3    H173508   3.012   3.005  17.156 -0.2074 -2.7467 -0.2475
17339TIP3    H273509   3.158   3.007  17.194  0.3053 -1.5755 -2.1722
17340TIP3   OH273510   6.276   4.995  15.191 -0.5192 -0.2008 -0.0515
17340TIP3    H173511   6.195   5.037  15.161 -1.2114 -0.8560  0.8624
17340TIP3    H273512   6.289   4.922  15.131  1.8275  2.4886 -2.9543
17341TIP3   OH273513   0.759   6.750   5.242 -0.3864 -0.0198 -0.3244
17341TIP3    H173514   0.685   6.717   5.293  0.3245  0.3657  1.0115
17341TIP3    H273515   0.779   6.835   5.282  1.1590 -0.4052 -0.2557
17342TIP3   OH273516   6.515   1.901  15.758  0.1643 -0.1589  0.0462
17342TIP3    H173517   6.540   1.902  15.666  0.1044 -1.6029  0.0104
17342TIP3    H273518   6.586   1.853  15.802 -0.6202 -0.9066  0.5088
17343TIP3   OH273519   5.388   0.440   0.733  0.1901  0.1944 -0.2967
17343TIP3    H173520   5.401   0.464   0.824  1.3424 -0.2474 -0.3272
17343TIP3    H273521   5.294   0.448   0.718  0.0645  0.7557  0.7855
17344TIP3   OH273522   0.509   3.203   5.875 -0.5172  0.4145 -0.0171
17344TIP3    H173523   0.434   3.233   5.925  0.1768  2.3160 -0.0814
17344TIP3    H273524   0.475   3.131   5.822 -2.0764  0.6926  0.5820
17345TIP3   OH273525   5.848   4.570   5.185 -0.1068  0.2948 -0.5268
17345TIP3    H173526   5.886   4.639   5.239 -2.4218  0.5611  0.8042
17345TIP3    H273527   5.790   4.616   5.125 -0.6286 -0.3675 -0.5355
17346TIP3   OH273528   6.370   6.685   4.902 -1.1112  0.2436  0.2117
17346TIP3    H173529   6.354   6.628   4.977  0.2587  0.0302  0.3477
17346TIP3    H273530   6.393   6.770   4.941 -0.4148  0.1361  0.0273
17347TIP3   OH273531   2.036   0.590   4.391  0.0222  0.5552  0.1807
17347TIP3    H173532   2.125   0.568   4.417  0.2439  1.1742 -0.0288
17347TIP3    H273533   2.040   0.683   4.368 -0.5142  0.4099 -0.5355
17348TIP3   OH273534   1.317   0.997  15.076 -0.0330 -0.0356  0.0466
17348TIP3    H173535   1.357   0.911  15.093  0.2939  0.4973  2.1444
17348TIP3    H273536   1.342   1.018  14.986  0.0971 -2.0194 -0.4021
17349TIP3   OH273537   2.279   5.557   5.756 -0.0401  0.2383 -0.3301
17349TIP3    H173538   2.200   5.580   5.805  0.2338 -1.3422  0.8864
17349TIP3    H273539   2.348   5.613   5.793  0.3606 -1.5536  1.7734
17350TIP3   OH273540   3.236   2.459   4.664 -0.1267 -0.1459 -0.3177
17350TIP3    H173541   3.165   2.445   4.727 -0.3011 -1.4331 -0.7679
17350TIP3    H273542   3.280   2.374   4.659  0.6297  0.2803 -1.0320
17351TIP3   OH273543   4.545   0.863  15.430 -0.7964 -0.2249 -0.3342
17351TIP3    H173544   4.517   0.950  15.402 -1.3667 -0.3560 -0.1809
17351TIP3    H273545   4.469   0.807  15.414 -0.3053 -0.7651 -0.7728
17352TIP3   OH273546   3.086   2.398  14.659 -0.0837  0.0597  0.0339
17352TIP3    H173547   3.148   2.354  14.717 -0.3274 -1.1596 -0.5889
17352TIP3    H273548   3.132   2.404  14.575 -0.1568  0.7667  0.0415
17353TIP3   OH273549   1.962   2.343   2.312 -0.5504 -0.5751 -0.4576
17353TIP3    H173550   1.997   2.422   2.271  0.6510 -0.0410  1.5391
17353TIP3    H273551   1.875   2.333   2.274 -0.5277  1.4297 -1.0932
17354TIP3   OH273552   0.187   0.839   1.957  0.0639  0.2755 -0.3902
17354TIP3    H173553   0.112   0.781   1.943 -1.0283  2.0777 -2.3642
17354TIP3    H273554   0.254   0.783   1.996 -2.1072 -1.5110  0.9119
17355TIP3   OH273555   4.691   2.183  16.100  0.7984  0.4112  0.4214
17355TIP3    H173556   4.777   2.218  16.125  0.0994  0.6804  2.5474
17355TIP3    H273557   4.640   2.184  16.181 -1.4102  0.8061 -0.9327
17356TIP3   OH273558   0.438   5.314  15.790  0.2089 -0.0469  0.2390
17356TIP3    H173559   0.476   5.312  15.878  1.6102  0.3802 -0.3524
17356TIP3    H273560   0.384   5.392  15.790  0.1968 -0.0478  0.7196
17357TIP3   OH273561   2.223   2.400  14.438  0.2839  0.2178  0.4574
17357TIP3    H173562   2.274   2.443  14.507 -1.6617  1.4748  1.1305
17357TIP3    H273563   2.198   2.471  14.379 -2.0972 -0.1094  1.0283
17358TIP3   OH273564   0.384   5.506   0.294  0.6618  0.0017 -0.2675
17358TIP3    H173565   0.386   5.411   0.311 -0.4836  0.0777  0.3339
17358TIP3    H273566   0.428   5.544   0.370 -0.8173  0.0790  0.5714
17359TIP3   OH273567   1.363   4.185  12.397 -0.1862  0.1594 -0.1996
17359TIP3    H173568   1.455   4.185  12.424 -0.4857 -0.1334  0.8122
17359TIP3    H273569   1.349   4.096  12.363 -0.0166  0.2998 -0.6483
17360TIP3   OH273570   4.044   5.590   3.949 -0.1708  0.8645 -0.1095
17360TIP3    H173571   3.999   5.674   3.945 -1.2502  0.2100 -2.2627
17360TIP3    H273572   3.978   5.528   3.980  0.7645  0.8557  2.0020
17361TIP3   OH273573   1.411   1.644  15.633 -0.2592 -0.6811  0.2800
17361TIP3    H173574   1.474   1.716  15.630 -0.6706 -0.3842 -1.4257
17361TIP3    H273575   1.465   1.566  15.650  0.3964 -0.2159  0.3452
17362TIP3   OH273576   1.669   5.366  11.218 -0.5499 -0.0879  0.1986
17362TIP3    H173577   1.649   5.282  11.176  0.2646  0.2018 -0.7984
17362TIP3    H273578   1.681   5.426  11.145  1.9233  0.1985  0.8084
17363TIP3   OH273579   0.583   6.196   4.941 -0.0363 -0.3995  0.5366
17363TIP3    H173580   0.499   6.242   4.944  0.5491  0.9151 -1.6936
17363TIP3    H273581   0.571   6.131   4.871  1.0934  0.4610 -0.4719
17364TIP3   OH273582   3.180   5.645   3.457  0.5442 -0.9554 -0.0451
17364TIP3    H173583   3.090   5.612   3.462  0.3351 -0.3299  0.4110
17364TIP3    H273584   3.228   5.576   3.410 -0.2897 -1.0344 -0.8083
17365TIP3   OH273585   3.729   0.551   2.889 -0.2848 -0.0119  0.1889
17365TIP3    H173586   3.689   0.557   2.802  2.0712  1.0749 -0.8843
17365TIP3    H273587   3.692   0.624   2.938 -1.4095 -0.4544  0.0212
17366TIP3   OH273588   5.972   2.117   6.161  0.1172  0.0942 -0.7603
17366TIP3    H173589   5.994   2.210   6.155  0.6717 -0.0773 -1.3641
17366TIP3    H273590   6.008   2.089   6.245  0.6916  0.2270 -0.9600
17367TIP3   OH273591   2.220   6.064   2.588  0.2042  0.0590 -0.0633
17367TIP3    H173592   2.223   5.970   2.607 -0.5910  0.4794  2.2878
17367TIP3    H273593   2.138   6.075   2.540 -0.1932 -0.3013  0.5263
17368TIP3   OH273594   2.949   3.062  10.998 -0.9263  0.0251 -0.2871
17368TIP3    H173595   2.976   2.991  10.939 -1.7228  0.5680 -1.3098
17368TIP3    H273596   2.855   3.068  10.986 -1.4031 -1.1364  2.4805
17369TIP3   OH273597   1.054   4.907  10.520 -0.1229  0.2253 -1.1198
17369TIP3    H173598   1.064   4.939  10.610 -0.4273 -0.4523 -0.8476
17369TIP3    H273599   1.144   4.903  10.487 -0.1697  2.8407 -1.6737
17370TIP3   OH273600   3.804   1.224   1.002  0.0756  0.1862 -0.3617
17370TIP3    H173601   3.779   1.287   1.069  1.6310  0.1325  0.2892
17370TIP3    H273602   3.887   1.256   0.968  0.5818 -1.1674 -0.4522
17371TIP3   OH273603   2.145   4.169   4.346  0.4718 -0.4849  0.6135
17371TIP3    H173604   2.155   4.256   4.306 -1.1335 -0.7600 -0.4753
17371TIP3    H273605   2.145   4.186   4.440 -0.5261  0.8001  0.4037
17372TIP3   OH273606   5.114   4.538  15.918  0.4017  0.5505 -0.7734
17372TIP3    H173607   5.024   4.508  15.923  1.2392 -1.9559  0.4152
17372TIP3    H273608   5.115   4.601  15.846 -2.1417  0.0564 -1.2759
17373TIP3   OH273609   3.354   4.112   0.668 -0.8034 -0.2653  0.1739
17373TIP3    H173610   3.448   4.103   0.655 -0.8347 -0.1809 -0.1193
17373TIP3    H273611   3.336   4.204   0.647 -1.3604 -0.9169 -2.3280
17374TIP3   OH273612   6.010   4.879   2.558 -0.4643  0.2878  0.3878
17374TIP3    H173613   5.916   4.879   2.577 -0.4860  0.2899  0.2798
17374TIP3    H273614   6.034   4.972   2.557  0.0421  0.2159  2.8779
17375TIP3   OH273615   6.601   5.007   5.310 -0.3623 -0.6445 -0.8613
17375TIP3    H173616   6.525   5.064   5.326 -0.6201 -0.6954 -1.8920
17375TIP3    H273617   6.665   5.063   5.266 -0.4255 -1.0133 -1.4319
17376TIP3   OH273618   1.689   3.336   1.592  0.2606  0.0640  0.0176
17376TIP3    H173619   1.628   3.294   1.532  0.4288 -0.6200  0.3227
17376TIP3    H273620   1.757   3.372   1.536  0.1758 -0.1732 -0.2365
17377TIP3   OH273621   6.425   5.561  16.888  0.0314 -0.4475  0.7680
17377TIP3    H173622   6.373   5.604  16.956  0.4613  3.1947 -1.0869
17377TIP3    H273623   6.367   5.493  16.854 -2.8781  2.2460  0.0890
17378TIP3   OH273624   4.005   6.345   4.045 -0.5970  0.0060  0.0529
17378TIP3    H173625   3.984   6.308   4.131 -1.4548  0.9482  0.2666
17378TIP3    H273626   4.030   6.270   3.992  1.3503 -0.4281  1.5216
17379TIP3   OH273627   2.016   2.508   4.805  0.2719 -0.6133  0.3081
17379TIP3    H173628   2.061   2.490   4.887  1.1291  1.3027  0.2835
17379TIP3    H273629   2.051   2.443   4.744 -0.9902 -2.5848  1.6387
17380TIP3   OH273630   0.826   0.470   5.343 -1.0238 -0.0315  0.5140
17380TIP3    H173631   0.759   0.457   5.409 -1.5370  0.3417  0.0715
17380TIP3    H273632   0.902   0.501   5.391 -0.9032 -1.2299  1.1226
17381TIP3   OH273633   3.958   1.485   3.010  0.3071 -0.2092 -0.4895
17381TIP3    H173634   4.039   1.534   3.015  0.7110 -0.7117 -1.8358
17381TIP3    H273635   3.894   1.539   3.057  0.8532  1.3593 -1.5108
17382TIP3   OH273636   1.273   6.028  10.696  0.3228 -0.0488  0.7033
17382TIP3    H173637   1.197   6.079  10.725  1.3330  0.4872  2.4570
17382TIP3    H273638   1.321   6.086  10.638  0.1821  0.1387  0.7754
17383TIP3   OH273639   1.592   1.063   3.162  0.1018  0.1787  0.5935
17383TIP3    H173640   1.579   1.130   3.229 -0.4961  0.6616  0.0037
17383TIP3    H273641   1.514   1.069   3.107  0.4365 -0.4357  0.0530
17384TIP3   OH273642   1.399   1.838   3.465  0.2169  0.6514 -0.2579
17384TIP3    H173643   1.453   1.759   3.457 -0.5203  0.2880 -1.8669
17384TIP3    H273644   1.358   1.848   3.379 -1.0796  1.7843  0.4679
17385TIP3   OH273645   2.635   6.372   6.023 -0.3461 -0.2468 -0.2212
17385TIP3    H173646   2.672   6.460   6.037 -0.7935  0.2561 -2.0670
17385TIP3    H273647   2.609   6.343   6.110  0.8747  0.9765  0.5788
17386TIP3   OH273648   0.389   5.167   1.505  0.6383  0.3050  0.3602
17386TIP3    H173649   0.361   5.214   1.427  3.1241  0.9300 -0.1753
17386TIP3    H273650   0.415   5.081   1.473  3.1488  1.0770  0.2205
17387TIP3   OH273651   6.346   2.612   5.749 -0.2549 -0.3231  0.1472
17387TIP3    H173652   6.277   2.588   5.811  0.7715  0.4130  1.5912
17387TIP3    H273653   6.417   2.549   5.766  1.0472  1.4680  1.5151
17388TIP3   OH273654   1.414   2.325  10.721  0.8309 -0.1855 -0.4818
17388TIP3    H173655   1.492   2.375  10.744  1.5173 -1.7228  0.5778
17388TIP3    H273656   1.413   2.324  10.626  0.0625  2.9753 -0.5700
17389TIP3   OH273657   0.679   2.211   4.275  0.3091 -0.3111 -0.0067
17389TIP3    H173658   0.687   2.155   4.198 -0.2034 -0.3383 -0.0396
17389TIP3    H273659   0.587   2.237   4.277  0.6631  1.0193 -0.3328
17390TIP3   OH273660   4.208   1.365   3.897 -0.3470 -0.3624 -0.1328
17390TIP3    H173661   4.133   1.311   3.873 -0.4662 -0.3473  0.1993
17390TIP3    H273662   4.284   1.312   3.875 -0.4760 -1.3152  1.6912
17391TIP3   OH273663   6.190   3.084   3.331 -0.1292  0.4089 -0.0859
17391TIP3    H173664   6.097   3.063   3.334  0.0213 -0.2794 -0.2621
17391TIP3    H273665   6.205   3.112   3.240 -0.1932  0.6449 -0.0230
17392TIP3   OH273666   0.133   0.566  13.010  0.2293  0.2821 -0.2128
17392TIP3    H173667   0.154   0.641  13.066  0.9377  0.1022 -0.2282
17392TIP3    H273668   0.149   0.598  12.921 -0.2067  0.3467 -0.2676
17393TIP3   OH273669   6.490   6.613  15.695  0.3759  0.3497 -0.0613
17393TIP3    H173670   6.538   6.542  15.738  0.4484 -0.1348 -0.9248
17393TIP3    H273671   6.455   6.666  15.766  1.0961 -0.0425  0.5813
17394TIP3   OH273672   0.725   0.676  14.846 -0.3942  0.0720 -0.4561
17394TIP3    H173673   0.658   0.718  14.899  0.6342  0.8515  0.2529
17394TIP3    H273674   0.801   0.671  14.904  0.3648 -0.1836 -1.4617
17395TIP3   OH273675   2.596   5.887  11.416 -0.0965  0.0787 -0.1143
17395TIP3    H173676   2.522   5.932  11.375 -0.1489  0.7047  0.6532
17395TIP3    H273677   2.661   5.956  11.430  1.0038 -0.6346 -1.6032
17396TIP3   OH273678   5.240   2.372   4.847 -0.2815  0.3878  0.0210
17396TIP3    H173679   5.284   2.351   4.765 -0.4809 -0.9298  0.2325
17396TIP3    H273680   5.150   2.393   4.821 -0.6852 -1.2616 -0.0040
17397TIP3   OH273681   0.079   2.649  11.910 -0.2894 -0.8544 -0.1896
17397TIP3    H173682   0.038   2.713  11.968  0.2973 -0.1455 -0.5454
17397TIP3    H273683   0.022   2.647  11.833  0.1423 -0.1401 -0.5296
17398TIP3   OH273684   6.422   4.770  16.743  0.3413  0.4787  0.1200
17398TIP3    H173685   6.408   4.753  16.836  0.2862  0.7542  0.1648
17398TIP3    H273686   6.505   4.817  16.740  0.5156  0.1610 -0.0021
17399TIP3   OH273687   1.499   1.265  12.936 -0.1234 -0.0527  0.4863
17399TIP3    H173688   1.492   1.318  12.856  0.0944 -0.7502  0.0007
17399TIP3    H273689   1.584   1.289  12.973 -0.0232 -0.0675  0.2669
17400TIP3   OH273690   3.495   3.998  15.698  0.1256 -0.4215  0.5258
17400TIP3    H173691   3.573   3.964  15.744  1.4468  1.2779 -0.3965
17400TIP3    H273692   3.516   3.988  15.605 -0.3251  1.0228  0.2697
17401TIP3   OH273693   0.767   6.575  12.315  0.5468  0.0625  0.2998
17401TIP3    H173694   0.727   6.491  12.336 -0.7909  0.6830  0.2963
17401TIP3    H273695   0.714   6.610  12.243  1.4752  0.6178 -0.1246
17402TIP3   OH273696   3.846   4.021   1.552  0.0107 -0.2822  0.0072
17402TIP3    H173697   3.752   4.004   1.559  0.3700 -2.4631 -0.1949
17402TIP3    H273698   3.862   4.092   1.614 -1.4084 -1.3478  1.6416
17403TIP3   OH273699   2.708   1.271  11.573 -0.1953  0.2136 -0.3892
17403TIP3    H173700   2.719   1.182  11.538 -0.0110  0.5397 -1.1609
17403TIP3    H273701   2.796   1.298  11.599 -0.0633  0.6218 -1.2508
17404TIP3   OH273702   4.537   5.796  14.272 -0.0110 -0.4349 -0.7638
17404TIP3    H173703   4.490   5.873  14.240  1.8334  0.9594 -0.2023
17404TIP3    H273704   4.603   5.779  14.205 -0.0865 -1.2165 -0.6368
17405TIP3   OH273705   0.116   3.838  12.310  0.3968  0.0685 -0.3169
17405TIP3    H173706   0.096   3.838  12.404 -1.4392  1.6986 -0.6718
17405TIP3    H273707   0.069   3.762  12.276 -0.6637  0.6747 -0.2328
17406TIP3   OH273708   2.768   3.975   1.192 -0.6855 -0.2222  0.6222
17406TIP3    H173709   2.853   3.989   1.151 -1.2046 -1.1616 -0.7995
17406TIP3    H273710   2.716   3.931   1.125 -2.1955  0.0591  1.5862
17407TIP3   OH273711   2.118   2.891  16.851  0.5115 -0.2329 -0.6424
17407TIP3    H173712   2.178   2.957  16.814 -0.6728  0.2270 -1.7633
17407TIP3    H273713   2.049   2.943  16.892  0.4636 -0.7788 -0.0323
17408TIP3   OH273714   2.118   0.625  16.424 -0.0459 -0.3783 -0.4469
17408TIP3    H173715   2.147   0.554  16.367 -1.9924 -0.4536 -1.3987
17408TIP3    H273716   2.054   0.584  16.483 -0.0991  0.2810 -0.0391
17409TIP3   OH273717   2.251   1.902  16.479 -0.7310 -0.0907 -0.1066
17409TIP3    H173718   2.229   1.980  16.429 -0.7095  0.0694  0.1338
17409TIP3    H273719   2.288   1.935  16.560 -0.8016 -0.3505  0.0310
17410TIP3   OH273720   1.939   5.039   2.359 -0.3869 -0.2104  0.3609
17410TIP3    H173721   2.023   5.081   2.379 -0.6854  0.4897  0.1670
17410TIP3    H273722   1.879   5.112   2.344 -1.1930 -0.6961  1.1673
17411TIP3   OH273723   6.513   0.348   5.122 -0.1890 -0.0920 -0.4953
17411TIP3    H173724   6.456   0.416   5.158  3.4618  2.1401  1.3488
17411TIP3    H273725   6.465   0.266   5.137 -2.2453  1.5510  2.3484
17412TIP3   OH273726   0.495   4.087  17.123 -0.4719 -0.3544  0.4459
17412TIP3    H173727   0.532   4.044  17.046  0.5434  0.2145  0.6004
17412TIP3    H273728   0.569   4.136  17.160 -1.6790  1.8462  0.0396
17413TIP3   OH273729   3.211   2.881  13.430  0.4834  0.6128 -0.3666
17413TIP3    H173730   3.292   2.931  13.419  1.2852 -0.4108  0.7237
17413TIP3    H273731   3.157   2.935  13.487  1.6234 -0.0242  1.3790
17414TIP3   OH273732   6.651   2.627  11.770  0.1642 -0.1142  0.2007
17414TIP3    H173733   6.582   2.570  11.804 -0.3847  0.2034 -0.3647
17414TIP3    H273734   6.627   2.714  11.801 -1.1277  0.4073 -2.1588
17415TIP3   OH273735   4.770   5.275   1.389  0.2127 -0.0719  0.3948
17415TIP3    H173736   4.678   5.288   1.367  0.1714  0.0380  0.6230
17415TIP3    H273737   4.775   5.186   1.423 -0.1302  0.4856  1.9841
17416TIP3   OH273738   0.519   3.768   4.674  0.2495  0.1847 -0.0527
17416TIP3    H173739   0.494   3.719   4.753  0.7529 -0.2899 -0.1869
17416TIP3    H273740   0.592   3.718   4.637 -0.9313 -0.3956 -1.6236
17417TIP3   OH273741   4.688   1.230   6.103  0.1549 -0.5071 -0.2483
17417TIP3    H173742   4.755   1.298   6.098  0.6188 -1.1213 -4.3226
17417TIP3    H273743   4.704   1.186   6.186  2.6937  1.4890  0.3820
17418TIP3   OH273744   0.693   5.721  16.453  0.1293 -0.0652 -0.3651
17418TIP3    H173745   0.757   5.783  16.417  1.3706  0.1304  2.0827
17418TIP3    H273746   0.696   5.646  16.394 -0.1515  1.4954 -2.4066
17419TIP3   OH273747   3.427   0.029   1.917  0.1565  0.0648 -0.1697
17419TIP3    H173748   3.480  -0.035   1.869  1.7960  0.3616  1.2226
17419TIP3    H273749   3.380  -0.023   1.982  1.4779  0.2280  0.9521
17420TIP3   OH273750   1.398   3.050  13.926  0.6391 -0.6169 -0.2317
17420TIP3    H173751   1.336   3.052  13.999 -0.4595 -0.8524 -1.1335
17420TIP3    H273752   1.475   3.005  13.960  0.7433  0.6267  1.2288
17421TIP3   OH273753   5.561   4.108  13.318  0.4869 -0.4032  0.2964
17421TIP3    H173754   5.537   4.086  13.408 -0.2377  0.1394  0.2386
17421TIP3    H273755   5.541   4.030  13.268  0.9864 -0.7446  0.6129
17422TIP3   OH273756   3.753   5.901  14.716 -0.3873  0.1786 -0.4137
17422TIP3    H173757   3.704   5.921  14.795 -1.5330  0.9406 -1.2997
17422TIP3    H273758   3.694   5.847  14.663  0.6236 -0.9040 -0.4575
17423TIP3   OH273759   2.663   2.764   5.655  0.2306  0.6061  0.3988
17423TIP3    H173760   2.667   2.709   5.733 -2.7633 -2.0641 -1.1959
17423TIP3    H273761   2.591   2.825   5.672  0.1375  0.5776  0.1250
17424TIP3   OH273762   2.063   4.094   5.731 -0.4964  0.0011 -0.3002
17424TIP3    H173763   2.106   4.070   5.649 -0.5575 -0.7396 -0.1127
17424TIP3    H273764   1.984   4.141   5.703 -0.6975 -0.5508 -0.6697
17425TIP3   OH273765   2.874   2.465  10.767  0.2911 -0.6362 -1.0963
17425TIP3    H173766   2.792   2.435  10.730 -0.7048  0.7381 -0.0740
17425TIP3    H273767   2.870   2.561  10.759  0.1346 -0.3018  2.2439
17426TIP3   OH273768   4.611   1.136   5.637  0.6658  0.0067 -0.0529
17426TIP3    H173769   4.617   1.045   5.664 -0.5569 -0.2362 -0.5603
17426TIP3    H273770   4.658   1.185   5.705  1.0937 -0.9715  0.3522
17427TIP3   OH273771   6.704   4.238  11.785  0.1703 -0.3310  0.8684
17427TIP3    H173772   6.786   4.281  11.809  0.0141  1.6787 -1.9776
17427TIP3    H273773   6.715   4.147  11.813  3.2909 -0.0713  0.6173
17428TIP3   OH273774   2.462   6.004  15.633 -0.5226 -0.2643  0.0708
17428TIP3    H173775   2.418   5.962  15.559 -0.0552 -2.1915  0.8704
17428TIP3    H273776   2.390   6.039  15.686 -0.9300 -0.3636 -0.4090
17429TIP3   OH273777   0.274   6.688   5.921 -0.8322 -1.0111  0.0140
17429TIP3    H173778   0.240   6.600   5.907 -1.9587 -0.6188  0.2300
17429TIP3    H273779   0.196   6.743   5.931 -0.1541  0.1015 -0.6917
17430TIP3   OH273780   6.750   2.771   2.799  0.3258  0.3248  0.1596
17430TIP3    H173781   6.735   2.680   2.770 -2.1287  0.9421 -0.6962
17430TIP3    H273782   6.721   2.772   2.890 -0.9356  0.5089 -0.2208
17431TIP3   OH273783   6.501   1.506  13.376  0.1141  0.1792  0.2175
17431TIP3    H173784   6.491   1.445  13.303 -3.6431  0.9224 -0.0183
17431TIP3    H273785   6.476   1.455  13.453  0.2514  0.4962  0.4717
17432TIP3   OH273786   4.240   3.875  16.303  0.0294  0.5618  0.4848
17432TIP3    H173787   4.314   3.861  16.244  0.3056  0.7166  0.7885
17432TIP3    H273788   4.255   3.962  16.340  0.1584  0.2463  1.1949
17433TIP3   OH273789   5.852   5.648  13.534 -0.0392  0.8906 -0.2670
17433TIP3    H173790   5.793   5.681  13.467  0.2532  0.9989 -0.4738
17433TIP3    H273791   5.879   5.562  13.501 -0.4278  0.6489  0.0433
17434TIP3   OH273792   6.086   6.164  16.902 -0.1399 -0.0911 -0.0777
17434TIP3    H173793   6.154   6.097  16.914 -0.2421 -0.2317 -0.2920
17434TIP3    H273794   6.027   6.151  16.977 -0.1787 -0.2627 -0.1365
17435TIP3   OH273795   0.320   1.246   0.503 -0.1181 -0.1121  0.5189
17435TIP3    H173796   0.232   1.276   0.481  0.4734  0.7204 -0.7843
17435TIP3    H273797   0.317   1.228   0.597 -1.4528  0.7182  0.6427
17436TIP3   OH273798   2.291   1.620  16.942  0.5836  0.5819 -0.5489
17436TIP3    H173799   2.203   1.586  16.957  0.1718  1.2286 -1.4363
17436TIP3    H273800   2.332   1.621  17.028 -0.3670  0.5159 -0.0934
17437TIP3   OH273801   3.637   4.746  14.044 -0.0639 -0.0138  0.2473
17437TIP3    H173802   3.694   4.708  13.977  0.7677 -0.4200  1.1660
17437TIP3    H273803   3.593   4.670  14.084  0.5201  0.0922  1.1144
17438TIP3   OH273804   4.203   0.566   1.897  0.7081  0.2153 -0.9165
17438TIP3    H173805   4.299   0.573   1.896  1.0515 -2.6925  1.9752
17438TIP3    H273806   4.186   0.472   1.887 -1.7708  0.5348 -0.1237
17439TIP3   OH273807   2.607   4.500  14.679  0.7513 -0.2553 -0.1118
17439TIP3    H173808   2.512   4.486  14.681  0.6743  0.4599  1.2675
17439TIP3    H273809   2.636   4.480  14.767  1.3856  3.0872  0.4822
17440TIP3   OH273810   4.788   2.110   1.466  0.0573 -0.0424  0.2754
17440TIP3    H173811   4.799   2.140   1.557  1.5010  1.1516 -0.2761
17440TIP3    H273812   4.815   2.018   1.468  0.9096  0.2175  0.8876
17441TIP3   OH273813   1.450   3.804  14.985  0.1472  0.4595  0.2506
17441TIP3    H173814   1.379   3.783  15.046  0.4930 -1.2497  0.0917
17441TIP3    H273815   1.420   3.883  14.940  0.9048  3.2354  4.2685
17442TIP3   OH273816   2.639   4.042   0.765  0.2100  0.6335  0.4509
17442TIP3    H173817   2.622   3.990   0.844  2.2654  1.4922  1.4799
17442TIP3    H273818   2.673   3.980   0.702 -0.5435  0.1214  0.5355
17443TIP3   OH273819   5.657   1.219  14.631 -0.2426 -0.6809 -0.5513
17443TIP3    H173820   5.580   1.197  14.577 -0.6821  2.4570 -1.3391
17443TIP3    H273821   5.678   1.309  14.606  1.6126 -0.3084  2.1692
17444TIP3   OH273822   3.645   0.088   4.876  0.1148  0.6490 -0.1623
17444TIP3    H173823   3.734   0.121   4.862  0.9778 -1.1189  1.0165
17444TIP3    H273824   3.640   0.070   4.970 -1.2863  0.1419 -0.3172
17445TIP3   OH273825   1.344   1.802   0.790 -0.0295 -0.5499 -0.4157
17445TIP3    H173826   1.368   1.885   0.749 -0.8246  0.3183  0.8080
17445TIP3    H273827   1.361   1.816   0.883 -0.7125 -1.5707 -0.1310
17446TIP3   OH273828   1.787   5.945  15.300  0.0464 -0.1013 -0.9152
17446TIP3    H173829   1.759   5.979  15.216 -1.6980  1.2625  0.1955
17446TIP3    H273830   1.741   5.998  15.365  1.9155 -0.6283  0.9195
17447TIP3   OH273831   1.770   0.520   4.264  0.2404 -0.1778  0.6304
17447TIP3    H173832   1.796   0.454   4.201 -0.6031 -0.1026  0.1999
17447TIP3    H273833   1.852   0.546   4.307  0.8977  0.1327 -0.7719
17448TIP3   OH273834   0.290   6.423  13.462 -0.0792 -0.1896  0.0208
17448TIP3    H173835   0.332   6.489  13.516  0.4398 -1.1342  0.7997
17448TIP3    H273836   0.201   6.455  13.449 -0.6558 -0.6075  2.6556
17449TIP3   OH273837   4.418   4.244   6.361 -0.1204 -0.4863  0.0621
17449TIP3    H173838   4.412   4.330   6.320 -3.2535 -1.1712 -1.0706
17449TIP3    H273839   4.435   4.263   6.453  0.3040  1.3213 -0.3704
17450TIP3   OH273840   5.264   6.422  11.485 -0.5404 -0.2388 -0.0321
17450TIP3    H173841   5.207   6.345  11.481  0.6808 -1.0928 -1.9084
17450TIP3    H273842   5.256   6.462  11.398  1.1166  0.0555 -0.0724
17451TIP3   OH273843   3.589   0.805   4.535 -0.1473  0.4873  0.0300
17451TIP3    H173844   3.589   0.899   4.552 -0.1428  0.7050 -1.1016
17451TIP3    H273845   3.657   0.769   4.592  0.5301  1.3111 -0.2540
17452TIP3   OH273846   2.987   6.295   6.167  0.3719  0.4909  0.0297
17452TIP3    H173847   3.062   6.271   6.223  0.8932 -1.7579 -1.5876
17452TIP3    H273848   2.913   6.248   6.205 -0.4474  3.2812  2.0655
17453TIP3   OH273849   5.977   6.274  11.236 -0.2087  0.3747 -0.3732
17453TIP3    H173850   5.908   6.306  11.295  1.5122  0.1363  1.8294
17453TIP3    H273851   6.020   6.354  11.204 -0.6246  0.4778 -0.6837
17454TIP3   OH273852   6.011   4.126   6.973 -0.2757 -0.4131  0.0974
17454TIP3    H173853   6.071   4.179   6.921  0.0227 -1.1437 -0.3046
17454TIP3    H273854   5.924   4.145   6.937 -0.1052 -0.6581 -0.4332
17455TIP3   OH273855   2.573   1.320   5.358 -0.1737 -0.1498  0.2976
17455TIP3    H173856   2.667   1.324   5.345 -0.1146 -0.9178  0.4920
17455TIP3    H273857   2.539   1.397   5.312  0.6861  1.0166  1.5871
17456TIP3   OH273858   4.767   3.686  12.349  0.0847  0.4023 -0.2683
17456TIP3    H173859   4.714   3.765  12.342  0.2004  0.4671 -0.4035
17456TIP3    H273860   4.747   3.651  12.436 -0.1332  0.4613 -0.2950
17457TIP3   OH273861   4.625   1.114   1.937  0.0080  0.0322  0.2636
17457TIP3    H173862   4.556   1.099   1.873 -0.3855  0.8959  0.4862
17457TIP3    H273863   4.584   1.096   2.022 -0.1366  1.2343  0.4457
17458TIP3   OH273864   5.591   0.913   2.420  0.1177  0.3715  0.6112
17458TIP3    H173865   5.533   0.916   2.496 -0.0213  1.0598  0.4815
17458TIP3    H273866   5.554   0.844   2.365 -0.0682  0.2060  0.9390
17459TIP3   OH273867   5.271   4.372   2.305 -0.0655 -0.4615  0.9935
17459TIP3    H173868   5.265   4.296   2.248  0.4068  0.2867 -0.0638
17459TIP3    H273869   5.221   4.347   2.383  1.0622 -2.2941  1.1634
17460TIP3   OH273870   1.751   3.833   0.424  0.3568 -0.1581  0.4865
17460TIP3    H173871   1.765   3.738   0.425 -0.8769 -0.3506  0.6225
17460TIP3    H273872   1.683   3.847   0.490  0.7802  0.8685  0.7114
17461TIP3   OH273873   5.296   4.521  11.665  0.2674 -1.2237 -0.1653
17461TIP3    H173874   5.256   4.545  11.581  0.7231 -1.4723 -0.4560
17461TIP3    H273875   5.390   4.520  11.647  0.4531 -0.0167  0.6696
17462TIP3   OH273876   5.390   0.736   2.344  0.2283 -0.2950 -0.3160
17462TIP3    H173877   5.438   0.683   2.408 -0.4503 -0.9063 -0.3104
17462TIP3    H273878   5.423   0.706   2.259 -0.7932 -1.3712 -0.3508
17463TIP3   OH273879   5.873   3.531  14.999 -0.4680  0.2390 -0.0212
17463TIP3    H173880   5.810   3.479  14.949 -1.6539  1.1423  0.4998
17463TIP3    H273881   5.907   3.470  15.065 -2.0887  0.1834  0.7974
17464TIP3   OH273882   3.963   2.730   1.806 -0.2779 -0.1776 -0.0090
17464TIP3    H173883   3.968   2.811   1.754 -1.7176 -0.1473 -0.1407
17464TIP3    H273884   3.957   2.761   1.897  0.5051 -0.1749  0.0397
17465TIP3   OH273885   0.443   4.922  13.902  0.4854 -0.4280  0.2564
17465TIP3    H173886   0.517   4.946  13.846  1.0718 -1.4702  0.5892
17465TIP3    H273887   0.367   4.929  13.845  0.6085  2.3122  0.3384
17466TIP3   OH273888   3.603   6.027  15.816 -0.5994 -0.1564 -0.5352
17466TIP3    H173889   3.568   5.941  15.794  1.9625 -1.8559  1.8478
17466TIP3    H273890   3.653   6.053  15.738 -0.6088 -1.2404 -0.9085
17467TIP3   OH273891   3.966   4.277  15.639 -0.3182 -0.0943  0.2330
17467TIP3    H173892   3.986   4.193  15.682  1.4461  0.1542 -0.0832
17467TIP3    H273893   3.974   4.342  15.709  0.9740  0.1225 -0.1136
17468TIP3   OH273894   3.977   1.721   1.736  0.5651 -0.2975 -0.6457
17468TIP3    H173895   3.947   1.796   1.787  0.9193 -0.4931 -0.1491
17468TIP3    H273896   4.042   1.757   1.675  1.0226 -0.2639 -0.1416
17469TIP3   OH273897   2.199   0.690  10.256 -0.4698 -0.6134 -0.1599
17469TIP3    H173898   2.203   0.727  10.345  0.7021 -0.0683 -0.4231
17469TIP3    H273899   2.288   0.658  10.241 -0.2175  0.8208 -1.7875
17470TIP3   OH273900   5.245   5.404   5.312  1.1123  0.1253  0.5331
17470TIP3    H173901   5.327   5.369   5.278  0.8232  0.0118 -0.0640
17470TIP3    H273902   5.250   5.390   5.406  0.2222 -3.2245  0.1491
17471TIP3   OH273903   0.364   0.211   1.578 -0.1533 -0.6923  0.4816
17471TIP3    H173904   0.394   0.121   1.574  0.3505 -0.5120  0.1430
17471TIP3    H273905   0.396   0.244   1.662 -0.5622 -0.9051  0.7224
17472TIP3   OH273906   1.135   4.892  16.114 -0.5602  0.4437 -0.2102
17472TIP3    H173907   1.136   4.798  16.135 -0.1620  0.5906  0.4017
17472TIP3    H273908   1.098   4.895  16.025  0.0712 -0.3469 -0.5131
17473TIP3   OH273909   2.756   1.473   2.211 -0.6052  0.1869 -0.0051
17473TIP3    H173910   2.751   1.383   2.243  2.1307 -0.1842 -0.5054
17473TIP3    H273911   2.761   1.527   2.291 -1.3979 -0.1567  0.2790
17474TIP3   OH273912   6.101   4.190   0.144  0.1780  0.1742  0.0727
17474TIP3    H173913   6.044   4.115   0.165  0.2450 -0.6445 -2.5473
17474TIP3    H273914   6.161   4.195   0.218 -0.9055 -1.3116  1.0945
17475TIP3   OH273915   6.728   4.305  14.243  0.4802  0.0281  0.0375
17475TIP3    H173916   6.770   4.247  14.179  0.5611 -0.2939  0.3819
17475TIP3    H273917   6.635   4.302  14.220  0.5362  0.0789 -0.1963
17476TIP3   OH273918   3.408   0.283  12.998 -0.1484 -0.0208 -0.0642
17476TIP3    H173919   3.501   0.296  13.019  0.4378 -2.6805 -0.9039
17476TIP3    H273920   3.372   0.241  13.076 -0.1030 -1.1612 -0.6514
17477TIP3   OH273921   2.994   5.034  14.751 -0.7784  0.5188  0.6879
17477TIP3    H173922   2.971   5.009  14.661  0.5108  0.8829  0.2434
17477TIP3    H273923   2.948   5.116  14.766  1.3127  1.9899 -0.6957
17478TIP3   OH273924   3.698   6.541   2.483  0.0091  0.2260 -0.1348
17478TIP3    H173925   3.712   6.634   2.500  1.8202  0.1081 -0.8479
17478TIP3    H273926   3.603   6.530   2.487 -0.1850  1.9523  0.6795
17479TIP3   OH273927   5.432   4.673   3.016 -0.2474 -0.5327 -0.1716
17479TIP3    H173928   5.339   4.659   2.998 -0.1032 -1.9211  0.1255
17479TIP3    H273929   5.465   4.587   3.040  0.8261  0.2101  1.0550
17480TIP3   OH273930   6.210   1.996   6.433  0.1319 -0.6811  0.4926
17480TIP3    H173931   6.208   1.935   6.359  2.4017  0.0394 -0.2091
17480TIP3    H273932   6.268   1.955   6.497  0.2059 -0.1266  0.7875
17481TIP3   OH273933   5.151   6.414   3.264 -0.1537  0.0852 -0.4816
17481TIP3    H173934   5.167   6.443   3.174 -1.7477  1.9464 -0.1784
17481TIP3    H273935   5.107   6.487   3.306 -0.5407 -1.2409  1.4922
17482TIP3   OH273936   4.278   1.446   0.680 -0.3431 -0.0648  0.0994
17482TIP3    H173937   4.187   1.418   0.691 -0.8029  0.7810 -1.3636
17482TIP3    H273938   4.276   1.501   0.601  1.2171  0.9227  0.7325
17483TIP3   OH273939   4.574   4.452   1.843  0.4973  0.4410 -0.0381
17483TIP3    H173940   4.667   4.429   1.845  0.8205  1.6131 -0.7338
17483TIP3    H273941   4.545   4.444   1.934  1.7201  1.7772  0.4867
17484TIP3   OH273942   4.776   0.623  12.321 -0.1317 -0.4930 -0.1553
17484TIP3    H173943   4.804   0.667  12.241  0.9871  0.2986  0.6601
17484TIP3    H273944   4.714   0.557  12.291  0.1899 -0.1327 -1.6677
17485TIP3   OH273945   3.806   0.344   3.514  0.4084  0.4403 -0.7627
17485TIP3    H173946   3.823   0.423   3.462 -1.5392  1.1645 -0.3287
17485TIP3    H273947   3.821   0.272   3.453  1.5563  1.1604 -1.3535
17486TIP3   OH273948   3.259   1.141  13.178 -0.4885 -0.2118  0.5416
17486TIP3    H173949   3.165   1.161  13.177 -0.6893 -1.1459  0.0081
17486TIP3    H273950   3.266   1.061  13.230 -0.0331 -0.3299  0.3053
17487TIP3   OH273951   5.256   1.425  15.436 -0.1629  0.4861 -0.4669
17487TIP3    H173952   5.263   1.340  15.480 -1.2465  1.0991  0.9279
17487TIP3    H273953   5.344   1.463  15.444  0.9761 -1.4304 -3.1001
17488TIP3   OH273954   5.612   3.003  11.961 -0.5389 -0.0040  0.6530
17488TIP3    H173955   5.542   3.058  11.926  1.4546  1.1750 -1.6137
17488TIP3    H273956   5.693   3.045  11.932  1.1273 -1.6462  2.7426
17489TIP3   OH273957   6.215   6.525  11.168  0.0412  0.1030 -0.1858
17489TIP3    H173958   6.280   6.595  11.175  0.3738 -0.3040  0.8916
17489TIP3    H273959   6.136   6.563  11.206  0.2627 -0.1478  0.5358
17490TIP3   OH273960   0.088   6.694  13.689  0.0735 -0.5426  0.3148
17490TIP3    H173961  -0.002   6.664  13.678  0.4693 -0.9578 -2.0010
17490TIP3    H273962   0.112   6.733  13.604  1.5238  1.0709  1.4125
17491TIP3   OH273963   0.700   6.679  17.126 -0.0541  0.2586 -0.3125
17491TIP3    H173964   0.756   6.605  17.151 -0.6553  0.1503  0.7438
17491TIP3    H273965   0.715   6.690  17.032  2.4993  0.8678  0.1327
17492TIP3   OH273966   4.694   4.060  11.264 -0.1127  0.1095  0.5915
17492TIP3    H173967   4.690   4.072  11.169  1.4679  1.5360  0.6851
17492TIP3    H273968   4.626   4.118  11.298  0.7490  1.1986  0.4553
17493TIP3   OH273969   1.103   3.742  12.671  0.0210 -0.1975  0.5940
17493TIP3    H173970   1.144   3.677  12.614 -0.2659  0.4485 -0.3713
17493TIP3    H273971   1.149   3.735  12.754  0.5661 -1.0327  0.2209
17494TIP3   OH273972   0.174   5.809   1.438  0.3382 -0.1180 -0.2707
17494TIP3    H173973   0.097   5.796   1.494 -0.2895  1.1840 -0.8033
17494TIP3    H273974   0.164   5.899   1.405  2.8839  0.6426  0.8871
17495TIP3   OH273975   2.838   0.128  13.044 -0.2266 -0.0052  0.0824
17495TIP3    H173976   2.759   0.149  13.093  0.7205  0.8107  1.2868
17495TIP3    H273977   2.879   0.057  13.093  1.0383  1.2254  0.8221
17496TIP3   OH273978   0.300   6.518  16.328  0.4260  0.0008 -0.2309
17496TIP3    H173979   0.316   6.520  16.423  1.4264 -2.1580 -0.3103
17496TIP3    H273980   0.388   6.512  16.290 -0.0728 -2.4298 -1.1172
17497TIP3   OH273981   0.708   4.922  12.090 -0.2513  0.1390 -0.1644
17497TIP3    H173982   0.794   4.891  12.118 -0.7930  0.8176  2.4282
17497TIP3    H273983   0.663   4.844  12.058  0.5344 -0.6176  0.5655
17498TIP3   OH273984   4.586   6.494   5.786  0.1980  0.1680  0.7135
17498TIP3    H173985   4.575   6.403   5.815  1.4877 -0.4220 -0.5604
17498TIP3    H273986   4.577   6.490   5.691  0.6893  1.3070  0.6114
17499TIP3   OH273987   1.905   6.635  10.881  0.2640  0.3119 -0.4138
17499TIP3    H173988   1.921   6.678  10.797 -0.0686 -0.8122 -1.0658
17499TIP3    H273989   1.906   6.541  10.861 -0.0843  0.0369  0.7865
17500TIP3   OH273990   5.135   2.126  14.176 -0.3431  0.3119  0.4451
17500TIP3    H173991   5.080   2.048  14.167  0.1428 -0.2578  2.2841
17500TIP3    H273992   5.074   2.200  14.169 -0.7988 -0.2046 -1.3508
17501TIP3   OH273993   0.595   0.805  15.987  0.3238  0.5681  0.9899
17501TIP3    H173994   0.639   0.774  16.066  2.9093  0.2880 -0.5237
17501TIP3    H273995   0.666   0.834  15.930 -1.5631  1.5309 -0.9221
17502TIP3   OH273996   4.109   2.184   2.792  0.4245  0.4506  0.7955
17502TIP3    H173997   4.070   2.236   2.863 -1.6865 -1.8332  1.3758
17502TIP3    H273998   4.041   2.180   2.725  1.3633  0.2298 -0.1556
17503TIP3   OH273999   2.829   3.736   4.874 -0.0839  0.3269  0.5646
17503TIP3    H174000   2.878   3.812   4.842  0.2921  0.1965  0.8266
17503TIP3    H274001   2.813   3.683   4.796 -0.8168  0.9367  0.2905
17504TIP3   OH274002   4.263   3.250  14.666 -0.5070  0.1607  0.0090
17504TIP3    H174003   4.308   3.177  14.708 -0.7313 -0.9753 -1.6827
17504TIP3    H274004   4.334   3.309  14.639 -0.1713 -0.4932 -0.5652
17505TIP3   OH274005   6.669   4.009  14.250  0.2946 -0.2637  0.6347
17505TIP3    H174006   6.689   4.056  14.331  1.0222 -0.0373  0.3231
17505TIP3    H274007   6.632   3.926  14.280 -2.3469  1.0631  1.1778
17506TIP3   OH274008   0.035   5.582  12.861 -0.1714  0.3581 -0.0503
17506TIP3    H174009   0.067   5.613  12.776  1.2283  0.4736  0.5092
17506TIP3    H274010   0.033   5.486  12.851  0.2421  0.3565 -0.1258
17507TIP3   OH274011   0.727   0.525  15.528 -0.6767  0.0634 -0.2936
17507TIP3    H174012   0.688   0.505  15.443 -0.6873 -0.8109 -0.0832
17507TIP3    H274013   0.663   0.496  15.592 -0.7830  0.9718  0.0112
17508TIP3   OH274014   1.062   1.935  13.445 -0.5228  0.3013  0.1060
17508TIP3    H174015   1.030   1.858  13.493 -3.1803  0.4150 -1.3784
17508TIP3    H274016   1.023   1.926  13.358  1.1847  2.0459 -0.8594
17509TIP3   OH274017   2.157   4.261   0.850  0.4568  0.5533 -0.1341
17509TIP3    H174018   2.240   4.242   0.806  1.0675  1.2535  0.6840
17509TIP3    H274019   2.158   4.204   0.927  0.7223  1.3893  0.4933
17510TIP3   OH274020   0.961   1.342  14.060 -0.0374  0.1347  0.1434
17510TIP3    H174021   0.962   1.347  14.155  0.5338  1.4392  0.0735
17510TIP3    H274022   1.051   1.363  14.034 -0.0027 -0.9605 -0.6509
17511TIP3   OH274023   6.437   5.789  13.339  0.7014 -0.1980 -0.1623
17511TIP3    H174024   6.456   5.882  13.354  0.1952 -0.0132 -0.6878
17511TIP3    H274025   6.468   5.772  13.250  0.4434 -0.4407 -0.2064
17512TIP3   OH274026   0.040   4.261   2.009 -0.3040 -0.7903 -0.3572
17512TIP3    H174027  -0.052   4.262   2.034 -0.4844  1.5648 -0.9753
17512TIP3    H274028   0.083   4.211   2.079 -1.5763  0.9691  1.7769
17513TIP3   OH274029   1.045   0.337   5.659 -0.1009 -0.7246 -0.5531
17513TIP3    H174030   1.071   0.357   5.749 -0.9082 -1.7240 -0.0814
17513TIP3    H274031   1.016   0.421   5.623  3.5271  0.3928 -1.0492
17514TIP3   OH274032   2.417   4.526   5.721  0.3033 -0.2342 -0.1161
17514TIP3    H174033   2.506   4.545   5.691  0.7165 -0.3609  1.0038
17514TIP3    H274034   2.429   4.490   5.809 -0.8770  0.0224  0.1504
17515TIP3   OH274035   6.557   1.370   5.203  0.3333 -0.4741  0.5303
17515TIP3    H174036   6.544   1.343   5.294 -0.5599 -0.9111  0.2784
17515TIP3    H274037   6.568   1.465   5.207  0.2921 -0.4951  1.0941
17516TIP3   OH274038   3.976   0.806   4.916 -0.0783  0.3039  0.0330
17516TIP3    H174039   3.930   0.850   4.987  0.2286  0.5410  0.0833
17516TIP3    H274040   4.030   0.874   4.876 -1.0188  0.4140 -1.0668
17517TIP3   OH274041   0.943   2.964  12.234 -0.1855 -0.7579 -0.4096
17517TIP3    H174042   0.960   2.965  12.139 -2.5033 -0.7907 -0.8378
17517TIP3    H274043   0.977   3.049  12.264 -3.5797  1.2906 -2.0593
17518TIP3   OH274044   5.754   5.335   1.585  0.1255 -0.4638 -0.1332
17518TIP3    H174045   5.838   5.327   1.631  0.0599  0.2733  0.1149
17518TIP3    H274046   5.691   5.355   1.654 -0.1954 -0.6594 -0.3700
17519TIP3   OH274047   0.826   1.702   0.292  0.3201  0.3285  0.0993
17519TIP3    H174048   0.763   1.695   0.363 -1.6098 -0.2603 -1.6329
17519TIP3    H274049   0.794   1.774   0.238 -1.3011 -2.6437 -3.0999
17520TIP3   OH274050   5.589   6.328   2.994  0.0257  0.0614 -0.0592
17520TIP3    H174051   5.564   6.248   2.947  2.3172 -0.5820 -0.2076
17520TIP3    H274052   5.655   6.300   3.056 -1.2438  1.3589  1.9219
17521TIP3   OH274053   0.664   2.195   3.593  0.3686  0.4161  0.3801
17521TIP3    H174054   0.666   2.255   3.519 -2.0455 -0.1103 -0.1647
17521TIP3    H274055   0.756   2.179   3.614  1.0569  2.1063 -1.2305
17522TIP3   OH274056   0.597   2.263   1.438 -0.6407  0.3468 -0.0607
17522TIP3    H174057   0.538   2.194   1.468 -0.2353 -1.0229 -2.3626
17522TIP3    H274058   0.552   2.344   1.461 -3.4682 -0.6644 -1.8446
17523TIP3   OH274059   2.000   0.567  12.793  0.2605 -0.3802  0.3473
17523TIP3    H174060   1.916   0.521  12.793  0.5203 -0.9069  2.1340
17523TIP3    H274061   1.993   0.629  12.865  1.0902  0.1673 -0.0420
17524TIP3   OH274062   2.322   3.506   1.607 -0.1374 -0.3371 -0.0803
17524TIP3    H174063   2.296   3.416   1.628  1.5292 -0.9191 -0.3775
17524TIP3    H274064   2.398   3.495   1.549  0.3508  1.2667  0.2408
17525TIP3   OH274065   3.022   2.206  13.261 -0.1997  0.1284 -0.2725
17525TIP3    H174066   3.067   2.146  13.201 -2.3270 -1.9179  0.1006
17525TIP3    H274067   2.942   2.231  13.215  0.3600  2.2228 -0.1556
17526TIP3   OH274068   2.873   2.540   3.602  0.4078 -0.1618  0.0572
17526TIP3    H174069   2.965   2.520   3.623  0.3076 -0.8120 -0.1198
17526TIP3    H274070   2.841   2.462   3.558 -0.0006  0.3823 -0.6181
17527TIP3   OH274071   0.073   0.011   2.480 -0.6481  0.1337 -0.8389
17527TIP3    H174072   0.162   0.017   2.513 -0.4646  1.1579 -1.4855
17527TIP3    H274073   0.080   0.030   2.387 -1.5620  0.4184 -0.8635
17528TIP3   OH274074   5.547   4.678  16.931 -0.3102  0.0214 -0.0038
17528TIP3    H174075   5.633   4.717  16.920  0.3234 -1.4780 -0.5105
17528TIP3    H274076   5.489   4.732  16.877  0.5836  0.1347 -0.8746
17529TIP3   OH274077   6.402   3.341   2.356 -0.3778  0.5038 -0.9228
17529TIP3    H174078   6.418   3.335   2.262  1.0914  0.4753 -0.6859
17529TIP3    H274079   6.471   3.289   2.396 -3.0052 -2.3671  0.0749
17530TIP3   OH274080   6.686   2.536   4.310  0.1772  0.0129  0.3895
17530TIP3    H174081   6.672   2.518   4.402 -2.0539  1.8531  0.4647
17530TIP3    H274082   6.708   2.629   4.307  0.9565 -0.1943 -0.8859
17531TIP3   OH274083   6.133   4.621   4.922  0.1334  0.5430  0.1218
17531TIP3    H174084   6.175   4.562   4.984  1.5275  0.9341 -0.4367
17531TIP3    H274085   6.187   4.701   4.925 -1.1551  1.4283  0.1407
17532TIP3   OH274086   4.804   5.095   2.718  0.7420 -0.3283 -0.1946
17532TIP3    H174087   4.802   5.174   2.773  1.5226  0.0760 -0.7347
17532TIP3    H274088   4.728   5.104   2.661  0.9126  0.1244 -0.3597
17533TIP3   OH274089   2.711   1.542  10.453 -0.5194  0.0190 -0.1414
17533TIP3    H174090   2.636   1.498  10.412  0.1586 -2.1956  0.9195
17533TIP3    H274091   2.772   1.471  10.473  0.1405  1.2968  2.6175
17534TIP3   OH274092   4.785   4.763   6.135 -0.4258 -0.4306 -0.1382
17534TIP3    H174093   4.781   4.810   6.219 -2.7477 -1.7998  0.5476
17534TIP3    H274094   4.771   4.831   6.069 -2.3974  0.0966  0.7881
17535TIP3   OH274095   0.673   5.145  11.937 -0.1794 -0.3860 -0.5935
17535TIP3    H174096   0.649   5.209  12.004  0.3175 -1.0916  0.2635
17535TIP3    H274097   0.702   5.068  11.986  2.7076 -0.0092 -1.5664
17536TIP3   OH274098   2.856   1.747  11.766  0.5721  0.5746 -0.1653
17536TIP3    H174099   2.834   1.800  11.843  0.8918 -1.1614  1.1772
17536TIP3    H274100   2.837   1.657  11.794  2.2920 -0.2413 -1.5287
17537TIP3   OH274101   4.503   3.471  16.303 -0.7204 -0.4735  0.3442
17537TIP3    H174102   4.503   3.384  16.343 -1.9915 -0.4659  0.3778
17537TIP3    H274103   4.459   3.458  16.219 -2.1921  0.4188  0.9763
17538TIP3   OH274104   3.393   5.520   4.101  0.1826 -0.1187 -0.6682
17538TIP3    H174105   3.465   5.510   4.163  0.2311  1.2346 -0.4879
17538TIP3    H274106   3.432   5.564   4.026  0.0872 -1.6005 -1.6087
17539TIP3   OH274107   2.954   1.803   6.171 -0.4772 -0.2560  0.4311
17539TIP3    H174108   2.920   1.724   6.214  0.5557  0.3115  2.3234
17539TIP3    H274109   3.010   1.844   6.236  1.7681  0.2235 -1.7145
17540TIP3   OH274110   0.620   1.606  16.880 -0.0263  0.2460 -0.5585
17540TIP3    H174111   0.645   1.527  16.929  0.7131 -0.1142 -1.5001
17540TIP3    H274112   0.531   1.588  16.850  0.4459 -0.5712 -1.4631
17541TIP3   OH274113   2.937   3.743   3.547 -0.4724  0.1824  0.1356
17541TIP3    H174114   2.968   3.706   3.464 -0.4265  0.0693  0.2038
17541TIP3    H274115   3.015   3.778   3.588 -0.7054  1.4719 -0.5015
17542TIP3   OH274116   6.067   2.694   0.328  0.1168 -0.4556 -0.2612
17542TIP3    H174117   6.100   2.750   0.398  1.6885 -2.8192  0.9523
17542TIP3    H274118   6.146   2.652   0.291 -0.6120  1.1062 -3.8077
17543TIP3   OH274119   1.042   5.103   5.161  0.4537  0.0543  0.5746
17543TIP3    H174120   1.047   5.180   5.103  1.0522  1.0267  1.8879
17543TIP3    H274121   0.955   5.068   5.147  1.2165 -0.8550 -2.3310
17544TIP3   OH274122   2.823   6.305   3.082  0.2745 -0.1288  0.3268
17544TIP3    H174123   2.773   6.333   3.005  1.0263  0.2043 -0.0401
17544TIP3    H274124   2.876   6.232   3.051 -0.0694 -0.5617  0.7480
17545TIP3   OH274125   1.516   5.778   1.077  0.3123  0.1943 -0.3587
17545TIP3    H174126   1.498   5.736   1.162 -0.9921  2.4347  0.5225
17545TIP3    H274127   1.527   5.705   1.016  0.2303 -1.4524  1.5374
17546TIP3   OH274128   0.428   6.480  12.102 -0.3398 -0.5215  0.3021
17546TIP3    H174129   0.506   6.481  12.047  0.6635 -2.8842  1.6196
17546TIP3    H274130   0.363   6.434  12.050 -0.4395  0.1692 -0.2052
17547TIP3   OH274131   3.493   6.642  11.226 -0.1767  0.5997 -0.1141
17547TIP3    H174132   3.571   6.592  11.248 -1.3455 -1.0915  0.2405
17547TIP3    H274133   3.485   6.635  11.131 -0.3756  0.0634 -0.0577
17548TIP3   OH274134   2.874   1.165   0.993 -0.6251 -0.4805  0.1680
17548TIP3    H174135   2.900   1.163   1.086 -1.4833 -2.6078  0.3864
17548TIP3    H274136   2.855   1.257   0.976  0.3753  0.0780  1.8699
17549TIP3   OH274137   2.511   4.093  16.009 -0.5878 -0.3135  0.3246
17549TIP3    H174138   2.425   4.053  15.997 -0.1401 -1.0231 -0.6404
17549TIP3    H274139   2.563   4.025  16.051  0.0133 -0.5455 -0.7794
17550TIP3   OH274140   2.827   0.248   3.783  0.1587  0.2447  0.3345
17550TIP3    H174141   2.907   0.299   3.773 -0.6265  1.7697  1.5095
17550TIP3    H274142   2.836   0.176   3.721  1.8872  1.0880 -0.4259
17551TIP3   OH274143   1.003   6.411   3.579  0.2733  0.4453 -0.4223
17551TIP3    H174144   1.069   6.394   3.512  0.0996  1.9851 -1.0207
17551TIP3    H274145   1.052   6.417   3.661  0.7782  0.7266 -0.7433
17552TIP3   OH274146   1.448   2.209  13.126 -0.5894  0.1410  0.3110
17552TIP3    H174147   1.450   2.205  13.031 -2.0795  1.5910  0.2004
17552TIP3    H274148   1.408   2.294  13.146  0.2019  0.0995  2.2313
17553TIP3   OH274149   4.210   1.480  16.378 -0.1463  0.0349 -0.4231
17553TIP3    H174150   4.251   1.475  16.292  0.5273  1.6229 -0.2087
17553TIP3    H274151   4.273   1.528  16.432 -0.4763 -1.1099  1.0090
17554TIP3   OH274152   6.488   3.923  13.492 -0.0691 -0.1752 -0.2687
17554TIP3    H174153   6.572   3.954  13.526 -0.8341 -0.0588  1.5710
17554TIP3    H274154   6.439   4.003  13.470  0.2094 -0.2396 -1.1678
17555TIP3   OH274155   1.752   4.224  13.414 -0.8254  0.3606 -0.0673
17555TIP3    H174156   1.800   4.228  13.331  0.0992 -0.8233  0.3901
17555TIP3    H274157   1.673   4.175  13.394 -1.0839  0.9492 -0.4780
17556TIP3   OH274158   5.824   4.871  17.133  0.2228  0.6844 -0.3067
17556TIP3    H174159   5.772   4.912  17.064 -1.4692  1.1938  1.2240
17556TIP3    H274160   5.867   4.944  17.178  0.1908  0.4661  0.0795
17557TIP3   OH274161   0.555   3.566   3.256 -0.0286 -0.1503 -0.3676
17557TIP3    H174162   0.537   3.526   3.171 -0.2745 -0.4056 -0.1994
17557TIP3    H274163   0.623   3.510   3.294  0.1336  0.0070 -0.4283
17558TIP3   OH274164   6.297   6.748  15.542 -0.5854  1.0894  0.8986
17558TIP3    H174165   6.302   6.828  15.595  0.3277  0.9656  0.9947
17558TIP3    H274166   6.345   6.682  15.592 -2.3084  0.1585  1.3640
17559TIP3   OH274167   1.276   0.920  16.257 -0.2544 -0.9625 -0.0356
17559TIP3    H174168   1.226   0.871  16.322  0.6058 -0.6907  0.8367
17559TIP3    H274169   1.209   0.963  16.203 -0.9704 -0.8671  0.9227
17560TIP3   OH274170   1.368   3.750  16.727 -0.4249  0.1357 -0.1060
17560TIP3    H174171   1.304   3.772  16.660  0.1000  1.9248 -0.0425
17560TIP3    H274172   1.349   3.659  16.750 -0.7645 -0.4146 -2.4848
17561TIP3   OH274173   2.372   1.023  16.679 -0.0388 -0.3873  0.5037
17561TIP3    H174174   2.436   1.052  16.745  0.5612  3.0253 -1.4737
17561TIP3    H274175   2.290   1.016  16.727  0.8905 -0.4502  2.1407
17562TIP3   OH274176   4.295   4.195  16.081 -0.1710  0.1739  0.0363
17562TIP3    H174177   4.202   4.200  16.060 -0.0399 -0.5466 -0.7479
17562TIP3    H274178   4.339   4.227  16.003  0.3352 -2.9200 -0.9953
17563TIP3   OH274179   4.238   2.309   2.592  0.6712  0.4138  0.4928
17563TIP3    H174180   4.220   2.250   2.665  0.9239  1.2342  1.2273
17563TIP3    H274181   4.331   2.331   2.602  0.9993 -0.3352 -0.7245
17564TIP3   OH274182   3.865   4.150   2.644 -0.8369 -0.2420 -0.4520
17564TIP3    H174183   3.897   4.175   2.557  1.3969  0.2907  0.4750
17564TIP3    H274184   3.915   4.071   2.666 -1.3533 -0.3498  0.3557
17565TIP3   OH274185   2.103   4.582   5.286 -0.7266 -0.6647 -0.2970
17565TIP3    H174186   2.008   4.584   5.279 -0.6747  0.4668 -0.9014
17565TIP3    H274187   2.127   4.491   5.270 -1.8096 -1.2658  1.3629
17566TIP3   OH274188   1.460   5.248  14.944 -0.1148 -0.3236 -0.1355
17566TIP3    H174189   1.464   5.167  14.995  0.4640 -0.1643  0.0858
17566TIP3    H274190   1.499   5.225  14.859 -0.9793 -0.5627 -0.4675
17567TIP3   OH274191   6.785   3.672   1.179 -0.0065 -0.1815 -0.3536
17567TIP3    H174192   6.851   3.652   1.113 -1.0665 -0.1787 -1.4308
17567TIP3    H274193   6.804   3.762   1.206  1.4790 -0.7571  0.6183
17568TIP3   OH274194   0.316   2.612   5.650  0.3620  0.4639  0.2110
17568TIP3    H174195   0.322   2.562   5.731 -1.2095  0.0910  0.1258
17568TIP3    H274196   0.254   2.562   5.596 -1.5353  2.6724  0.2587
17569TIP3   OH274197   1.700   3.984  15.068  0.4392  0.8894 -0.1664
17569TIP3    H174198   1.750   3.994  14.987  1.2667 -0.6800  0.1198
17569TIP3    H274199   1.623   3.934  15.042 -0.4160  2.3221 -0.3954
17570TIP3   OH274200   1.677   4.652  12.001 -0.4635 -0.0514  0.3877
17570TIP3    H174201   1.617   4.591  12.043  0.8533 -1.3243  0.5033
17570TIP3    H274202   1.651   4.651  11.909 -3.3177  2.7036  1.0913
17571TIP3   OH274203   4.211   0.892  14.503 -0.1487  0.0651  0.2909
17571TIP3    H174204   4.154   0.866  14.430  0.3600  1.5816 -0.6842
17571TIP3    H274205   4.295   0.851  14.483 -0.1647  0.0261  0.3045
17572TIP3   OH274206   4.850   5.109  12.780 -0.1011  0.3212 -0.0888
17572TIP3    H174207   4.913   5.177  12.760  0.6478 -0.2499  0.3148
17572TIP3    H274208   4.794   5.146  12.848  0.5381  0.3956  0.3942
17573TIP3   OH274209   6.572   5.889   1.341  0.2324 -0.0105  0.6692
17573TIP3    H174210   6.500   5.907   1.280 -0.0867  2.0461  1.6060
17573TIP3    H274211   6.614   5.811   1.306 -1.0339  0.1078 -1.1970
17574TIP3   OH274212   1.346   4.474  14.962 -0.2459 -0.8391  0.3024
17574TIP3    H174213   1.431   4.508  14.933 -0.1812 -1.6656 -0.5036
17574TIP3    H274214   1.367   4.421  15.039  0.1078 -1.8744 -0.5025
17575TIP3   OH274215   5.898   6.177   2.706  0.8312 -0.3425  0.9450
17575TIP3    H174216   5.966   6.189   2.640  0.4417  1.4599  0.8344
17575TIP3    H274217   5.936   6.211   2.787  0.2724  0.1140  1.0164
17576TIP3   OH274218   3.665   6.091   3.139  0.5234  0.5185 -0.2237
17576TIP3    H174219   3.589   6.036   3.158  0.5592  1.1974  2.0276
17576TIP3    H274220   3.721   6.036   3.084 -0.8783 -0.5478 -0.6144
17577TIP3   OH274221   6.149   4.826  16.145  0.0629 -0.6229  0.2811
17577TIP3    H174222   6.104   4.781  16.217  0.6013  0.1313  1.1033
17577TIP3    H274223   6.079   4.861  16.091 -0.3527 -0.5090  0.8855
17578TIP3   OH274224   1.534   0.026  15.198  0.5981  0.3186 -0.0465
17578TIP3    H174225   1.450   0.018  15.151  0.7246 -0.9657 -0.0784
17578TIP3    H274226   1.557   0.118  15.190 -1.6567  1.0632  1.3906
17579TIP3   OH274227   0.560   0.988  12.916  0.1110  0.2749  0.5442
17579TIP3    H174228   0.509   0.977  12.996 -1.8413 -1.2977 -0.8723
17579TIP3    H274229   0.528   1.071  12.878 -0.1960  0.1443  0.5167
17580TIP3   OH274230   2.330   4.624  11.792  0.7366 -0.4468  0.1965
17580TIP3    H174231   2.260   4.611  11.728  0.5221  1.0208  0.1295
17580TIP3    H274232   2.292   4.679  11.860  2.1938  1.4394 -0.4834
17581TIP3   OH274233   2.594   0.053  12.750 -0.6416  0.4796  0.1278
17581TIP3    H174234   2.600   0.112  12.674 -1.5346  0.1995 -0.1652
17581TIP3    H274235   2.584  -0.034  12.712 -2.0693  0.4476  0.5715
17582TIP3   OH274236   5.478   5.686   4.539  0.6439 -0.4776  0.5413
17582TIP3    H174237   5.400   5.663   4.590  1.2459  1.5170  2.4687
17582TIP3    H274238   5.443   5.716   4.455 -0.6403 -0.1607  1.1678
17583TIP3   OH274239   1.464   1.657   4.097  0.2101 -0.1023 -0.3439
17583TIP3    H174240   1.537   1.635   4.155  1.2890  1.3072 -1.1295
17583TIP3    H274241   1.428   1.738   4.133 -0.0112  0.0194 -0.8335
17584TIP3   OH274242   2.071   2.787  13.253 -1.3097  0.2456  0.3721
17584TIP3    H174243   2.017   2.836  13.315  0.2555 -0.8126  2.6479
17584TIP3    H274244   2.155   2.776  13.298 -0.1394 -0.5922 -1.9371
17585TIP3   OH274245   6.221   2.353  17.025  0.1703  0.0977  0.0727
17585TIP3    H174246   6.236   2.414  16.953 -0.7933  0.4872  0.1815
17585TIP3    H274247   6.128   2.364  17.045 -0.0011 -1.3962  0.1103
17586TIP3   OH274248   5.379   3.926  16.408  0.1846  0.2091 -0.0407
17586TIP3    H174249   5.338   4.011  16.423  1.0272  0.7470 -0.7408
17586TIP3    H274250   5.308   3.870  16.376 -0.3219  0.7078  0.2166
17587TIP3   OH274251   4.793   2.869   2.702 -0.5296 -0.2475  0.6117
17587TIP3    H174252   4.841   2.919   2.636  0.2045  1.4422  2.3633
17587TIP3    H274253   4.849   2.794   2.721  0.3266  0.4579  0.9204
17588TIP3   OH274254   1.963   5.793   2.527  0.0612  0.1475  0.1100
17588TIP3    H174255   2.027   5.798   2.599  0.6453 -1.1291 -0.3022
17588TIP3    H274256   1.924   5.706   2.536 -1.2493  0.7140  0.0304
17589TIP3   OH274257   6.599   2.164  12.606 -0.3150 -0.5078 -0.3209
17589TIP3    H174258   6.663   2.235  12.604  1.2569 -1.8463  0.8251
17589TIP3    H274259   6.514   2.208  12.599  0.6467  1.4142 -0.3512
17590TIP3   OH274260   0.022   4.043  16.118  0.0319  0.1166 -0.3737
17590TIP3    H174261   0.098   4.059  16.062  1.1575  0.1676  1.1369
17590TIP3    H274262  -0.042   4.109  16.091  0.9880  0.8717 -0.8176
17591TIP3   OH274263   0.283   0.754  15.349  0.0270  0.0572  0.1157
17591TIP3    H174264   0.316   0.711  15.270 -0.0721 -0.3925  0.3193
17591TIP3    H274265   0.254   0.682  15.405 -0.9200  0.4304  0.1060
17592TIP3   OH274266   2.459   6.225  13.654  0.6976  0.0339  0.2918
17592TIP3    H174267   2.541   6.184  13.679  0.6045 -0.5184 -0.2890
17592TIP3    H274268   2.470   6.245  13.561  0.0247 -0.4034  0.1173
17593TIP3   OH274269   6.140   4.800  15.330 -0.3723 -0.0063 -0.3243
17593TIP3    H174270   6.197   4.876  15.319 -0.0776 -0.3183 -0.9909
17593TIP3    H274271   6.057   4.836  15.362  0.0854  0.4865  0.3094
17594TIP3   OH274272   2.521   5.170  13.037 -0.2405  0.0215  0.2004
17594TIP3    H174273   2.540   5.173  13.131 -0.9757  1.3834  0.3214
17594TIP3    H274274   2.578   5.238  13.000  2.3518 -2.5909 -0.7829
17595TIP3   OH274275   5.601   5.185  15.037 -0.1101  0.1825 -0.1886
17595TIP3    H174276   5.647   5.259  15.078 -0.6952 -1.9674  4.7075
17595TIP3    H274277   5.510   5.214  15.030  0.0495  0.6777 -0.2561
17596TIP3   OH274278   1.935   1.063   2.854 -0.0575 -0.1300  0.2215
17596TIP3    H174279   1.944   1.132   2.919 -4.8428  1.8174 -0.9784
17596TIP3    H274280   1.867   1.005   2.889 -1.2036 -0.1977 -1.9965
17597TIP3   OH274281   1.084   5.660   6.626  0.2008  0.5479 -0.0947
17597TIP3    H174282   1.029   5.665   6.704  0.0291  0.9286 -0.2381
17597TIP3    H274283   1.160   5.715   6.646 -0.2451  1.3236 -0.5150
17598TIP3   OH274284   0.452   0.233   4.432 -0.4752 -0.3476 -0.5047
17598TIP3    H174285   0.359   0.254   4.421  0.0538  1.9570 -1.0413
17598TIP3    H274286   0.456   0.180   4.511 -2.1468  0.2847  0.0332
17599TIP3   OH274287   6.361   6.776   3.420 -0.1430 -0.0342 -0.6034
17599TIP3    H174288   6.390   6.693   3.381 -0.0035  0.4465 -1.5469
17599TIP3    H274289   6.432   6.837   3.400 -1.2789  0.8801 -1.9289
17600TIP3   OH274290   4.854   6.573   5.334 -0.2196 -0.6002  0.2004
17600TIP3    H174291   4.940   6.563   5.373 -0.4749 -0.5019  0.7854
17600TIP3    H274292   4.872   6.588   5.241  0.4662  0.9946  0.5700
17601TIP3   OH274293   0.161   4.783  10.542 -0.0741  0.4283 -0.0864
17601TIP3    H174294   0.248   4.800  10.504 -0.4144  3.0485  0.1792
17601TIP3    H274295   0.179   4.732  10.621  0.9898 -1.4223 -1.4922
17602TIP3   OH274296   0.411   6.528  16.584 -0.1473 -0.5142 -0.7908
17602TIP3    H174297   0.415   6.457  16.648 -1.2964  0.6771  0.6256
17602TIP3    H274298   0.481   6.588  16.610 -0.3184 -0.2517 -0.9312
17603TIP3   OH274299   3.185   4.063   1.302 -0.0397 -0.1450  0.2593
17603TIP3    H174300   3.121   4.057   1.231 -1.9983 -1.8728  2.0848
17603TIP3    H274301   3.143   4.118   1.368  1.6703  1.2645  0.2151
17604TIP3   OH274302   4.524   5.493   1.235  0.1558 -0.1202  0.1936
17604TIP3    H174303   4.459   5.557   1.264 -1.7808 -1.6094 -0.7206
17604TIP3    H274304   4.609   5.532   1.257 -1.0567  1.7302  1.6846
17605TIP3   OH274305   6.563   0.468  16.026 -0.2756 -0.1689  0.0135
17605TIP3    H174306   6.630   0.530  15.998  1.1334 -0.5422  2.3827
17605TIP3    H274307   6.523   0.508  16.103 -1.4469 -0.8549 -0.2119
17606TIP3   OH274308   5.414   1.518  12.407  0.1350  0.0282 -0.0084
17606TIP3    H174309   5.442   1.562  12.487  0.0654 -0.1145  0.0944
17606TIP3    H274310   5.345   1.458  12.435 -0.7059  0.8181 -0.3519
17607TIP3   OH274311   4.632   3.229  12.627  0.0577  0.3378  0.1312
17607TIP3    H174312   4.717   3.228  12.670 -0.3988  0.5696  1.0663
17607TIP3    H274313   4.590   3.147  12.654 -0.4253  0.7145  0.5278
17608TIP3   OH274314   5.355   3.795  13.294 -0.0812 -0.0453 -0.4095
17608TIP3    H174315   5.320   3.880  13.323 -2.1264 -0.5032 -1.4129
17608TIP3    H274316   5.335   3.735  13.366  3.0631  0.6620  1.1299
17609TIP3   OH274317   1.673   1.092   4.650 -0.3536 -0.1221 -0.2506
17609TIP3    H174318   1.660   1.154   4.722 -0.2235 -0.0087 -0.3256
17609TIP3    H274319   1.635   1.136   4.573 -0.7259 -0.3525 -0.1968
17610TIP3   OH274320   4.787   1.458  16.419 -0.5162 -0.4460 -0.2871
17610TIP3    H174321   4.831   1.499  16.344 -1.1402 -1.5806 -1.2814
17610TIP3    H274322   4.858   1.436  16.479  0.3575 -2.7156 -2.1036
17611TIP3   OH274323   6.218   3.826   5.135 -0.5307  0.3037 -0.4827
17611TIP3    H174324   6.171   3.909   5.126  1.7235  1.4864 -1.7637
17611TIP3    H274325   6.195   3.777   5.057  0.1998  0.8271 -1.0406
17612TIP3   OH274326   2.186   0.818  15.787  0.5339 -0.3620 -0.2313
17612TIP3    H174327   2.173   0.834  15.881 -1.0316 -1.7418 -0.1918
17612TIP3    H274328   2.279   0.834  15.773  0.9033 -0.6838  1.6824
17613TIP3   OH274329   5.392   4.876   3.214 -0.1062 -0.3139  0.1634
17613TIP3    H174330   5.402   4.804   3.152  0.4760  1.6736 -2.1106
17613TIP3    H274331   5.474   4.925   3.208 -0.8300  1.0424  1.0419
17614TIP3   OH274332   3.866   5.247  12.536 -0.3948  0.8154  0.2210
17614TIP3    H174333   3.852   5.303  12.460  1.6168  0.5993 -0.3286
17614TIP3    H274334   3.936   5.187  12.510 -1.8484 -1.3473  1.1399
17615TIP3   OH274335   6.594   3.946   0.939 -0.3008  0.2929 -0.8689
17615TIP3    H174336   6.689   3.940   0.927 -0.1023 -0.1888  0.7657
17615TIP3    H274337   6.572   4.036   0.915  0.5167  0.3137 -1.5592
17616TIP3   OH274338   6.535   6.376   3.704  0.2576 -0.2006  0.0059
17616TIP3    H174339   6.620   6.389   3.663  0.4452  0.4031  0.5851
17616TIP3    H274340   6.482   6.332   3.637  0.8170  0.0299 -0.5852
17617TIP3   OH274341   0.540   6.564  15.183  0.1470 -0.4115 -0.7085
17617TIP3    H174342   0.611   6.609  15.229 -0.5551  0.2657 -0.2721
17617TIP3    H274343   0.464   6.577  15.240 -0.9294  1.1341 -2.4763
17618TIP3   OH274344   6.048   5.181  10.990 -0.4657 -0.1754  0.1330
17618TIP3    H174345   5.993   5.258  11.000 -1.4487 -0.9165  0.5979
17618TIP3    H274346   6.056   5.169  10.895 -1.2833 -0.1818  0.0625
17619TIP3   OH274347   0.868   2.608   0.551 -0.3342  0.0059 -0.1791
17619TIP3    H174348   0.956   2.572   0.567 -0.4427 -1.7923 -3.3443
17619TIP3    H274349   0.809   2.535   0.564 -1.4301  1.2116  1.9186
17620TIP3   OH274350   5.638   6.724   3.381  0.3831 -0.0524 -0.1538
17620TIP3    H174351   5.606   6.638   3.407  1.4132 -0.8555 -1.5055
17620TIP3    H274352   5.577   6.752   3.313  2.0164 -1.2325 -2.1569
17621TIP3   OH274353   0.584   0.409  17.223 -0.5492 -1.1250 -0.4715
17621TIP3    H174354   0.641   0.431  17.149  1.6892  0.3862  1.6463
17621TIP3    H274355   0.580   0.313  17.222  0.8583 -1.1955 -1.5435
17622TIP3   OH274356   0.660   6.274  14.054  1.0216 -0.0044 -0.3040
17622TIP3    H174357   0.591   6.231  14.104  2.1517  2.7545  3.9159
17622TIP3    H274358   0.722   6.205  14.032  1.4844 -1.0567  3.9890
17623TIP3   OH274359   5.852   4.195  12.135  0.3725  0.2348  0.2513
17623TIP3    H174360   5.862   4.116  12.189  0.4242  0.9066  1.2325
17623TIP3    H274361   5.799   4.254  12.188  0.0827  0.7562 -0.6081
17624TIP3   OH274362   2.925   1.631  16.852  0.3380  0.2099 -0.1592
17624TIP3    H174363   2.923   1.611  16.945 -0.6054  0.7470 -0.0555
17624TIP3    H274364   3.010   1.673  16.838  0.0742  1.0353  0.6612
17625TIP3   OH274365   5.236   0.993   4.826 -0.3575 -0.0092 -0.2116
17625TIP3    H174366   5.228   0.957   4.914  1.6805 -1.1043 -0.4419
17625TIP3    H274367   5.146   1.000   4.795 -0.9943 -1.4947  1.2131
17626TIP3   OH274368   2.116   6.316  16.288 -0.4517 -0.5151 -0.4077
17626TIP3    H174369   2.132   6.308  16.382 -2.6086  1.5400  0.1849
17626TIP3    H274370   2.152   6.236  16.250  1.8926 -0.6304  1.9636
17627TIP3   OH274371   4.735   5.576   0.321  0.1114 -0.1113 -0.0567
17627TIP3    H174372   4.660   5.536   0.277 -0.4553  0.2772  0.5340
17627TIP3    H274373   4.696   5.638   0.383  0.9644  1.1215 -0.7329
17628TIP3   OH274374   4.010   5.044   5.837 -0.3328 -0.4442 -0.1390
17628TIP3    H174375   4.037   5.081   5.922 -4.1509  0.1644  0.8999
17628TIP3    H274376   3.992   5.120   5.782 -3.4700 -0.6867  0.4389
17629TIP3   OH274377   2.703   2.956   1.565  0.1818  0.5844 -1.1576
17629TIP3    H174378   2.622   2.930   1.521 -0.3129  0.6761 -0.3061
17629TIP3    H274379   2.683   2.949   1.658  1.8255 -1.5781 -0.9097
17630TIP3   OH274380   6.799   4.992  15.595  0.2602 -0.2278  0.0508
17630TIP3    H174381   6.759   5.027  15.674 -3.2625 -1.6231 -0.9988
17630TIP3    H274382   6.858   5.061  15.565  0.7104  0.8263  3.1690
17631TIP3   OH274383   5.558   5.170  14.590 -0.1713  0.3900 -0.2986
17631TIP3    H174384   5.637   5.212  14.555 -1.0304  1.8832 -0.4969
17631TIP3    H274385   5.591   5.096  14.641  1.4188  1.5069  0.3369
17632TIP3   OH274386   1.938   5.256  13.891 -0.1314  0.8466  0.8614
17632TIP3    H174387   1.974   5.173  13.924  0.0612  0.6174  0.0801
17632TIP3    H274388   1.998   5.323  13.925  1.0011  0.4719 -0.3706
17633TIP3   OH274389   0.528   4.953  15.250  0.1089  0.4056 -0.3240
17633TIP3    H174390   0.531   5.048  15.242 -0.3894  0.5508  1.1821
17633TIP3    H274391   0.609   4.930  15.295  1.7209 -0.1964 -3.3682
17634TIP3   OH274392   1.271   3.919  12.290 -0.2721 -0.1606  0.1887
17634TIP3    H174393   1.191   3.970  12.276  0.3832  1.1097  1.0022
17634TIP3    H274394   1.241   3.829  12.302 -1.5524  0.2719  0.2289
17635TIP3   OH274395   2.473   6.452   1.627 -0.1662 -0.3968 -0.4068
17635TIP3    H174396   2.427   6.410   1.554 -1.6469 -1.2800  0.9802
17635TIP3    H274397   2.473   6.385   1.695  1.9217  0.1262  0.1289
17636TIP3   OH274398   6.333   4.170   5.795  0.4073  0.5932 -0.2569
17636TIP3    H174399   6.394   4.198   5.726 -0.7774  1.4153 -0.9828
17636TIP3    H274400   6.254   4.144   5.748  0.3078 -0.8167  0.6579
17637TIP3   OH274401   3.904   0.783   0.627  0.5684 -0.1000  0.3327
17637TIP3    H174402   3.859   0.818   0.704  2.5162 -2.0302  2.4158
17637TIP3    H274403   3.897   0.688   0.636  0.0912 -0.3635 -2.3641
17638TIP3   OH274404   3.367   0.302   3.606 -0.6339  0.2699 -0.2866
17638TIP3    H174405   3.340   0.223   3.653 -0.3548  0.9297  1.0159
17638TIP3    H274406   3.409   0.269   3.526 -1.2906 -0.8697 -0.1778
17639TIP3   OH274407   3.546   2.012   0.767 -0.8301 -0.5871  0.2751
17639TIP3    H174408   3.475   2.070   0.792  0.3635  1.1317 -0.2351
17639TIP3    H274409   3.505   1.948   0.709 -1.8830  0.6262 -0.3546
17640TIP3   OH274410   2.427   6.306  14.434 -0.4626 -0.6511  0.1357
17640TIP3    H174411   2.422   6.271  14.345  2.6441 -0.3783 -0.1956
17640TIP3    H274412   2.359   6.373  14.438 -0.2052 -0.2083 -2.2590
17641TIP3   OH274413   5.912   4.319   2.834  0.0891 -0.6580 -0.0395
17641TIP3    H174414   5.936   4.256   2.901 -1.2234 -1.3104 -0.1759
17641TIP3    H274415   5.981   4.310   2.767 -1.1197 -3.3700 -0.9999
17642TIP3   OH274416   4.588   2.702   3.448  0.2282  0.8112  0.4689
17642TIP3    H174417   4.654   2.657   3.502  0.4370  2.8044  1.9368
17642TIP3    H274418   4.507   2.652   3.462  0.9932 -0.5403  0.1363
17643TIP3   OH274419   6.012   4.642   4.084  0.7018  0.2888  0.2725
17643TIP3    H174420   6.011   4.713   4.148  0.5099 -0.6050  1.2753
17643TIP3    H274421   5.923   4.643   4.047  1.3457  1.9630 -1.3008
17644TIP3   OH274422   0.044   2.007   4.454 -0.2608 -0.1108  0.3572
17644TIP3    H174423   0.122   1.957   4.480 -0.1335  0.0310  0.2442
17644TIP3    H274424   0.039   2.078   4.518  0.4721  0.6712 -0.4419
17645TIP3   OH274425   3.724   3.717  17.204 -0.5269  0.3426 -0.5369
17645TIP3    H174426   3.678   3.638  17.231  0.4966 -0.3104 -0.6799
17645TIP3    H274427   3.727   3.771  17.283 -0.2403 -0.2397 -0.1495
17646TIP3   OH274428   4.495   3.117  14.843  0.3273 -0.5857  0.2803
17646TIP3    H174429   4.488   3.177  14.918 -0.6191  0.0213 -0.2906
17646TIP3    H274430   4.445   3.040  14.870  0.4055 -0.5746  0.4622
17647TIP3   OH274431   3.700   6.614  15.425 -0.2213 -0.1174  0.3114
17647TIP3    H174432   3.694   6.526  15.389 -1.2565  0.4018 -0.8354
17647TIP3    H274433   3.761   6.606  15.498  1.1114 -1.4233 -0.8902
17648TIP3   OH274434   4.701   1.265  14.055  0.0560 -0.4282  0.3351
17648TIP3    H174435   4.668   1.317  13.982 -1.3448 -1.6722  0.0642
17648TIP3    H274436   4.623   1.227  14.095  0.8576 -0.2846  2.1006
17649TIP3   OH274437   4.905   2.624  12.397  0.3641 -0.3602  0.5829
17649TIP3    H174438   4.934   2.607  12.486 -1.4554  0.8710  1.4256
17649TIP3    H274439   4.823   2.576  12.388  0.0474  0.2901 -0.1127
17650TIP3   OH274440   3.059   6.011   2.087 -0.3017  0.2373  0.2202
17650TIP3    H174441   3.093   5.921   2.092 -0.1931  0.3096  0.7317
17650TIP3    H274442   2.995   6.007   2.017 -1.4581 -0.6219  1.3047
17651TIP3   OH274443   2.244   3.355  12.730  0.4512  0.1423  0.2155
17651TIP3    H174444   2.192   3.276  12.715 -1.1878  0.6391  3.0071
17651TIP3    H274445   2.271   3.349  12.821  0.9108  2.4691  0.2524
17652TIP3   OH274446   4.516   0.668  13.560  0.4641  0.0399 -0.5394
17652TIP3    H174447   4.580   0.598  13.566  1.0126  0.3305 -2.5549
17652TIP3    H274448   4.501   0.679  13.466 -1.5980  0.8256 -0.1540
17653TIP3   OH274449   2.508   6.225   3.168  0.5490  0.5574  0.5095
17653TIP3    H174450   2.502   6.316   3.138 -0.1772 -0.0835 -1.3940
17653TIP3    H274451   2.590   6.193   3.131 -1.6389 -1.0420 -3.2106
17654TIP3   OH274452   1.516   2.191  12.881  0.2446 -0.1229  0.0866
17654TIP3    H174453   1.486   2.194  12.790  0.0366  0.3519  0.1692
17654TIP3    H274454   1.559   2.106  12.889 -0.2590 -0.4128 -0.2909
17655TIP3   OH274455   2.665   5.176   3.461  0.5262 -0.3750  0.4482
17655TIP3    H174456   2.730   5.125   3.509  0.1697 -0.2946  1.0266
17655TIP3    H274457   2.709   5.257   3.437  1.0317 -0.8567 -0.2905
17656TIP3   OH274458   4.642   0.368  16.060 -0.0890  0.4722  0.5194
17656TIP3    H174459   4.551   0.400  16.060 -0.7757 -1.4219 -1.0739
17656TIP3    H274460   4.665   0.362  15.968  0.7250 -1.7088  0.8490
17657TIP3   OH274461   4.805   2.142   1.008  0.3767 -0.1552  0.7458
17657TIP3    H174462   4.883   2.197   1.004  2.1086 -2.4554  1.8913
17657TIP3    H274463   4.800   2.101   0.922 -1.2884  2.1869 -0.3393
17658TIP3   OH274464   1.107   3.972   5.193 -0.1031 -0.5153 -0.1964
17658TIP3    H174465   1.033   3.914   5.172 -2.1249  1.4006  1.3432
17658TIP3    H274466   1.085   4.009   5.279  1.7486  1.5324 -0.5525
17659TIP3   OH274467   0.396   2.871   0.275 -0.3199  0.8872 -0.3284
17659TIP3    H174468   0.426   2.813   0.344 -2.4109  0.9991  0.7294
17659TIP3    H274469   0.319   2.827   0.238 -2.4697  3.3313  1.0767
17660TIP3   OH274470   5.468   0.279  14.326 -0.2092 -0.3670  0.1792
17660TIP3    H174471   5.527   0.231  14.268  0.3991  1.1830 -0.5006
17660TIP3    H274472   5.398   0.310  14.268 -1.4577 -1.7815  0.8926
17661TIP3   OH274473   5.786   2.153  13.529 -0.0480 -0.0727  0.2676
17661TIP3    H174474   5.738   2.110  13.459 -1.5233  0.4777  0.9172
17661TIP3    H274475   5.760   2.245  13.524  0.7801  0.1951  0.7568
17662TIP3   OH274476   2.066   4.012  17.143  0.8068 -0.2785 -0.1541
17662TIP3    H174477   2.124   3.939  17.119 -0.3255 -0.7344 -1.5388
17662TIP3    H274478   2.126   4.080  17.174  1.9789 -1.3003 -0.1230
17663TIP3   OH274479   0.553   3.470  13.871  0.2447  0.0020 -0.0160
17663TIP3    H174480   0.598   3.482  13.787 -1.1593  2.3351 -0.4654
17663TIP3    H274481   0.617   3.499  13.936 -0.4102  3.0317 -0.6362
17664TIP3   OH274482   3.224   0.100  12.848  0.1173 -0.5439 -0.2689
17664TIP3    H174483   3.226   0.026  12.908  1.4186 -0.6186 -0.3995
17664TIP3    H274484   3.253   0.175  12.900 -0.7114 -0.2115 -0.2724
17665TIP3   OH274485   5.663   1.144  14.079  0.3649 -0.0899  0.4741
17665TIP3    H174486   5.723   1.169  14.150 -0.5204  2.7176  0.3137
17665TIP3    H274487   5.699   1.188  14.001 -2.1125  2.0917  0.4817
17666TIP3   OH274488   6.046   1.884  16.286 -0.2098 -0.3011 -0.1976
17666TIP3    H174489   6.081   1.957  16.235  1.7047 -0.1732  1.2829
17666TIP3    H274490   5.980   1.924  16.342 -0.0642  0.0697 -0.2868
17667TIP3   OH274491   2.660   3.814   5.704 -0.1726  0.3554 -0.5429
17667TIP3    H174492   2.576   3.767   5.696 -0.5696  0.9034  0.3263
17667TIP3    H274493   2.685   3.803   5.796  0.0739  1.2763 -0.4966
17668TIP3   OH274494   1.754   1.950  10.939  0.0281 -0.3820  0.4665
17668TIP3    H174495   1.681   1.890  10.923 -1.7157  1.0526  2.8118
17668TIP3    H274496   1.830   1.905  10.903 -1.3748 -3.6187  1.4044
17669TIP3   OH274497   2.246   1.401   4.529  0.1565 -0.1297  0.0533
17669TIP3    H174498   2.315   1.464   4.547 -1.0311  1.2883 -0.2784
17669TIP3    H274499   2.263   1.371   4.440  0.5160 -0.0115  0.0832
17670TIP3   OH274500   5.046   6.573   6.695 -0.3582 -0.4801 -0.3806
17670TIP3    H174501   5.043   6.652   6.642 -0.9324  0.2338  0.6805
17670TIP3    H274502   5.069   6.503   6.634 -1.5035  0.2303 -1.6622
17671TIP3   OH274503   3.370   2.559  14.697  0.1053  0.8003 -0.4541
17671TIP3    H174504   3.371   2.495  14.768 -1.6729 -0.6323 -1.6762
17671TIP3    H274505   3.450   2.611  14.710  0.4529 -0.2546  1.8203
17672TIP3   OH274506   0.151   3.512  12.654  0.2262 -0.1624  0.0335
17672TIP3    H174507   0.144   3.602  12.622 -1.3084  0.0417  0.9096
17672TIP3    H274508   0.205   3.468  12.589  1.5392  1.5403 -0.0858
17673TIP3   OH274509   1.544   2.164  12.516 -0.3394 -0.3952  0.2221
17673TIP3    H174510   1.582   2.095  12.461 -1.7283  1.3021 -3.0477
17673TIP3    H274511   1.611   2.233  12.516 -1.3939  0.6925 -1.6764
17674TIP3   OH274512   3.912   4.608  15.452  0.2252  0.1854 -0.1251
17674TIP3    H174513   3.896   4.628  15.359  0.5154  1.2795  0.0461
17674TIP3    H274514   3.825   4.587  15.487  0.0472  0.2069 -0.5464
17675TIP3   OH274515   0.130   0.043  11.802  0.0197 -0.2207 -0.2537
17675TIP3    H174516   0.196   0.046  11.733  0.1216  1.3882 -0.0985
17675TIP3    H274517   0.151  -0.036  11.852  0.7021 -0.7142 -1.3050
17676TIP3   OH274518   3.201   3.732  15.494  0.1947 -0.0015  0.1348
17676TIP3    H174519   3.289   3.698  15.481 -0.1743 -0.0699 -2.4918
17676TIP3    H274520   3.208   3.790  15.569  2.7144  0.8324 -0.7131
17677TIP3   OH274521   1.717   4.082   3.349 -0.2409 -0.1793  0.1827
17677TIP3    H174522   1.746   4.035   3.271 -0.2894 -0.5888  0.4071
17677TIP3    H274523   1.701   4.013   3.414 -1.7948  0.0384  0.0443
17678TIP3   OH274524   3.544   2.387  12.268 -0.5488  0.3257  0.7264
17678TIP3    H174525   3.519   2.386  12.361  1.8807 -0.3352  1.4235
17678TIP3    H274526   3.612   2.320  12.261 -0.7711  0.2953 -1.5745
17679TIP3   OH274527   3.966   6.241  12.734 -0.2552  0.3459 -0.4912
17679TIP3    H174528   3.891   6.186  12.755  2.4488 -2.2917  2.9549
17679TIP3    H274529   3.980   6.295  12.811  1.4719  0.6393 -0.9745
17680TIP3   OH274530   2.956   3.352   1.918 -0.3120 -0.4474  0.9337
17680TIP3    H174531   2.925   3.441   1.906  2.1499  0.1682 -1.3374
17680TIP3    H274532   2.906   3.300   1.855  0.4366 -0.1179  0.0508
17681TIP3   OH274533   0.263   3.431   1.609 -0.5590 -0.4848  0.0569
17681TIP3    H174534   0.228   3.410   1.522 -0.5222  0.2313 -0.1328
17681TIP3    H274535   0.257   3.526   1.615 -1.7451 -0.6274  1.3475
17682TIP3   OH274536   5.668   0.406  15.438  0.0485  0.4772  0.4636
17682TIP3    H174537   5.720   0.406  15.357 -1.1820 -0.3106 -0.3324
17682TIP3    H274538   5.716   0.347  15.496  0.5878  0.5293  0.0834
17683TIP3   OH274539   6.370   4.593   1.105 -0.1777  0.4172  0.0940
17683TIP3    H174540   6.448   4.576   1.157 -1.3820  1.0907  2.2186
17683TIP3    H274541   6.402   4.608   1.016  2.2042  1.7830  1.1335
17684TIP3   OH274542   4.963   0.334   3.132  0.2357  0.4192  0.2298
17684TIP3    H174543   4.940   0.390   3.206 -0.6253  1.1266 -0.5634
17684TIP3    H274544   4.996   0.395   3.066  0.8465 -0.1966 -0.0410
17685TIP3   OH274545   5.404   0.290   3.047  0.5846  0.1173  0.3448
17685TIP3    H174546   5.469   0.337   2.996 -0.5396 -1.1965 -2.3658
17685TIP3    H274547   5.360   0.358   3.098  1.7918  1.4369 -0.3392
17686TIP3   OH274548   5.173   3.858  13.504  0.0344  0.4366 -0.3033
17686TIP3    H174549   5.169   3.762  13.505  0.2997  0.4269 -0.1630
17686TIP3    H274550   5.195   3.883  13.594 -0.7071  0.6619 -0.1792
17687TIP3   OH274551   6.393   0.091  13.284  0.0822 -0.3365 -0.1824
17687TIP3    H174552   6.375   0.044  13.203 -1.2390 -0.6301  0.2552
17687TIP3    H274553   6.431   0.174  13.256  0.4213 -0.7803 -1.0570
17688TIP3   OH274554   4.553   4.901  17.159 -0.5084 -0.4452 -0.3986
17688TIP3    H174555   4.522   4.987  17.131 -0.6572 -0.9572 -1.8469
17688TIP3    H274556   4.632   4.886  17.107 -0.3531 -1.0742  0.0118
17689TIP3   OH274557   5.734   4.802   0.636 -0.5353  0.0625 -0.1022
17689TIP3    H174558   5.650   4.826   0.596 -1.6886 -1.1053  1.5604
17689TIP3    H274559   5.750   4.712   0.605 -0.5406 -0.1885  0.6172
17690TIP3   OH274560   4.053   1.004  10.442  0.0794  0.4267  0.8078
17690TIP3    H174561   4.050   1.091  10.403  2.5654  0.3117  0.2831
17690TIP3    H274562   4.066   1.021  10.536 -4.2397  0.6648  1.4524
17691TIP3   OH274563   0.003   1.196   3.673 -0.2860 -0.0756 -0.4626
17691TIP3    H174564   0.015   1.111   3.630  0.0360  0.3591 -1.2436
17691TIP3    H274565  -0.089   1.218   3.657  0.0808  0.5435 -1.7929
17692TIP3   OH274566   5.287   4.098   6.300  0.2535  0.5309  0.1539
17692TIP3    H174567   5.375   4.075   6.331  0.2633  1.0477  0.5229
17692TIP3    H274568   5.253   4.018   6.261  0.2962 -0.0939  1.3829
17693TIP3   OH274569   0.507   5.639  15.878 -0.5285  0.1241  0.1359
17693TIP3    H174570   0.472   5.715  15.924 -1.9246 -0.5078  0.1395
17693TIP3    H274571   0.430   5.585  15.860  0.1861 -0.3011 -1.6884
17694TIP3   OH274572   1.504   2.263   1.777  0.0858  0.5021 -0.0866
17694TIP3    H174573   1.568   2.329   1.804  0.4185 -0.6668  2.1111
17694TIP3    H274574   1.425   2.284   1.827  0.6789 -1.6477  1.8399
17695TIP3   OH274575   3.077   5.009  16.018 -0.0353 -0.1750 -0.4341
17695TIP3    H174576   3.090   5.075  16.085 -1.4855  0.0592 -0.3613
17695TIP3    H274577   3.055   4.929  16.066  1.0629 -0.5517 -0.5462
17696TIP3   OH274578   0.080   0.006   1.737 -0.0029  0.0017  0.6103
17696TIP3    H174579   0.023  -0.005   1.661 -2.5917  0.5431  2.3713
17696TIP3    H274580   0.105   0.098   1.735  2.4743 -0.6751 -1.2466
17697TIP3   OH274581   1.138   0.916  15.361  0.2837  0.4376 -0.4132
17697TIP3    H174582   1.201   0.986  15.343  0.9054  0.8202  2.9719
17697TIP3    H274583   1.090   0.945  15.439 -0.9634 -1.9093 -0.2348
17698TIP3   OH274584   0.380   6.152  13.087 -0.0534 -0.5080  0.0987
17698TIP3    H174585   0.439   6.129  13.159 -1.9989  0.2182  1.9673
17698TIP3    H274586   0.381   6.248  13.085 -1.4700 -0.4726  0.4374
17699TIP3   OH274587   1.573   0.698   0.482  0.0226  0.0131 -0.1499
17699TIP3    H174588   1.579   0.672   0.574  0.8253 -0.0567 -0.2183
17699TIP3    H274589   1.605   0.788   0.480  0.1705 -0.0440 -0.3918
17700TIP3   OH274590   5.739   1.336  10.699 -0.3751 -0.6653  0.4894
17700TIP3    H174591   5.712   1.394  10.628  1.5304 -0.3145  0.0143
17700TIP3    H274592   5.702   1.251  10.675 -1.1389 -0.1843 -0.0667
17701TIP3   OH274593   0.303   0.416  13.948 -0.2432  0.3662 -0.2036
17701TIP3    H174594   0.284   0.380  14.034  1.1516  1.1173  0.4384
17701TIP3    H274595   0.258   0.358  13.887 -1.7115  0.1581  1.0564
17702TIP3   OH274596   3.426   6.726  13.262  0.2971  0.4894  0.6452
17702TIP3    H174597   3.515   6.742  13.294  0.2644  0.0907  0.9422
17702TIP3    H274598   3.434   6.732  13.167  1.0699 -1.5607  0.5398
17703TIP3   OH274599   3.134   4.425  13.220  0.2885 -0.3017 -0.2435
17703TIP3    H174600   3.058   4.397  13.271  1.5816 -1.7828  0.8958
17703TIP3    H274601   3.118   4.518  13.203 -0.3558  0.1224  2.5355
17704TIP3   OH274602   6.591   2.339   2.524  0.7552  0.2192  0.2473
17704TIP3    H174603   6.504   2.325   2.563  0.8739 -1.1997  0.0377
17704TIP3    H274604   6.574   2.356   2.432  0.5247  2.7846  0.7485
17705TIP3   OH274605   5.949   4.660  17.247 -0.4277 -0.4632  0.2099
17705TIP3    H174606   5.907   4.727  17.193  1.7722  0.0326 -0.9286
17705TIP3    H274607   5.954   4.700  17.334  3.0394  1.9099 -0.9653
17706TIP3   OH274608   0.836   4.545  17.275 -0.0905 -0.1016 -0.1124
17706TIP3    H174609   0.877   4.611  17.331 -1.7832  0.9269 -0.0619
17706TIP3    H274610   0.909   4.508  17.225  1.5381 -1.2706  2.9568
17707TIP3   OH274611   4.362   0.245  14.290 -0.5141 -0.1594  0.2810
17707TIP3    H174612   4.304   0.321  14.282 -0.1107  0.1220 -0.0290
17707TIP3    H274613   4.417   0.249  14.211 -1.3878 -1.5484 -0.4132
17708TIP3   OH274614   4.431   6.399   4.963 -0.1097  0.3284 -0.0254
17708TIP3    H174615   4.371   6.470   4.985 -1.3358 -0.7752  0.2867
17708TIP3    H274616   4.457   6.363   5.048  1.3677  1.0932 -0.1457
17709TIP3   OH274617   4.784   4.165   1.623  0.2299  0.8715 -0.1244
17709TIP3    H174618   4.733   4.095   1.663  1.5909 -0.5357 -0.7724
17709TIP3    H274619   4.733   4.192   1.546 -1.0430  1.6848  0.9720
17710TIP3   OH274620   2.557   0.865  14.592  0.1290 -0.2929  0.4984
17710TIP3    H174621   2.609   0.904  14.663  0.9439 -0.0492 -0.2245
17710TIP3    H274622   2.467   0.867  14.624  0.1742  2.0781  0.5302
17711TIP3   OH274623   3.236   2.566   2.387 -0.0963  0.0187  0.2294
17711TIP3    H174624   3.164   2.609   2.432  0.8555  0.6326  1.2059
17711TIP3    H274625   3.259   2.625   2.315  1.0087  1.0210  1.3837
17712TIP3   OH274626   2.669   4.352  13.612  0.0377  0.2208  0.1894
17712TIP3    H174627   2.649   4.260  13.597  0.5694  0.0439  0.5170
17712TIP3    H274628   2.626   4.399  13.541  0.5577 -0.3684 -0.5156
17713TIP3   OH274629   3.077   5.281   2.117 -0.3254 -0.3934 -0.2506
17713TIP3    H174630   3.153   5.285   2.175 -1.3518 -1.0838  1.1850
17713TIP3    H274631   3.102   5.334   2.041  0.6924  1.3080  1.2217
17714TIP3   OH274632   3.259   5.590   1.363 -0.2187  0.3782  0.0624
17714TIP3    H174633   3.179   5.633   1.396 -0.0934 -0.1611  1.1051
17714TIP3    H274634   3.318   5.591   1.438  0.5858  0.3483 -0.5713
17715TIP3   OH274635   1.680   3.309  11.113 -0.4461  0.4638  0.4894
17715TIP3    H174636   1.635   3.292  11.030  0.6536  0.1864 -0.0532
17715TIP3    H274637   1.643   3.392  11.143  0.5024  1.5517 -1.2311
17716TIP3   OH274638   0.887   0.273  17.153 -0.1147 -0.4446 -0.0756
17716TIP3    H174639   0.878   0.223  17.234  0.3704 -0.1097  0.1916
17716TIP3    H274640   0.932   0.214  17.093  0.2246 -0.4241  0.1558
17717TIP3   OH274641   3.910   5.392  13.876 -0.6049  0.8534 -0.1922
17717TIP3    H174642   3.934   5.320  13.934 -0.6350  0.5128 -0.5926
17717TIP3    H274643   3.871   5.349  13.800  0.6818  1.2093 -1.0644
17718TIP3   OH274644   5.228   5.759   3.989 -0.5884 -0.3093 -0.1606
17718TIP3    H174645   5.204   5.852   3.990 -1.0454 -0.4365  1.1043
17718TIP3    H274646   5.233   5.737   3.896 -0.7828  0.9026 -0.4685
17719TIP3   OH274647   0.532   2.184  11.403 -0.0008 -0.1599 -0.1013
17719TIP3    H174648   0.545   2.123  11.475 -0.4085 -0.4903 -0.3051
17719TIP3    H274649   0.455   2.151  11.357 -0.9705  1.1826  0.5038
17720TIP3   OH274650   5.458   3.196   5.054 -0.5061 -0.2283 -0.4833
17720TIP3    H174651   5.454   3.237   5.141  3.3572  1.7471 -1.1299
17720TIP3    H274652   5.377   3.223   5.012 -1.0780  1.2458  1.4636
17721TIP3   OH274653   3.424   3.205   3.391  0.0174 -0.4999 -0.0083
17721TIP3    H174654   3.442   3.121   3.433 -0.4653 -0.5596  0.0829
17721TIP3    H274655   3.347   3.188   3.337 -0.3749  0.0138  0.3946
17722TIP3   OH274656   2.736   3.256   1.114 -0.0165 -0.1072 -0.5000
17722TIP3    H174657   2.695   3.342   1.123  1.2314  0.4152  0.3535
17722TIP3    H274658   2.812   3.272   1.058 -0.2507 -0.8250 -1.0301
17723TIP3   OH274659   3.398   4.709   2.678 -0.0324 -0.2288 -0.4136
17723TIP3    H174660   3.341   4.632   2.679  0.6003 -0.7070  0.6043
17723TIP3    H274661   3.486   4.672   2.691  0.1285  0.7780  1.5572
17724TIP3   OH274662   0.586   5.045  16.571  0.1917 -0.2615  0.1908
17724TIP3    H174663   0.674   5.013  16.593 -0.4367 -0.9515  1.7836
17724TIP3    H274664   0.578   5.031  16.476  1.2242 -1.6673  0.2894
17725TIP3   OH274665   6.205   0.782  11.376  0.2202 -0.3702  0.4734
17725TIP3    H174666   6.287   0.735  11.366  0.1929 -0.3803  0.3008
17725TIP3    H274667   6.153   0.757  11.300  0.7667  1.0784 -0.3939
17726TIP3   OH274668   6.220   3.085  14.596  0.1305 -0.0600 -0.2303
17726TIP3    H174669   6.204   3.159  14.655 -0.5543 -1.3431  1.2221
17726TIP3    H274670   6.249   3.014  14.654  1.9083 -0.5976 -1.7393
17727TIP3   OH274671   1.615   5.057  13.016 -0.4564  0.1673  0.2491
17727TIP3    H174672   1.594   5.033  13.106  1.3721  1.3982  1.0288
17727TIP3    H274673   1.564   4.996  12.963 -0.3961 -1.5807  2.1170
17728TIP3   OH274674   6.621   4.587   3.343  0.8851  0.2827  0.2109
17728TIP3    H174675   6.666   4.538   3.274 -0.3349  1.8807 -1.7484
17728TIP3    H274676   6.691   4.638   3.385  1.4812 -0.0070 -0.4190
17729TIP3   OH274677   4.073   3.878   0.733 -0.4378 -0.7301 -0.5403
17729TIP3    H174678   4.022   3.843   0.807 -0.3151 -1.2117 -0.6782
17729TIP3    H274679   4.122   3.802   0.700  1.3081 -0.0323  0.3576
17730TIP3   OH274680   6.193   6.091   6.455 -0.7510 -0.1477 -0.3214
17730TIP3    H174681   6.215   6.154   6.524 -0.6909 -0.4627 -0.0498
17730TIP3    H274682   6.098   6.095   6.449 -0.5746  2.1803 -2.4228
17731TIP3   OH274683   4.696   1.715   0.888  0.0404  0.1928  0.6488
17731TIP3    H174684   4.661   1.792   0.842 -2.1735 -0.2441  1.5502
17731TIP3    H274685   4.646   1.641   0.853 -0.9385 -0.2840  2.9984
17732TIP3   OH274686   0.731   2.994  13.017  0.2511  0.2606 -0.4372
17732TIP3    H174687   0.658   2.933  13.030 -0.4951  1.1544 -0.3906
17732TIP3    H274688   0.798   2.965  13.079 -0.6709  0.3870  0.6191
17733TIP3   OH274689   3.340   6.550  12.823 -0.3555  0.0107 -0.0394
17733TIP3    H174690   3.414   6.525  12.769 -0.2428 -2.5601  1.1766
17733TIP3    H274691   3.274   6.482  12.806 -0.8951  0.0257  1.8401
17734TIP3   OH274692   6.194   5.105  12.845 -0.2471  0.3046 -0.0653
17734TIP3    H174693   6.142   5.162  12.902 -0.6489  0.2976 -0.4256
17734TIP3    H274694   6.144   5.024  12.839  0.7535 -0.4135  1.1543
17735TIP3   OH274695   4.583   2.304   5.120  0.2311 -0.4196  0.4914
17735TIP3    H174696   4.507   2.333   5.070  1.1346  0.4705 -0.3741
17735TIP3    H274697   4.572   2.344   5.206  0.1516  0.3778  0.1056
17736TIP3   OH274698   2.508   1.178   3.847  0.1511 -0.6479  0.3100
17736TIP3    H174699   2.417   1.196   3.823  1.0983  0.4533 -2.6737
17736TIP3    H274700   2.506   1.090   3.884 -2.2413 -0.3405  0.9826
17737TIP3   OH274701   2.977   0.653   1.584  0.2185  0.3202 -0.1985
17737TIP3    H174702   2.943   0.704   1.658 -0.2631  0.0777 -0.2569
17737TIP3    H274703   3.033   0.586   1.626  0.0848  0.2915 -0.0660
17738TIP3   OH274704   1.915   4.050  10.786  0.6408 -0.1552 -0.0053
17738TIP3    H174705   1.835   4.036  10.736  0.9072 -0.1038 -0.4402
17738TIP3    H274706   1.982   4.070  10.721  0.8553  0.5047  0.4113
17739TIP3   OH274707   1.239   2.293  17.154 -0.5531  0.2862  0.0004
17739TIP3    H174708   1.272   2.347  17.226 -0.9034 -1.9085  1.8892
17739TIP3    H274709   1.147   2.316  17.147 -0.0481  2.0273 -1.1943
17740TIP3   OH274710   1.241   1.174  15.352 -0.3753 -1.0367 -0.3326
17740TIP3    H174711   1.161   1.224  15.339  0.4920  0.6773  0.7069
17740TIP3    H274712   1.298   1.200  15.280  0.3431  0.0539  0.6091
17741TIP3   OH274713   5.324   2.843   3.009 -0.2043  0.7399 -0.0287
17741TIP3    H174714   5.247   2.883   3.049 -0.2149  1.2951 -0.6073
17741TIP3    H274715   5.343   2.897   2.932  0.0830 -0.0656 -0.5307
17742TIP3   OH274716   6.116   5.284  13.722 -0.6217 -0.3791 -0.3052
17742TIP3    H174717   6.036   5.264  13.673 -1.7470  0.1088  1.3046
17742TIP3    H274718   6.113   5.227  13.798  0.9694 -0.9057 -0.6141
17743TIP3   OH274719   4.951   4.716  15.341 -0.6023  0.1747  0.7920
17743TIP3    H174720   4.986   4.804  15.355 -0.3141  0.4651 -1.5470
17743TIP3    H274721   4.861   4.720  15.372 -1.4793  2.1249 -1.8857
17744TIP3   OH274722   1.929   3.452   1.148  0.6296 -0.6323  0.3213
17744TIP3    H174723   1.846   3.411   1.169  1.3998 -1.8070  1.1038
17744TIP3    H274724   1.994   3.383   1.158  1.6899  0.2200 -0.4571
17745TIP3   OH274725   5.861   0.339   4.525 -0.3744  0.0037  0.3736
17745TIP3    H174726   5.861   0.429   4.555 -2.2209 -0.0042  0.4648
17745TIP3    H274727   5.953   0.317   4.512  0.0385  2.0885 -0.2604
17746TIP3   OH274728   3.928   1.881  11.866 -0.5915  0.2340  0.2245
17746TIP3    H174729   4.002   1.835  11.905 -0.4743  0.7387  0.6077
17746TIP3    H274730   3.866   1.892  11.939 -0.5256  0.8716  0.1866
17747TIP3   OH274731   5.050   4.162  17.197  0.2950 -0.1944 -0.2719
17747TIP3    H174732   4.971   4.213  17.177  1.1977  1.3783  0.1424
17747TIP3    H274733   5.044   4.145  17.291  0.4346 -0.1276 -0.2513
17748TIP3   OH274734   2.499   5.219  12.500  0.0221  0.6152  0.1270
17748TIP3    H174735   2.429   5.163  12.533  0.2230  0.6366  0.5841
17748TIP3    H274736   2.456   5.273  12.434 -0.0164 -0.5764 -0.8503
17749TIP3   OH274737   0.994   4.868  11.132  0.2343 -0.1883 -0.2626
17749TIP3    H174738   1.061   4.917  11.084  0.2664 -0.5298 -0.5718
17749TIP3    H274739   0.936   4.935  11.168  1.2127  0.1610  0.7156
17750TIP3   OH274740   0.252   1.202  13.471 -0.6408 -0.1254  0.3114
17750TIP3    H174741   0.313   1.271  13.494  0.7891 -1.2796  0.0273
17750TIP3    H274742   0.216   1.229  13.387 -2.3479  1.7464  1.5953
17751TIP3   OH274743   5.086   4.522   0.471 -0.3213 -0.3018  0.0053
17751TIP3    H174744   5.078   4.429   0.491 -1.4186 -0.4686 -1.1654
17751TIP3    H274745   4.997   4.557   0.478 -0.0129  0.5386 -0.1366
17752TIP3   OH274746   4.356   2.601   4.585 -0.1605 -0.2036 -0.5520
17752TIP3    H174747   4.442   2.561   4.571 -0.9125 -1.7987 -0.7509
17752TIP3    H274748   4.335   2.580   4.676 -0.3321  0.2009 -0.4985
17753TIP3   OH274749   3.315   1.042  13.984  0.1298  0.1861 -0.1551
17753TIP3    H174750   3.260   1.025  14.060  1.8651 -2.2362  0.6074
17753TIP3    H274751   3.255   1.076  13.918 -1.4892  1.8804  2.1062
17754TIP3   OH274752   1.370   0.889  14.476 -0.2079 -0.2000 -0.9233
17754TIP3    H174753   1.297   0.832  14.500  0.3859 -1.8682 -2.9019
17754TIP3    H274754   1.372   0.886  14.381  1.0193  1.6879 -0.9852
17755TIP3   OH274755   0.003   0.400  16.015  0.1496  0.0521 -0.1265
17755TIP3    H174756  -0.087   0.407  16.048 -0.2302  1.0300 -1.3277
17755TIP3    H274757   0.022   0.306  16.018 -1.2829 -0.2770 -0.7926
17756TIP3   OH274758   0.720   5.711  13.957  0.5099 -0.2825 -0.3620
17756TIP3    H174759   0.767   5.663  14.025 -0.2434  0.7243  0.8806
17756TIP3    H274760   0.668   5.644  13.913 -2.0572 -0.3746  2.6472
17757TIP3   OH274761   6.370   6.346   1.727 -0.0471  0.0377  0.2259
17757TIP3    H174762   6.346   6.279   1.662  0.3457 -1.0166  1.1555
17757TIP3    H274763   6.410   6.415   1.675  2.3263 -1.7837 -0.4644
17758TIP3   OH274764   6.216   3.771  16.502  0.5412  0.4129 -0.0392
17758TIP3    H174765   6.218   3.864  16.478 -3.3629  0.7988  0.8262
17758TIP3    H274766   6.269   3.766  16.581  0.3023  2.0248  0.2491
17759TIP3   OH274767   2.921   0.813   5.849  0.2560  0.1268  0.1272
17759TIP3    H174768   2.833   0.787   5.822 -0.8006  2.3528  1.3147
17759TIP3    H274769   2.937   0.895   5.803  1.7852 -0.3189 -0.1706
17760TIP3   OH274770   4.797   4.237  13.730 -0.1718 -0.3174  0.1022
17760TIP3    H174771   4.765   4.213  13.817 -0.7948 -1.8239 -0.5141
17760TIP3    H274772   4.885   4.200  13.724 -0.2607 -0.5120 -0.0250
17761TIP3   OH274773   2.831   0.481  14.037 -0.2691  0.0246  0.3556
17761TIP3    H174774   2.770   0.508  14.105  0.3851  0.0420  0.9470
17761TIP3    H274775   2.894   0.553  14.031 -1.0576  0.6027 -1.1780
17762TIP3   OH274776   5.782   3.733   1.884  0.1094  0.1006 -0.4496
17762TIP3    H174777   5.802   3.663   1.822  1.5642  0.1297 -0.0169
17762TIP3    H274778   5.826   3.707   1.965 -2.0127 -0.0892  0.7007
17763TIP3   OH274779   1.561   1.954  10.264  0.1364 -0.3382 -0.4421
17763TIP3    H174780   1.523   1.983  10.181 -1.6693  0.8543  0.7723
17763TIP3    H274781   1.493   1.901  10.305  0.6416 -0.1278  0.7017
17764TIP3   OH274782   4.200   4.734  15.855 -0.7668 -0.4456  0.1514
17764TIP3    H174783   4.271   4.672  15.873 -0.6448 -0.9693 -2.0117
17764TIP3    H274784   4.238   4.820  15.873 -0.0619 -0.8162  0.4596
17765TIP3   OH274785   3.779   6.816   2.467 -0.2227  0.1004 -0.2569
17765TIP3    H174786   3.697   6.830   2.513  0.0728  0.7669  0.0575
17765TIP3    H274787   3.845   6.864   2.517  0.3970 -0.5763 -0.4028
17766TIP3   OH274788   5.279   4.316  12.880  0.1926  0.4514 -0.4233
17766TIP3    H174789   5.323   4.392  12.916  1.4170  0.5301 -2.0124
17766TIP3    H274790   5.287   4.249  12.948 -0.4874  1.5799  0.7880
17767TIP3   OH274791   0.809   2.676  10.940  0.0199 -0.0932 -0.1001
17767TIP3    H174792   0.822   2.636  10.854 -0.6014 -0.6347  0.0504
17767TIP3    H274793   0.866   2.627  10.999 -0.2769 -0.3519 -0.0284
17768TIP3   OH274794   0.389   6.210  16.568 -0.6337  0.0370  0.0358
17768TIP3    H174795   0.359   6.121  16.585  0.0435 -0.1347  0.3734
17768TIP3    H274796   0.321   6.249  16.513 -1.8837 -0.0535  1.4950
17769TIP3   OH274797   6.496   5.410   2.571 -0.3015 -0.4300 -0.0811
17769TIP3    H174798   6.528   5.325   2.603  1.8672 -0.1646 -1.4085
17769TIP3    H274799   6.458   5.390   2.486  1.2624  0.1017 -0.9088
17770TIP3   OH274800   4.175   2.879  16.718  1.0581  0.1368  0.3021
17770TIP3    H174801   4.175   2.946  16.786 -1.2883  0.9861 -0.4758
17770TIP3    H274802   4.242   2.906  16.656  1.8868  0.3756  1.2890
17771TIP3   OH274803   1.111   2.606  13.358 -0.0123  0.6856  0.5059
17771TIP3    H174804   1.119   2.533  13.418  1.2576  0.0057 -0.4566
17771TIP3    H274805   1.089   2.681  13.413 -1.5343 -0.4483  1.4707
17772TIP3   OH274806   4.955   3.452   1.592  0.0769 -0.1842  0.6198
17772TIP3    H174807   5.022   3.510   1.628 -1.4984  1.0329  1.6681
17772TIP3    H274808   4.934   3.392   1.664 -0.8669  0.2592  0.7150
17773TIP3   OH274809   2.766   2.983   0.247 -0.5500 -0.3510 -0.1268
17773TIP3    H174810   2.826   3.005   0.319  0.1155 -1.6984 -0.2526
17773TIP3    H274811   2.805   3.024   0.170  0.4804 -1.6038 -0.2904
17774TIP3   OH274812   6.597   2.386  16.438  0.3544  0.4357 -0.1156
17774TIP3    H174813   6.636   2.381  16.525 -0.0648  0.0546  0.0540
17774TIP3    H274814   6.657   2.336  16.383  0.1444 -0.1117  0.1363
17775TIP3   OH274815   2.865   1.261  15.395 -0.5185 -0.1022  0.1802
17775TIP3    H174816   2.841   1.224  15.480  3.5133 -1.8561  0.6585
17775TIP3    H274817   2.800   1.226  15.334 -2.3277 -0.3579  2.2032
17776TIP3   OH274818   4.066   2.355  13.933  0.3705  0.6073  0.3080
17776TIP3    H174819   4.107   2.272  13.958 -0.1999 -0.4762 -2.2008
17776TIP3    H274820   4.081   2.362  13.839 -1.5880  2.2205  0.0753
17777TIP3   OH274821   2.723   1.380   0.874 -0.4942  0.2987 -0.2918
17777TIP3    H174822   2.687   1.453   0.925  0.6060 -0.0841  1.0659
17777TIP3    H274823   2.784   1.422   0.813 -2.2080  0.8139 -1.6975
17778TIP3   OH274824   2.092   3.139  14.816  0.6899  0.1272 -0.1522
17778TIP3    H174825   2.175   3.118  14.774  0.8036 -0.5075  0.3773
17778TIP3    H274826   2.117   3.171  14.903  0.4312  0.9219 -0.3576
17779TIP3   OH274827   3.331   2.125   2.165 -0.0574 -0.7547  0.0075
17779TIP3    H174828   3.284   2.161   2.241  2.2790  1.2637  0.5550
17779TIP3    H274829   3.392   2.061   2.203  1.0155  0.1571 -0.1455
17780TIP3   OH274830   6.319   4.080  11.497  0.1372 -0.2805  0.1844
17780TIP3    H174831   6.363   4.140  11.557  1.4880  0.0579 -1.1336
17780TIP3    H274832   6.348   3.993  11.525 -0.3009 -0.2052  0.8768
17781TIP3   OH274833   3.640   3.272  13.539  0.4944  0.7067  0.1478
17781TIP3    H174834   3.697   3.343  13.508  1.2443  0.3087  0.5986
17781TIP3    H274835   3.668   3.196  13.488  0.2822  0.5375  0.2867
17782TIP3   OH274836   5.510   3.302   4.118  0.1853 -0.0915 -0.3054
17782TIP3    H174837   5.457   3.339   4.048  1.2680  0.9089 -0.6206
17782TIP3    H274838   5.597   3.341   4.105  0.3377  0.3287  1.7417
17783TIP3   OH274839   5.056   6.429  11.054 -0.3299 -0.1023  0.0213
17783TIP3    H174840   5.050   6.334  11.049  2.1353 -0.1716 -2.5552
17783TIP3    H274841   5.118   6.446  11.124  1.8939 -0.5266 -1.8056
17784TIP3   OH274842   2.804   0.058   0.117  0.5163 -0.3209  0.3719
17784TIP3    H174843   2.743   0.112   0.067 -0.4316 -0.0664  1.7926
17784TIP3    H274844   2.794  -0.030   0.081 -0.7441 -0.2935  0.6633
17785TIP3   OH274845   0.691   0.438  11.739  0.2157  0.4872  0.1063
17785TIP3    H174846   0.680   0.358  11.791 -0.1825  0.9630  0.7631
17785TIP3    H274847   0.630   0.428  11.666 -0.8993  0.8464  0.9821
17786TIP3   OH274848   1.882   1.897   4.093  0.5602 -0.7031  0.3455
17786TIP3    H174849   1.910   1.917   4.004  0.0780 -0.5890  0.2187
17786TIP3    H274850   1.789   1.917   4.094  1.1566  2.2480  1.7372
17787TIP3   OH274851   4.926   3.445  17.263  0.1972  0.1836  0.1114
17787TIP3    H174852   4.858   3.499  17.303  0.5839  0.2462  0.6849
17787TIP3    H274853   4.972   3.505  17.204 -0.1046  0.1976 -0.1100
17788TIP3   OH274854   3.929   2.802  16.569  0.2597 -0.3997 -0.3316
17788TIP3    H174855   3.912   2.719  16.614  2.1934 -0.4601  0.3193
17788TIP3    H274856   4.001   2.842  16.619 -0.1167  1.2927 -1.1238
17789TIP3   OH274857   2.777   3.922   0.503 -0.0873 -0.1493 -0.2430
17789TIP3    H174858   2.727   3.841   0.498 -0.4400  0.0886 -0.6798
17789TIP3    H274859   2.824   3.926   0.420 -0.3383  0.2604 -0.3671
17790TIP3   OH274860   4.605   0.763  10.982 -0.1662 -0.1215  0.6944
17790TIP3    H174861   4.649   0.814  10.914 -0.2185  0.4882  1.1087
17790TIP3    H274862   4.600   0.675  10.946  1.1708 -0.1490  0.5424
17791TIP3   OH274863   4.571   3.567   3.978  0.5089  0.0944  0.3256
17791TIP3    H174864   4.560   3.631   3.908 -3.0814  0.2698  0.9598
17791TIP3    H274865   4.595   3.620   4.055 -0.7551  0.5031  0.4456
17792TIP3   OH274866   4.468   4.288  15.319 -0.2308 -0.2233  0.4184
17792TIP3    H174867   4.463   4.240  15.237 -1.1354 -0.8020  0.8070
17792TIP3    H274868   4.524   4.235  15.376  1.6687  0.9337 -0.3233
17793TIP3   OH274869   5.973   1.215   1.089 -0.1933 -0.3165 -0.8405
17793TIP3    H174870   6.060   1.232   1.055  0.6058 -1.8257  0.4101
17793TIP3    H274871   5.959   1.282   1.156  0.3674 -0.6333 -0.4093
17794TIP3   OH274872   4.382   5.316  17.274  0.3758  0.0907  0.0633
17794TIP3    H174873   4.302   5.329  17.324  0.5051 -0.0290  0.3027
17794TIP3    H274874   4.452   5.324  17.339  0.5375 -0.2385 -0.0686
17795TIP3   OH274875   0.728   3.987   3.676 -0.0201  0.7035  0.0617
17795TIP3    H174876   0.764   4.048   3.741  3.7764 -0.3451 -0.9217
17795TIP3    H274877   0.780   3.908   3.686 -0.1149  0.1270 -3.4447
17796TIP3   OH274878   5.571   2.318   6.667  0.3267  0.6590  0.6758
17796TIP3    H174879   5.638   2.330   6.735  2.1657 -2.2570 -0.5046
17796TIP3    H274880   5.599   2.376   6.597  1.8474 -0.7311  0.0856
17797TIP3   OH274881   3.695   3.553   4.323 -0.7934  0.2006  0.4228
17797TIP3    H174882   3.674   3.606   4.400  1.2124  0.1302  1.0228
17797TIP3    H274883   3.773   3.504   4.347  1.1671  1.7993 -2.3984
17798TIP3   OH274884   6.709   6.146   4.317  0.4445  0.0709  0.2009
17798TIP3    H174885   6.627   6.103   4.292 -0.1421  0.4941  1.3689
17798TIP3    H274886   6.724   6.211   4.248  0.1364 -0.4441 -0.3544
17799TIP3   OH274887   1.475   4.288  13.272 -0.0433 -0.0810  0.4610
17799TIP3    H174888   1.461   4.285  13.177 -0.8013 -0.1259  0.5690
17799TIP3    H274889   1.388   4.274  13.309  0.1951  0.2829  1.1631
17800TIP3   OH274890   2.942   6.334  13.965 -0.1479  0.4769  0.0859
17800TIP3    H174891   2.867   6.301  14.014 -1.8401  2.2790 -1.2426
17800TIP3    H274892   2.949   6.276  13.889 -1.3545  1.4247 -0.7582
17801TIP3   OH274893   0.813   1.088  14.188 -0.0851 -0.4299 -0.1767
17801TIP3    H174894   0.769   1.126  14.112 -0.2858  1.1264  0.6806
17801TIP3    H274895   0.762   1.011  14.210 -0.8476 -0.0986 -0.7744
17802TIP3   OH274896   2.577   3.984  15.673 -0.0910  0.3006  0.8519
17802TIP3    H174897   2.642   3.946  15.614  0.5425  1.6755  0.6412
17802TIP3    H274898   2.524   3.910  15.701  0.7247 -0.6370 -0.0390
17803TIP3   OH274899   5.450   2.613  15.853  0.0119 -0.8274 -0.4443
17803TIP3    H174900   5.377   2.654  15.899 -1.1671 -1.6505 -1.5421
17803TIP3    H274901   5.495   2.561  15.919 -0.4004 -0.3336  0.2279
17804TIP3   OH274902   5.377   4.067  12.210  0.0818  0.2577  0.6989
17804TIP3    H174903   5.395   4.020  12.291  0.7248  0.5283  0.7171
17804TIP3    H274904   5.462   4.103  12.183  0.0440 -0.5393 -0.5412
17805TIP3   OH274905   1.020   4.856  11.797  0.6170  0.2729  0.0719
17805TIP3    H174906   1.048   4.932  11.747  0.1441  0.0888 -0.4752
17805TIP3    H274907   0.926   4.851  11.782  0.5301 -0.0033  0.6814
17806TIP3   OH274908   0.354   5.850   0.494 -0.5121  0.0460  0.1294
17806TIP3    H174909   0.415   5.905   0.445  1.1965  0.2894  2.4393
17806TIP3    H274910   0.289   5.911   0.529 -1.5359 -0.0863 -1.4668
17807TIP3   OH274911   2.671   0.054  16.755  0.4082  0.4694  0.3723
17807TIP3    H174912   2.732   0.120  16.787  1.4762 -0.8341  1.0852
17807TIP3    H274913   2.630   0.094  16.678  1.7617  1.5559  0.1922
17808TIP3   OH274914   1.103   4.684  14.682  0.0491 -0.0524  0.3027
17808TIP3    H174915   1.115   4.590  14.669 -1.8629 -0.2702 -0.0344
17808TIP3    H274916   1.090   4.719  14.594 -1.9176  0.1224  0.6517
17809TIP3   OH274917   3.279   2.306  13.372  0.4511 -0.3252  0.0081
17809TIP3    H174918   3.191   2.345  13.380  0.6008  0.2781 -1.0965
17809TIP3    H274919   3.297   2.269  13.458 -1.2404 -1.1874  0.0087
17810TIP3   OH274920   5.877   3.974  14.395 -0.2367  0.2280  0.8278
17810TIP3    H174921   5.951   3.940  14.445 -0.2632 -2.2612 -0.7368
17810TIP3    H274922   5.802   3.962  14.453 -0.0091 -1.0057  0.8904
17811TIP3   OH274923   5.727   1.573  14.858  0.1795 -0.3390 -0.2927
17811TIP3    H174924   5.725   1.481  14.884 -0.3464  0.4359  2.5560
17811TIP3    H274925   5.796   1.612  14.911  0.4500  0.9188 -1.5297
17812TIP3   OH274926   3.892   5.175   4.094 -0.2317  0.2973  0.0679
17812TIP3    H174927   3.829   5.118   4.139 -2.7905  2.0767 -1.0894
17812TIP3    H274928   3.932   5.227   4.164 -0.8455 -0.1104  0.7321
17813TIP3   OH274929   4.605   2.447  15.106  0.1493 -0.2905 -0.7175
17813TIP3    H174930   4.637   2.496  15.031 -0.1362  0.2713 -0.4716
17813TIP3    H274931   4.636   2.357  15.091  0.1258 -0.1747 -1.4876
17814TIP3   OH274932   3.365   5.636   5.268  0.3027 -0.2372  0.2399
17814TIP3    H174933   3.402   5.577   5.333 -0.5398 -0.2979  0.6737
17814TIP3    H274934   3.271   5.636   5.286  0.2082  0.6927 -0.1931
17815TIP3   OH274935   1.088   0.205   4.104 -0.3001 -0.0682  0.5974
17815TIP3    H174936   1.152   0.225   4.172  1.5482 -0.8044 -0.8654
17815TIP3    H274937   1.081   0.110   4.105 -0.6504 -0.0508  0.0895
17816TIP3   OH274938   4.766   5.308   3.799 -1.2119 -0.2918  0.7077
17816TIP3    H174939   4.720   5.305   3.715 -0.1327 -0.6305  0.1203
17816TIP3    H274940   4.697   5.302   3.864 -2.0307 -0.4756 -0.1621
17817TIP3   OH274941   0.206   0.424  11.471 -0.1734  0.5740 -0.2097
17817TIP3    H174942   0.240   0.360  11.534 -0.1470  0.3934 -0.4044
17817TIP3    H274943   0.177   0.497  11.524 -0.0970  0.4469  0.0084
17818TIP3   OH274944   6.370   1.466   5.452  0.9207 -0.0845 -0.1230
17818TIP3    H174945   6.377   1.560   5.433  0.0930  0.1889  0.8351
17818TIP3    H274946   6.372   1.462   5.548  0.4904 -1.0042 -0.1508
17819TIP3   OH274947   1.168   4.672  13.380 -0.6132 -0.6805  0.8962
17819TIP3    H174948   1.095   4.710  13.428  0.2414  0.4788  1.2977
17819TIP3    H274949   1.240   4.670  13.443  0.2259 -0.1087 -0.0337
17820TIP3   OH274950   6.065   3.664   3.254  1.1759 -0.0710 -0.2757
17820TIP3    H174951   6.030   3.732   3.312  1.3309  0.4039 -0.7415
17820TIP3    H274952   5.990   3.634   3.203  1.0361 -0.5018  0.1712
17821TIP3   OH274953   5.343   2.174   0.000  0.1205  0.2106 -0.4762
17821TIP3    H174954   5.294   2.228   0.062  0.3113  0.5404 -0.6133
17821TIP3    H274955   5.435   2.192   0.020  0.1855 -0.1152 -0.4751
17822TIP3   OH274956   4.853   4.868  15.990 -0.3156  0.3799 -0.1332
17822TIP3    H174957   4.948   4.854  16.000 -0.0789  0.3906 -2.0614
17822TIP3    H274958   4.836   4.847  15.898 -2.1557  0.6113  0.1392
17823TIP3   OH274959   4.383   2.882   5.430 -0.2987 -0.0862  0.0702
17823TIP3    H174960   4.464   2.924   5.402 -0.9678  1.1694  0.0262
17823TIP3    H274961   4.314   2.928   5.383 -1.0991 -0.7624  0.5639
17824TIP3   OH274962   0.637   2.002   0.939 -0.7716  0.0076  0.1505
17824TIP3    H174963   0.627   2.021   1.033 -0.5075  0.1077  0.1603
17824TIP3    H274964   0.557   2.036   0.900 -0.0721  1.6899  0.1010
17825TIP3   OH274965   0.641   6.492  11.912 -0.0324  0.4194  0.1407
17825TIP3    H174966   0.704   6.522  11.847  0.8020 -0.8165  0.3568
17825TIP3    H274967   0.688   6.424  11.960 -2.2559 -2.0484 -1.0952
17826TIP3   OH274968   2.563   5.583  12.069  0.4090  0.0388  0.7852
17826TIP3    H174969   2.611   5.500  12.067 -0.0750 -0.2399  0.4921
17826TIP3    H274970   2.512   5.583  11.988  2.3594  1.8115 -0.4643
17827TIP3   OH274971   5.951   0.917   0.836  0.1947 -0.1264 -0.1163
17827TIP3    H174972   5.894   0.911   0.759  0.1397  0.2428 -0.1057
17827TIP3    H274973   6.011   0.989   0.816 -1.1901  1.4114  1.0730
17828TIP3   OH274974   6.735   1.290  13.636 -0.5785 -0.3914  0.1487
17828TIP3    H174975   6.669   1.230  13.671 -0.9811 -0.4763 -0.7433
17828TIP3    H274976   6.722   1.287  13.541  1.3395 -1.1666 -0.1182
17829TIP3   OH274977   6.137   1.172   2.398  0.4234  0.2050 -0.1945
17829TIP3    H174978   6.115   1.259   2.364  0.6840  0.0377 -0.7926
17829TIP3    H274979   6.062   1.118   2.374  0.0856  0.3468  0.5168
17830TIP3   OH274980   2.739   6.333   4.776 -0.1762  0.2665 -0.3098
17830TIP3    H174981   2.778   6.279   4.844 -0.5944  0.5722  0.1794
17830TIP3    H274982   2.812   6.384   4.740  0.3047 -0.9641 -1.1037
17831TIP3   OH274983   6.081   2.502   0.557 -0.2387  0.2156  0.1178
17831TIP3    H174984   6.026   2.425   0.560 -0.4289  0.3214 -0.6087
17831TIP3    H274985   6.084   2.527   0.464 -1.3210  1.8877  0.4979
17832TIP3   OH274986   6.476   3.728  11.880  0.3510 -0.3953 -0.1714
17832TIP3    H174987   6.454   3.820  11.893  0.1699 -0.2476 -1.4149
17832TIP3    H274988   6.515   3.725  11.792  1.5241 -1.2991  0.3648
17833TIP3   OH274989   6.661   2.347   3.121  0.5972 -0.3161 -0.2913
17833TIP3    H174990   6.724   2.359   3.192 -0.4917 -0.1981  0.6746
17833TIP3    H274991   6.604   2.424   3.126  0.4815 -0.3328 -1.2612
17834TIP3   OH274992   6.016   0.130  16.291  0.3083  0.3032 -0.2702
17834TIP3    H174993   6.100   0.083  16.285 -0.6213 -1.2989 -1.2686
17834TIP3    H274994   5.999   0.160  16.201  0.2327  1.3834  0.1030
17835TIP3   OH274995   1.406   6.764  13.232 -0.0775  0.3590 -0.6032
17835TIP3    H174996   1.427   6.847  13.274 -0.6648 -0.6215  1.7235
17835TIP3    H274997   1.313   6.751  13.248  0.0182 -0.7686 -0.8721
17836TIP3   OH274998   2.304   4.865  16.017 -0.3096 -0.7194 -0.5125
17836TIP3    H174999   2.267   4.863  16.106  1.2533 -1.2298  0.1401
17836TIP3    H275000   2.326   4.957  16.003  0.0753 -0.7500 -0.1069
17837TIP3   OH275001   2.084   4.011  12.609  0.2191  0.0388 -0.6399
17837TIP3    H175002   2.044   4.014  12.696 -0.4776 -2.0497 -0.8692
17837TIP3    H275003   2.021   4.056  12.552 -0.6593 -1.0555 -0.5501
17838TIP3   OH275004   5.148   3.357   3.512 -0.0739 -0.2015  0.4492
17838TIP3    H175005   5.106   3.363   3.426  1.5932 -2.9434 -0.5993
17838TIP3    H275006   5.118   3.436   3.558 -0.9345  1.3666 -2.6385
17839TIP3   OH275007   3.928   0.506  17.047  0.3896  0.1157 -0.3476
17839TIP3    H175008   3.932   0.462  17.132  0.2522 -0.0510 -0.4254
17839TIP3    H275009   3.989   0.579  17.054 -2.2518  2.2501  1.1563
17840TIP3   OH275010   1.013   5.150   4.254  0.2490  1.0060  0.4418
17840TIP3    H175011   1.085   5.213   4.261  2.0705 -0.5928 -2.6588
17840TIP3    H275012   1.037   5.095   4.179 -2.4918 -1.8276  1.5486
17841TIP3   OH275013   2.245   4.434  16.313 -0.5251  0.1351 -0.4211
17841TIP3    H175014   2.277   4.427  16.223  1.7208  0.7469  0.2866
17841TIP3    H275015   2.274   4.352  16.355 -0.1528  0.5470  0.1374
17842TIP3   OH275016   6.747   1.142   5.193 -0.2589 -0.0250 -0.3499
17842TIP3    H175017   6.746   1.183   5.106  0.7523 -0.0142 -0.3668
17842TIP3    H275018   6.681   1.190   5.243  0.4831  1.2371 -0.5458
17843TIP3   OH275019   0.803   1.986  11.031 -0.4471  0.1194 -0.1185
17843TIP3    H175020   0.806   2.081  11.021  2.1643 -0.0179 -0.9715
17843TIP3    H275021   0.817   1.952  10.943 -1.0142 -1.0732  0.2338
17844TIP3   OH275022   3.232   3.514  10.741 -0.1777 -0.3010 -0.2214
17844TIP3    H175023   3.144   3.546  10.758 -0.4323 -1.4874  0.7788
17844TIP3    H275024   3.264   3.568  10.669 -1.0419  1.3331  0.5979
17845TIP3   OH275025   4.039   0.803   1.181 -0.3862 -0.1628 -0.7542
17845TIP3    H175026   4.010   0.794   1.271 -0.4985  0.3444 -0.7426
17845TIP3    H275027   4.035   0.713   1.146  1.4802 -0.6880  0.2939
17846TIP3   OH275028   4.757   0.790  16.748  0.5556  0.3219  0.2000
17846TIP3    H175029   4.684   0.815  16.804 -1.0752 -2.5263 -0.5727
17846TIP3    H275030   4.731   0.819  16.660  0.0396 -1.2533 -0.1811
17847TIP3   OH275031   2.768   6.457  15.487  0.3999  0.5266  0.2148
17847TIP3    H175032   2.709   6.529  15.510  0.4212  0.7988 -0.5823
17847TIP3    H275033   2.718   6.378  15.507 -0.1586  0.7572 -0.2762
17848TIP3   OH275034   1.675   0.733   4.079  0.5377  0.0618  0.4893
17848TIP3    H175035   1.585   0.704   4.065 -0.0785  1.2710  1.8463
17848TIP3    H275036   1.693   0.711   4.171  1.3205  0.6601  0.4842
17849TIP3   OH275037   5.536   4.430  12.935  0.1513 -0.3422  0.0140
17849TIP3    H175038   5.563   4.427  12.843 -2.0204 -2.6020 -0.6103
17849TIP3    H275039   5.605   4.383  12.982 -1.2406 -3.7231 -1.1970
17850TIP3   OH275040   3.956   6.497  13.900  0.0849 -0.2382  0.2790
17850TIP3    H175041   4.002   6.487  13.983  0.5212  2.4383  0.4104
17850TIP3    H275042   3.864   6.489  13.922  0.2338 -0.2391  0.8934
17851TIP3   OH275043   4.289   0.006  16.817 -0.8738 -0.4578  0.1664
17851TIP3    H175044   4.200   0.015  16.782 -0.0246  1.2946 -1.6816
17851TIP3    H275045   4.330   0.091  16.798  0.3118 -0.1971  3.5822
17852TIP3   OH275046   4.619   3.369   0.957 -1.1443 -0.7672 -0.3624
17852TIP3    H175047   4.592   3.279   0.977 -0.9046 -1.0823 -1.3932
17852TIP3    H275048   4.580   3.387   0.871 -1.6723  0.3239  0.1028
17853TIP3   OH275049   4.257   3.932   6.619  0.2874 -0.3036 -0.3020
17853TIP3    H175050   4.231   3.994   6.687 -0.1446 -0.1016 -0.6508
17853TIP3    H275051   4.227   3.972   6.537 -1.5991 -1.8238 -0.3707
17854TIP3   OH275052   0.517   0.105  12.103 -0.3836  0.1977  0.4848
17854TIP3    H175053   0.485   0.087  12.015  1.1545 -0.0800 -0.0401
17854TIP3    H275054   0.502   0.023  12.151  0.9465 -0.4470 -0.1845
17855TIP3   OH275055   2.829   0.819  12.409 -0.0296  0.5465  0.5982
17855TIP3    H175056   2.760   0.839  12.345 -0.2859  1.2089  1.0672
17855TIP3    H275057   2.888   0.894  12.404 -0.0315  0.5792  1.1158
17856TIP3   OH275058   4.602   2.075  16.734  0.1575  0.1282 -0.7913
17856TIP3    H175059   4.634   2.050  16.820  1.3525 -0.9283 -1.5293
17856TIP3    H275060   4.601   2.171  16.735 -1.4463  0.1046  0.9622
17857TIP3   OH275061   3.755   3.958  17.031  0.6120 -0.5441  0.2279
17857TIP3    H175062   3.718   3.873  17.054  0.1104 -0.3862  0.0041
17857TIP3    H275063   3.748   4.010  17.112 -0.4843 -0.2239 -0.0688
17858TIP3   OH275064   6.141   3.850  12.526  0.2929 -0.3248 -0.3363
17858TIP3    H175065   6.157   3.807  12.442 -0.2174  0.5453 -0.8943
17858TIP3    H275066   6.224   3.893  12.548  0.7056 -1.3282  0.0669
17859TIP3   OH275067   3.363   4.833  13.882 -0.3813  0.6914 -0.3567
17859TIP3    H175068   3.380   4.846  13.976  1.1766  2.0312 -0.8052
17859TIP3    H275069   3.340   4.740  13.875  0.9516  0.2270  1.1409
17860TIP3   OH275070   1.705   4.906   4.618  0.7439  0.5052 -0.1520
17860TIP3    H175071   1.726   4.880   4.528  1.8004  0.0064  0.2267
17860TIP3    H275072   1.618   4.945   4.612 -0.1037 -1.4675 -1.0328
17861TIP3   OH275073   4.919   6.539   2.225  0.1647  0.6789 -0.3843
17861TIP3    H175074   4.943   6.460   2.271  0.2132 -0.1020 -1.7176
17861TIP3    H275075   4.941   6.521   2.133 -1.4271  1.5643 -0.9623
17862TIP3   OH275076   6.277   2.105   6.093 -0.3164  0.0215 -0.0113
17862TIP3    H175077   6.319   2.018   6.098  0.5346  0.4489  0.4020
17862TIP3    H275078   6.262   2.129   6.185  1.5965  1.3320 -0.0226
17863TIP3   OH275079   4.629   1.518   0.534  0.1551 -0.0049  0.2807
17863TIP3    H175080   4.643   1.563   0.618 -1.0026 -0.5943  0.8087
17863TIP3    H275081   4.656   1.428   0.550 -1.4488 -0.4655  0.4699
17864TIP3   OH275082   0.605   2.757  13.072 -0.4247  0.1327 -0.2688
17864TIP3    H175083   0.556   2.696  13.127  0.0650 -1.0300 -1.1200
17864TIP3    H275084   0.586   2.730  12.983  3.3007 -1.6184 -0.6068
17865TIP3   OH275085   5.981   5.592  12.447  0.1393  0.2338  0.0930
17865TIP3    H175086   5.915   5.618  12.512 -0.8519  0.4207 -0.9737
17865TIP3    H275087   5.942   5.516  12.404 -0.2539  1.5254 -1.8832
17866TIP3   OH275088   6.447   2.301  10.936 -0.0700 -0.1187  0.0939
17866TIP3    H175089   6.369   2.247  10.923 -0.6931  1.0958 -1.4857
17866TIP3    H275090   6.429   2.381  10.887  0.6638  1.7135  2.7006
17867TIP3   OH275091   4.494   4.563   2.121  0.2467 -0.4862 -0.3052
17867TIP3    H175092   4.517   4.488   2.176  1.2589  1.1071  1.4949
17867TIP3    H275093   4.572   4.618   2.122 -0.9947  1.3147 -0.3835
17868TIP3   OH275094   1.449   6.198  15.996 -0.3386  0.0632  0.1794
17868TIP3    H175095   1.435   6.132  15.928 -0.6718  0.7365 -0.4123
17868TIP3    H275096   1.498   6.153  16.064  0.9628 -0.3267 -1.0019
17869TIP3   OH275097   4.739   5.326  13.595  0.8172  0.0193 -0.2294
17869TIP3    H175098   4.773   5.344  13.508  0.3554 -0.8688 -0.5929
17869TIP3    H275099   4.660   5.380  13.602  1.1452  0.4919 -0.1610
17870TIP3   OH275100   4.417   0.237  15.703  0.2261  0.2097 -0.1252
17870TIP3    H175101   4.503   0.279  15.705 -0.5740  1.8550  0.4798
17870TIP3    H275102   4.406   0.210  15.612  0.8553  1.1389 -0.4885
17871TIP3   OH275103   3.182   2.885   2.749  0.4367 -0.3022 -0.1209
17871TIP3    H175104   3.146   2.974   2.757 -0.0814 -0.5985  0.9290
17871TIP3    H275105   3.116   2.837   2.700  2.2434  0.7339 -3.7659
17872TIP3   OH275106   4.412   3.584  14.947  0.2344 -0.0511  0.3401
17872TIP3    H175107   4.400   3.660  15.004  1.6109 -0.8419  1.7354
17872TIP3    H275108   4.343   3.592  14.881  0.1056  2.1713  0.7080
17873TIP3   OH275109   2.025   4.808   3.828 -0.0124  0.3001  0.2756
17873TIP3    H175110   2.121   4.816   3.824 -0.0173  1.2034  1.6983
17873TIP3    H275111   1.996   4.832   3.740  1.1278 -0.9936 -0.4875
17874TIP3   OH275112   2.679   0.787  14.056  0.2642 -0.2188 -0.4482
17874TIP3    H175113   2.688   0.882  14.051 -0.6322 -0.0695  0.4857
17874TIP3    H275114   2.670   0.769  14.149 -0.6459 -1.1059 -0.6939
17875TIP3   OH275115   5.582   4.181   1.421  0.1086  0.1783 -0.7322
17875TIP3    H175116   5.554   4.139   1.503  1.0852  2.9845  1.1182
17875TIP3    H275117   5.524   4.257   1.413  1.3853  1.0868 -1.5149
17876TIP3   OH275118   1.377   3.468  11.796 -1.0793  0.4601 -0.1696
17876TIP3    H175119   1.388   3.379  11.765 -0.4427  0.5129 -0.0938
17876TIP3    H275120   1.283   3.475  11.816 -1.0524 -0.3224  0.2455
17877TIP3   OH275121   2.954   3.670  14.163  0.6002 -0.0916  0.4204
17877TIP3    H175122   2.961   3.624  14.246  0.5139  0.2519  0.6164
17877TIP3    H275123   2.973   3.603  14.097 -0.7293 -0.6908  0.6456
17878TIP3   OH275124   1.853   5.291  15.014  0.1855  0.2288  0.2358
17878TIP3    H175125   1.819   5.239  14.941 -0.6479 -0.1141  0.8624
17878TIP3    H275126   1.945   5.306  14.992 -0.0633  0.1538 -0.8969
17879TIP3   OH275127   5.245   4.040   5.683  0.0287  0.5025  0.0623
17879TIP3    H175128   5.274   4.058   5.773 -0.9173 -1.4434  0.7812
17879TIP3    H275129   5.151   4.029   5.690 -0.1581  1.0901 -1.3244
17880TIP3   OH275130   4.177   0.182   4.189 -0.1276 -0.4628  0.1425
17880TIP3    H175131   4.181   0.186   4.284  0.3241 -1.7828  0.1790
17880TIP3    H275132   4.122   0.257   4.165  0.2489  0.2305  1.3916
17881TIP3   OH275133   4.730   6.734   1.023 -0.0032  0.1762 -0.0494
17881TIP3    H175134   4.707   6.683   1.100 -0.3735  1.2831  0.5903
17881TIP3    H275135   4.647   6.748   0.977 -0.1134  1.2534  0.4476
17882TIP3   OH275136   6.562   4.123   3.111  0.0653  0.1118  0.1588
17882TIP3    H175137   6.525   4.047   3.156  0.0441 -0.6029 -1.0200
17882TIP3    H275138   6.635   4.086   3.060  1.2333  1.1929  1.0265
17883TIP3   OH275139   0.653   2.495   4.407 -0.0301  0.1125 -0.7494
17883TIP3    H175140   0.686   2.556   4.473 -0.3268  1.4405 -1.8211
17883TIP3    H275141   0.600   2.433   4.457 -0.5587  1.3233  0.2284
17884TIP3   OH275142   3.877   6.363  11.503 -0.1772  0.4633  0.3526
17884TIP3    H175143   3.912   6.274  11.504  1.7994  1.1859 -1.4792
17884TIP3    H275144   3.943   6.414  11.456 -2.4266  2.4203 -0.7590
17885TIP3   OH275145   6.246   0.398  15.074 -0.6256 -0.4719  0.3806
17885TIP3    H175146   6.232   0.492  15.069 -1.9863 -0.7393 -1.2697
17885TIP3    H275147   6.333   0.384  15.039 -0.2943  0.1893  0.9224
17886TIP3   OH275148   3.281   1.061  11.419  0.4811 -0.3174  0.0739
17886TIP3    H175149   3.301   1.004  11.494 -0.4254  1.4163  1.6997
17886TIP3    H275150   3.350   1.127  11.420  1.3014 -1.1126 -1.5615
17887TIP3   OH275151   1.939   2.748   1.391 -0.5764  0.3822 -0.2581
17887TIP3    H175152   2.026   2.749   1.350 -0.5030 -0.6748 -0.1288
17887TIP3    H275153   1.918   2.656   1.400 -1.2237  0.6230  0.7652
17888TIP3   OH275154   0.995   0.029  13.022  0.3996  0.0073  0.0200
17888TIP3    H175155   1.061  -0.032  12.988 -0.3329 -0.6729 -0.1991
17888TIP3    H275156   1.044   0.108  13.044  1.1110 -0.0814 -1.2346
17889TIP3   OH275157   4.851   4.343   1.839  0.0812  0.3772  0.0179
17889TIP3    H175158   4.876   4.428   1.802 -3.2489  1.5908  0.3059
17889TIP3    H275159   4.840   4.286   1.763  1.7781  0.3458 -0.2215
17890TIP3   OH275160   3.416   1.392  12.777 -0.0174  0.3174  0.6323
17890TIP3    H175161   3.485   1.401  12.843 -0.5001  1.8080  0.9507
17890TIP3    H275162   3.339   1.435  12.816 -1.0778 -1.1541  0.2080
17891TIP3   OH275163   2.531   3.428   1.423 -0.8949  0.0819 -0.1937
17891TIP3    H175164   2.483   3.351   1.392 -0.7682  0.1783 -0.6274
17891TIP3    H275165   2.612   3.429   1.371 -1.2172  0.9070 -0.6897
17892TIP3   OH275166   1.561   4.526  14.595 -0.0044  0.1990 -0.1383
17892TIP3    H175167   1.570   4.567  14.681  0.7192 -1.1902  0.4738
17892TIP3    H275168   1.560   4.599  14.533 -0.9372  1.2417  1.0685
17893TIP3   OH275169   6.815   4.290   5.493  0.1572  0.3080 -0.0868
17893TIP3    H175170   6.777   4.366   5.538  1.7512  1.2214 -0.2136
17893TIP3    H275171   6.802   4.309   5.400 -0.1968  0.0268 -0.0923
17894TIP3   OH275172   1.839   6.795  12.246  0.5167 -0.1762 -0.1450
17894TIP3    H175173   1.791   6.723  12.288  1.3835  0.0142  1.1869
17894TIP3    H275174   1.887   6.753  12.175 -0.4835 -0.6009 -0.5788
17895TIP3   OH275175   6.148   5.958   0.404 -0.2393  0.5671  0.3923
17895TIP3    H175176   6.140   5.893   0.474 -2.2339  0.7104  0.3039
17895TIP3    H275177   6.066   6.006   0.406  1.0039  2.7827  0.1262
17896TIP3   OH275178   5.412   1.892  16.437 -0.3458  0.0527  0.4658
17896TIP3    H175179   5.427   1.985  16.421 -0.7797  0.0995  0.3182
17896TIP3    H275180   5.317   1.883  16.441 -0.3436 -0.5961 -0.7815
17897TIP3   OH275181   2.515   2.800   4.895 -0.1204  0.3884 -1.1024
17897TIP3    H175182   2.522   2.894   4.876  3.0645  0.6631  1.0723
17897TIP3    H275183   2.443   2.793   4.957 -1.6625  1.1049 -2.7512
17898TIP3   OH275184   2.648   0.301   3.226  0.1618  0.4552 -0.1706
17898TIP3    H175185   2.714   0.279   3.162  0.8899 -0.3166  0.8265
17898TIP3    H275186   2.606   0.380   3.192 -0.2547 -0.6124 -2.1473
17899TIP3   OH275187   6.154   5.615   6.675 -0.8688  0.0438  0.4792
17899TIP3    H175188   6.166   5.528   6.711 -0.2898 -0.1642 -0.1898
17899TIP3    H275189   6.100   5.661   6.739 -0.6900 -0.6215  1.1135
17900TIP3   OH275190   5.686   6.626  11.376  0.3352  0.2959 -0.1224
17900TIP3    H175191   5.599   6.622  11.416  0.8749 -1.6069  0.9319
17900TIP3    H275192   5.730   6.697  11.423 -0.0232 -0.0009  0.6713
17901TIP3   OH275193   2.711   1.679   4.650  0.2487 -0.6947  0.0379
17901TIP3    H175194   2.725   1.769   4.620  1.3500 -0.4050  1.3915
17901TIP3    H275195   2.616   1.666   4.642  0.0543  0.6566  0.0530
17902TIP3   OH275196   0.257   4.226  16.801  0.0771 -0.3778  0.2370
17902TIP3    H175197   0.312   4.230  16.723 -1.3160  0.2810 -0.7344
17902TIP3    H275198   0.311   4.262  16.871  0.2293  2.0468 -1.0951
17903TIP3   OH275199   3.825   3.113  11.072  0.8497 -0.7246  0.7124
17903TIP3    H175200   3.858   3.168  11.000  1.3382 -3.4510 -1.2284
17903TIP3    H275201   3.777   3.174  11.128  1.0555  1.6273 -1.5446
17904TIP3   OH275202   3.577   0.761  17.279  0.3372  0.1398  0.1394
17904TIP3    H175203   3.564   0.757  17.374  1.2933 -0.7745  0.2486
17904TIP3    H275204   3.567   0.670  17.250  1.8721  0.1044 -0.3587
17905TIP3   OH275205   4.168   2.359   3.966  0.2797 -0.1052 -0.3496
17905TIP3    H175206   4.230   2.290   3.942  0.7349  0.2245 -0.1426
17905TIP3    H275207   4.104   2.316   4.021  1.2623 -0.1069  0.8145
17906TIP3   OH275208   5.276   5.491   3.816 -0.2597 -0.3243  0.9885
17906TIP3    H175209   5.331   5.459   3.745 -0.2564 -0.8814  1.2420
17906TIP3    H275210   5.195   5.441   3.809 -1.3727  1.5898 -0.3513
17907TIP3   OH275211   3.862   0.584   3.385  0.0696  0.1869 -0.6976
17907TIP3    H175212   3.815   0.665   3.406 -1.0642 -0.6004 -0.1551
17907TIP3    H275213   3.870   0.585   3.290 -0.0907  0.8630 -0.7046
17908TIP3   OH275214   2.803   1.953  13.514 -0.6148  0.1536  0.4494
17908TIP3    H175215   2.844   2.030  13.552  0.8335 -0.7133  0.7141
17908TIP3    H275216   2.777   1.980  13.426 -1.4375  1.3471  1.0437
17909TIP3   OH275217   2.780   2.861   4.091  0.2029 -0.0674  0.5130
17909TIP3    H175218   2.695   2.853   4.135 -0.0182 -2.4325 -0.2637
17909TIP3    H275219   2.758   2.868   3.998  0.7234  3.6379  0.5909
17910TIP3   OH275220   4.443   1.991   5.639 -0.3185 -0.5694  0.1275
17910TIP3    H175221   4.426   2.084   5.629 -1.1764 -0.8510 -1.0833
17910TIP3    H275222   4.535   1.986   5.666 -0.9090  0.7326  2.5052
17911TIP3   OH275223   1.208   4.683  11.150 -0.3608  0.2216 -0.1224
17911TIP3    H175224   1.118   4.713  11.140 -0.8815 -0.1654  2.9251
17911TIP3    H275225   1.234   4.713  11.238  1.3157 -2.5021  0.3758
17912TIP3   OH275226   2.375   5.521  11.457 -0.3761 -0.2204  0.0704
17912TIP3    H175227   2.434   5.580  11.504 -1.3074  0.5047  0.3300
17912TIP3    H275228   2.408   5.433  11.477 -0.4320  0.0985  1.6237
17913TIP3   OH275229   2.710   4.212  11.904 -0.2002 -0.0386  0.4857
17913TIP3    H175230   2.791   4.163  11.918 -0.5020 -0.3834  1.0274
17913TIP3    H275231   2.688   4.246  11.991 -0.4769  0.3001  0.2822
17914TIP3   OH275232   1.819   3.780  12.108  0.1904 -0.4795  0.1565
17914TIP3    H175233   1.777   3.742  12.031  0.1136  1.6273 -0.8852
17914TIP3    H275234   1.761   3.852  12.134  0.9240 -0.3081  1.3479
17915TIP3   OH275235   3.007   4.851   2.199  0.0072  0.7152  0.0012
17915TIP3    H175236   2.963   4.767   2.190 -1.8684  1.4785  1.5356
17915TIP3    H275237   3.041   4.851   2.288  1.0468  1.1021 -0.3938
17916TIP3   OH275238   3.600   4.118  15.163  0.2305 -0.7301  0.3441
17916TIP3    H175239   3.611   4.172  15.085  0.8195 -1.8970 -0.4032
17916TIP3    H275240   3.506   4.110  15.175  0.1375 -0.9705 -0.5535
17917TIP3   OH275241   4.277   1.228   5.626 -0.1116  0.7937  0.0672
17917TIP3    H175242   4.335   1.289   5.672  0.2213  1.9964 -1.9109
17917TIP3    H275243   4.319   1.143   5.637  0.8127  1.3112  0.5933
17918TIP3   OH275244   4.489   1.366   1.829 -0.3628 -0.3415 -0.5267
17918TIP3    H175245   4.506   1.440   1.887  1.7944 -0.9626 -0.3213
17918TIP3    H275246   4.574   1.325   1.816 -1.2400 -1.7807 -2.0269
17919TIP3   OH275247   6.469   5.978   2.518  0.1516  0.1873  0.5316
17919TIP3    H175248   6.409   6.047   2.544  0.6115  0.8122 -0.0529
17919TIP3    H275249   6.495   5.936   2.600 -1.6069 -0.5317  0.7354
17920TIP3   OH275250   4.277   4.275  15.524 -0.0694 -0.0156  0.1535
17920TIP3    H175251   4.198   4.327  15.507  0.5233  0.5395 -0.9494
17920TIP3    H275252   4.311   4.256  15.437  1.4776  0.4397  0.6583
17921TIP3   OH275253   6.320   2.179   0.731  0.0605 -0.0187  0.3864
17921TIP3    H175254   6.343   2.271   0.749 -1.2612  0.8188 -1.9456
17921TIP3    H275255   6.225   2.176   0.742 -0.1213 -0.6815 -1.2979
17922TIP3   OH275256   2.961   3.061   5.836  0.3443  0.0051  0.0240
17922TIP3    H175257   2.876   3.037   5.799  0.5385 -0.7447  0.0608
17922TIP3    H275258   2.994   3.130   5.778  2.0085 -3.2382 -3.0165
17923TIP3   OH275259   5.492   6.766  12.284 -0.2481  0.2890  0.0394
17923TIP3    H175260   5.416   6.727  12.241 -0.5110 -1.4669  2.0130
17923TIP3    H275261   5.562   6.701  12.273 -0.1007  0.1823  1.5220
17924TIP3   OH275262   4.024   6.202  15.713 -0.1743 -0.1657  0.4416
17924TIP3    H175263   4.108   6.187  15.755  0.9247  1.8216 -0.9580
17924TIP3    H275264   4.009   6.122  15.662  0.3443 -0.9604  1.4994
17925TIP3   OH275265   4.038   3.051  11.246  0.0994  0.0924 -0.6839
17925TIP3    H175266   3.990   3.050  11.329 -0.1064  0.5662 -0.7920
17925TIP3    H275267   3.970   3.060  11.179  0.3347  0.7645 -0.8364
17926TIP3   OH275268   0.350   2.062   3.637 -0.0686 -0.3087  0.2026
17926TIP3    H175269   0.396   2.135   3.596  0.8989 -0.5651  0.8276
17926TIP3    H275270   0.364   1.988   3.577  0.8339 -0.5303  0.6724
17927TIP3   OH275271   0.697   4.151  14.948  0.2168 -0.1648 -0.5045
17927TIP3    H175272   0.718   4.199  15.028  0.4070  3.6396 -2.7310
17927TIP3    H275273   0.602   4.145  14.947  0.2645 -1.2672  0.5505
17928TIP3   OH275274   1.694   0.884   3.604  0.2479 -0.1546 -0.0117
17928TIP3    H175275   1.710   0.921   3.691 -1.7894  1.0270 -0.1031
17928TIP3    H275276   1.675   0.792   3.621  2.6811 -0.6059  0.4871
17929TIP3   OH275277   3.902   0.362   2.474  0.2373  0.1416  0.2456
17929TIP3    H175278   3.809   0.381   2.463  0.3677  1.0950  0.7472
17929TIP3    H275279   3.905   0.291   2.538 -0.1708 -0.3461 -0.2714
17930TIP3   OH275280   6.719   5.960  15.642  0.0958  0.2071  0.1333
17930TIP3    H175281   6.650   5.916  15.693  1.8279  0.5600  2.8660
17930TIP3    H275282   6.698   6.053  15.649  0.0220  0.2275 -0.3212
17931TIP3   OH275283   1.588   3.139   0.293  0.0007 -0.0564  0.3481
17931TIP3    H175284   1.675   3.100   0.301  0.2528  0.8039  2.2979
17931TIP3    H275285   1.580   3.194   0.371 -2.4715 -0.4890  0.4475
17932TIP3   OH275286   6.411   1.640   1.069  0.0377 -0.0268 -0.2144
17932TIP3    H175287   6.457   1.597   0.996  1.4627 -1.7852  1.6588
17932TIP3    H275288   6.358   1.707   1.027  0.6703 -1.1250 -2.9084
17933TIP3   OH275289   6.207   3.026  13.776  0.0604  0.4223 -0.3393
17933TIP3    H175290   6.301   3.019  13.759 -0.1907  0.7185 -1.9671
17933TIP3    H275291   6.200   3.093  13.844  0.9170  1.7970 -1.5689
17934TIP3   OH275292   0.101   1.517   5.381 -0.4016  0.0310  0.4948
17934TIP3    H175293   0.058   1.449   5.432 -0.9404  0.4885  0.6514
17934TIP3    H275294   0.193   1.513   5.408  0.0510 -2.2423 -1.2575
17935TIP3   OH275295   4.491   1.383   0.130 -0.3887  0.3904  0.1048
17935TIP3    H175296   4.466   1.400   0.221 -2.3203  0.1780 -0.3577
17935TIP3    H275297   4.416   1.414   0.079  0.8687  0.9099 -1.4466
17936TIP3   OH275298   3.179   3.262   1.738  0.1104 -0.3739  0.2061
17936TIP3    H175299   3.106   3.319   1.763 -0.8364 -1.2461 -0.5327
17936TIP3    H275300   3.246   3.322   1.705 -0.7506  0.3386 -0.2597
17937TIP3   OH275301   6.249   6.288  13.607 -0.1805  0.1977 -0.5599
17937TIP3    H175302   6.157   6.305  13.627  0.1535  1.6491 -0.1637
17937TIP3    H275303   6.248   6.237  13.526 -1.3633 -0.7776  0.0583
17938TIP3   OH275304   1.104   2.619  10.819 -0.1607  0.0594 -0.2481
17938TIP3    H175305   1.012   2.596  10.805 -0.3119  1.9265 -2.5433
17938TIP3    H275306   1.139   2.546  10.871 -2.2843 -1.9396 -1.5458
17939TIP3   OH275307   3.848   4.965   1.443 -0.3957 -0.5440  0.2441
17939TIP3    H175308   3.821   4.881   1.478  0.1982 -0.6129  0.5482
17939TIP3    H275309   3.770   5.019   1.447 -0.6394 -0.9190  0.5559
17940TIP3   OH275310   4.983   4.228   0.168 -0.1259  1.1636  0.2581
17940TIP3    H175311   4.889   4.212   0.177  0.3808 -1.7962  0.7550
17940TIP3    H275312   5.024   4.158   0.219  2.3699  1.2862 -1.5140
17941TIP3   OH275313   1.764   2.712   1.745  0.4324 -0.7046 -0.0350
17941TIP3    H175314   1.669   2.705   1.740  0.4612  0.0346 -2.0889
17941TIP3    H275315   1.787   2.779   1.680  2.0583  1.8683  3.0721
17942TIP3   OH275316   3.856   0.225  13.491  0.0307 -0.2397 -0.5408
17942TIP3    H175317   3.763   0.249  13.491 -0.0782 -0.6339 -2.4047
17942TIP3    H275318   3.897   0.288  13.432  0.7735 -0.7273 -0.5457
17943TIP3   OH275319   1.226   0.224   5.324 -0.2079  0.5310 -0.3921
17943TIP3    H175320   1.216   0.316   5.299 -1.1387 -0.0718 -2.3982
17943TIP3    H275321   1.313   0.200   5.295  0.7271  1.2278  1.7383
17944TIP3   OH275322   1.481   4.156   0.913  0.5726  0.5982 -0.7481
17944TIP3    H175323   1.564   4.197   0.938  1.1682 -0.3707 -1.1051
17944TIP3    H275324   1.443   4.125   0.995  1.9978 -1.5986 -0.8677
17945TIP3   OH275325   2.799   1.925  15.784  0.2584  0.2417 -0.1610
17945TIP3    H175326   2.786   1.900  15.692  1.5945  1.0125 -0.5755
17945TIP3    H275327   2.812   1.842  15.830  0.4921 -0.0990 -0.8331
17946TIP3   OH275328   4.778   0.666   6.128 -0.2761  0.3196  0.3274
17946TIP3    H175329   4.803   0.706   6.045 -1.1533 -0.6946 -0.4535
17946TIP3    H275330   4.832   0.709   6.193  1.7743 -0.1774 -1.0138
17947TIP3   OH275331   5.255   2.063   4.766 -0.2714 -0.1631  0.0182
17947TIP3    H175332   5.163   2.047   4.747 -0.4819  2.3539 -1.2757
17947TIP3    H275333   5.260   2.062   4.862 -1.5443 -0.7392  0.0900
17948TIP3   OH275334   5.386   3.473   3.622  0.2384 -0.1298 -0.1167
17948TIP3    H175335   5.292   3.463   3.634  0.1540 -0.3112 -0.9080
17948TIP3    H275336   5.413   3.395   3.573  1.2615 -1.4671  2.5206
17949TIP3   OH275337   4.205   5.612   5.923  0.1599  0.4220  0.1209
17949TIP3    H175338   4.249   5.621   6.007  1.8516 -2.4283 -0.4136
17949TIP3    H275339   4.113   5.598   5.945 -0.0417  3.2234  1.3291
17950TIP3   OH275340   4.279   5.009  15.106  0.3709 -0.0416 -0.5826
17950TIP3    H175341   4.332   4.929  15.104  0.3193 -0.1106  0.4196
17950TIP3    H275342   4.236   5.007  15.192 -1.2832  0.0053 -1.3921
17951TIP3   OH275343   6.506   2.573  13.056  0.1746 -0.4123 -0.2636
17951TIP3    H175344   6.430   2.534  13.013 -0.9149  1.2723  0.1140
17951TIP3    H275345   6.531   2.509  13.123 -0.8716 -0.9787 -0.4008
17952TIP3   OH275346   4.323   5.499  16.814 -0.2272 -0.1886  0.0985
17952TIP3    H175347   4.374   5.453  16.747 -0.5163  1.5541 -1.3360
17952TIP3    H275348   4.373   5.485  16.895  0.8680 -1.1258 -0.7167
17953TIP3   OH275349   4.126   0.609   0.120  0.0516 -0.2660 -0.7421
17953TIP3    H175350   4.047   0.561   0.096  1.2072 -2.0343 -1.1295
17953TIP3    H275351   4.103   0.654   0.201 -1.6432  0.0162 -1.3699
17954TIP3   OH275352   5.495   2.881  16.795 -0.0649 -0.2969  0.5035
17954TIP3    H175353   5.570   2.941  16.795 -0.3547  0.0650  0.0865
17954TIP3    H275354   5.434   2.919  16.859  0.0917 -0.5774  0.8248
17955TIP3   OH275355   5.862   6.720  17.088  0.6388 -0.1592 -0.0377
17955TIP3    H175356   5.872   6.804  17.043 -1.8202  0.4799  0.5381
17955TIP3    H275357   5.772   6.720  17.119  1.4513 -1.8235  2.4259
17956TIP3   OH275358   1.236   4.215   3.449  0.4751  0.0570 -0.6457
17956TIP3    H175359   1.184   4.135   3.449 -1.0550  1.0216 -1.2017
17956TIP3    H275360   1.327   4.185   3.453 -0.1285 -1.6399  1.5238
17957TIP3   OH275361   1.773   4.236   5.693  0.6311  0.8872  0.1533
17957TIP3    H175362   1.687   4.252   5.655  0.8512  0.2820 -0.6163
17957TIP3    H275363   1.834   4.281   5.634  0.9293  0.3874  0.0710
17958TIP3   OH275364   4.241   6.108  12.535  0.2313  0.3641 -0.3451
17958TIP3    H175365   4.257   6.089  12.442  0.4222  0.9578 -0.4304
17958TIP3    H275366   4.149   6.134  12.538  0.2076  0.2823 -0.3539
17959TIP3   OH275367   6.044   5.802   1.180  0.2357  0.6830 -0.6025
17959TIP3    H175368   6.069   5.889   1.149 -0.0602  1.0272  0.1269
17959TIP3    H275369   5.949   5.806   1.189  0.4467  1.0049  1.6355
17960TIP3   OH275370   5.476   2.535   3.503 -0.1194 -0.0333  0.1484
17960TIP3    H175371   5.479   2.594   3.428 -0.2396 -0.5494 -0.2724
17960TIP3    H275372   5.404   2.567   3.557 -0.1721  0.2129 -0.0688
17961TIP3   OH275373   2.490   4.862  15.199  0.0143 -0.3682 -0.3376
17961TIP3    H175374   2.506   4.916  15.277  0.6227 -0.1096 -0.6369
17961TIP3    H275375   2.578   4.844  15.165 -0.2718 -0.0307 -1.2659
17962TIP3   OH275376   4.296   5.923   5.908 -0.3041 -0.4750  0.1652
17962TIP3    H175377   4.257   6.009   5.892 -4.9378 -2.8007 -1.9766
17962TIP3    H275378   4.235   5.880   5.968  1.0982 -2.8607 -0.0657
17963TIP3   OH275379   0.541   4.667  15.618  0.2711  0.0352 -0.8216
17963TIP3    H175380   0.552   4.642  15.709 -1.6863  1.7434 -0.0887
17963TIP3    H275381   0.477   4.606  15.583  2.2692 -1.7115 -1.5717
17964TIP3   OH275382   5.032   2.425   5.857 -0.0127  0.8145  0.6089
17964TIP3    H175383   5.015   2.512   5.892  2.4422  1.5759  0.0151
17964TIP3    H275384   5.039   2.437   5.763 -0.6404 -0.2171  0.4138
17965TIP3   OH275385   4.403   2.031   5.239 -0.6010  0.0987  0.0960
17965TIP3    H175386   4.497   2.038   5.256 -0.6266 -1.1878  0.7954
17965TIP3    H275387   4.368   1.985   5.315 -1.5406 -0.9478 -0.9546
17966TIP3   OH275388   3.602   4.100  14.049 -0.3034 -0.6123  0.2956
17966TIP3    H175389   3.664   4.122  14.118 -2.3509 -0.1143  2.0298
17966TIP3    H275390   3.557   4.182  14.030 -0.4215 -0.9544 -0.9778
17967TIP3   OH275391   6.518   4.114  12.733 -0.3246 -0.1122  0.1408
17967TIP3    H175392   6.486   4.058  12.662 -2.6676 -0.3137  1.3114
17967TIP3    H275393   6.610   4.130  12.711 -0.8763 -0.5392 -2.6950
17968TIP3   OH275394   2.731   1.950  12.503  0.0855  0.5203 -0.9271
17968TIP3    H175395   2.701   1.873  12.455  0.4260 -0.2106  0.0006
17968TIP3    H275396   2.653   1.981  12.550 -0.1810  1.0711 -1.7265
17969TIP3   OH275397   4.366   6.441  15.732  1.2383 -0.0503  0.0024
17969TIP3    H175398   4.406   6.481  15.809 -0.9301  2.8647 -0.3152
17969TIP3    H275399   4.313   6.369  15.767  0.9198  0.7360  1.1675
17970TIP3   OH275400   5.436   5.399   3.076  0.2102 -0.4468  0.1323
17970TIP3    H175401   5.531   5.394   3.067  0.3488  0.7440  0.9293
17970TIP3    H275402   5.413   5.488   3.049 -0.6578 -0.6501  0.1754
17971TIP3   OH275403   3.561   2.198   1.346 -0.0365 -0.4745 -0.7368
17971TIP3    H175404   3.476   2.201   1.302 -0.0778 -0.6815 -0.6712
17971TIP3    H275405   3.546   2.147   1.426 -0.1887  0.7494  0.0216
17972TIP3   OH275406   1.288   6.501   5.575  0.2264  0.5169  0.0124
17972TIP3    H175407   1.323   6.586   5.547 -0.7491 -0.1628 -3.5111
17972TIP3    H275408   1.334   6.483   5.657  1.7686  3.6101 -0.0612
17973TIP3   OH275409   0.087   3.406  11.954 -0.0259  0.4402 -0.6417
17973TIP3    H175410  -0.006   3.382  11.957 -0.0226  0.4092 -0.7763
17973TIP3    H275411   0.134   3.323  11.945  0.1510  0.2655  1.6731
17974TIP3   OH275412   4.844   6.286  12.334  0.1844  0.4142 -0.4233
17974TIP3    H175413   4.892   6.326  12.407 -2.9329  0.8703  1.5129
17974TIP3    H275414   4.901   6.216  12.303  1.3815 -0.1804  2.8619
17975TIP3   OH275415   5.415   3.991  15.535 -0.1870 -0.5992  0.3679
17975TIP3    H175416   5.364   3.960  15.460  1.3878 -1.0551 -0.5425
17975TIP3    H275417   5.484   3.925  15.546  0.7194  0.4410  1.0222
17976TIP3   OH275418   4.108   5.623   2.130  0.3097  0.1998  0.3740
17976TIP3    H175419   4.047   5.603   2.201  0.8711  1.4678  1.2192
17976TIP3    H275420   4.125   5.717   2.138  2.7913 -0.2219  0.4826
17977TIP3   OH275421   6.380   2.841  10.986  0.1528  0.0267 -0.0897
17977TIP3    H175422   6.441   2.772  11.011 -0.8289 -1.2318 -1.0968
17977TIP3    H275423   6.426   2.888  10.916 -0.2367 -1.2584 -1.2259
17978TIP3   OH275424   3.810   6.706  12.301 -0.1305 -0.4922  0.6250
17978TIP3    H175425   3.718   6.703  12.274 -0.2302 -0.2994  0.9488
17978TIP3    H275426   3.836   6.614  12.304 -0.4603 -0.5760  1.0321
17979TIP3   OH275427   5.201   0.521  16.875  0.3810 -0.1229  0.4267
17979TIP3    H175428   5.131   0.467  16.838 -0.8673  1.7526 -0.0164
17979TIP3    H275429   5.186   0.609  16.839  2.8179  0.3792  0.5207
17980TIP3   OH275430   3.439   0.923   2.600 -0.0058  0.1340  0.1278
17980TIP3    H175431   3.437   1.005   2.552 -0.2556  0.6414  0.9877
17980TIP3    H275432   3.400   0.859   2.541 -1.5311  1.0143  0.1707
17981TIP3   OH275433   0.085   5.058  16.309  0.4265 -0.0119  0.9066
17981TIP3    H175434   0.134   5.001  16.248  1.2926  4.2409 -2.5879
17981TIP3    H275435   0.001   5.071  16.267 -0.3590  0.0934  2.4774
17982TIP3   OH275436   0.166   3.684   4.747 -0.1351  0.8905 -0.2467
17982TIP3    H175437   0.078   3.705   4.716  0.5852  2.1698 -1.4479
17982TIP3    H275438   0.177   3.739   4.825 -0.6388  0.2147  0.3168
17983TIP3   OH275439   0.711   5.968  12.565 -0.1153  0.0903 -0.6389
17983TIP3    H175440   0.798   5.956  12.604  0.0168 -1.3082 -1.3299
17983TIP3    H275441   0.662   6.016  12.632  0.6091 -0.8119  0.5751
17984TIP3   OH275442   0.877   1.930  12.748 -0.1521 -0.4277  0.7389
17984TIP3    H175443   0.921   1.845  12.757  2.5279  1.1019  2.7232
17984TIP3    H275444   0.923   1.987  12.809 -0.8407  2.9092 -1.7462
17985TIP3   OH275445   4.901   1.821   0.456 -0.6976  0.4826  0.1150
17985TIP3    H175446   4.923   1.876   0.531  0.0215  0.7389 -0.2850
17985TIP3    H275447   4.930   1.733   0.481  1.7380  0.9817 -0.7966
17986TIP3   OH275448   4.358   1.631  15.216 -0.4970 -0.5361  0.1256
17986TIP3    H175449   4.317   1.598  15.137 -0.2976 -2.4967  0.8149
17986TIP3    H275450   4.286   1.668  15.267 -1.2871 -2.8832  0.7913
17987TIP3   OH275451   2.430   1.009   3.286  0.5589  0.3437  0.2238
17987TIP3    H175452   2.347   1.017   3.240  0.2341  0.4829  0.8208
17987TIP3    H275453   2.451   0.916   3.283  0.9855  0.4803 -0.9681
17988TIP3   OH275454   3.204   1.391  14.460  0.3342 -0.1711  0.0162
17988TIP3    H175455   3.119   1.349  14.470  0.6150 -0.4947  1.0709
17988TIP3    H275456   3.222   1.387  14.366 -0.8801  0.0337 -0.2276
17989TIP3   OH275457   1.126   1.707   1.917  0.0191 -0.3292 -0.2605
17989TIP3    H175458   1.092   1.657   1.992 -0.3084  0.5058  0.1521
17989TIP3    H275459   1.211   1.667   1.899  0.9274  0.6649  1.7402
17990TIP3   OH275460   1.134   1.986  16.002 -0.1298  0.5879 -0.1491
17990TIP3    H175461   1.064   2.038  15.963 -1.7971 -0.9828  0.6737
17990TIP3    H275462   1.159   1.924  15.933 -0.0134  0.7205 -0.2256
17991TIP3   OH275463   5.658   4.316  15.086  0.1110  0.3511  0.8584
17991TIP3    H175464   5.715   4.246  15.053 -0.0061  0.8673 -0.4852
17991TIP3    H275465   5.678   4.322  15.179  0.7748 -0.8613  0.8022
17992TIP3   OH275466   3.509   5.068   0.338 -0.0739  0.3744  0.0756
17992TIP3    H175467   3.590   5.040   0.296 -0.9858 -3.0978  0.4847
17992TIP3    H275468   3.528   5.063   0.432 -0.8689 -0.9148  0.1833
17993TIP3   OH275469   4.347   6.577   2.088  0.5831 -0.4348  0.6772
17993TIP3    H175470   4.388   6.580   2.174  0.0673 -0.6656  0.9293
17993TIP3    H275471   4.420   6.560   2.028  0.9717 -0.0913  1.0408
17994TIP3   OH275472   4.367   2.237   5.613 -0.4507  0.0183  0.3637
17994TIP3    H175473   4.317   2.279   5.682 -0.5912 -1.0696  0.9325
17994TIP3    H275474   4.316   2.253   5.533 -0.5772  0.7803  0.5953
17995TIP3   OH275475   4.364   0.900   6.472  0.2404  0.0749  0.3072
17995TIP3    H175476   4.332   0.990   6.480  0.5805  0.0936  1.6319
17995TIP3    H275477   4.327   0.868   6.390 -0.4913  1.1786  0.1991
17996TIP3   OH275478   5.687   6.133  15.671 -0.3583  0.9123 -0.0007
17996TIP3    H175479   5.713   6.077  15.598 -1.9855  2.0757 -1.5379
17996TIP3    H275480   5.719   6.088  15.749 -0.0126 -1.2032 -1.3148
17997TIP3   OH275481   3.118   0.804   4.519  0.6973 -0.0908 -0.1197
17997TIP3    H175482   3.190   0.864   4.502  0.6502 -0.6142 -2.2051
17997TIP3    H275483   3.040   0.860   4.522  1.0729  0.3743  1.3757
17998TIP3   OH275484   4.457   5.466  15.882 -0.3368  0.0423  0.5008
17998TIP3    H175485   4.553   5.457  15.885 -0.3584 -0.2850  0.2870
17998TIP3    H275486   4.438   5.484  15.790 -0.5797 -1.1174  0.3159
17999TIP3   OH275487   0.775   2.448  16.325 -0.2522  0.1761 -0.5060
17999TIP3    H175488   0.693   2.434  16.278 -0.2681  1.8527 -1.0126
17999TIP3    H275489   0.796   2.539  16.308  1.9621 -0.3673 -0.7499
18000TIP3   OH275490   4.293   6.012  12.982 -0.0829  0.2086 -0.1589
18000TIP3    H175491   4.284   6.107  12.971  1.3854  0.2689 -0.9692
18000TIP3    H275492   4.356   6.002  13.054  0.1789 -0.1361 -0.4279
18001TIP3   OH275493   2.427   2.666   1.225  0.0356 -0.3204  0.2934
18001TIP3    H175494   2.490   2.594   1.236 -1.7354 -2.1405 -1.0386
18001TIP3    H275495   2.357   2.628   1.172 -1.2588  2.2355  0.1119
18002TIP3   OH275496   6.067   5.429  14.406 -0.0274 -0.0623 -0.0294
18002TIP3    H175497   6.052   5.472  14.490 -0.0861  0.5781 -0.3601
18002TIP3    H275498   6.130   5.486  14.361 -1.4017  0.5883 -1.1541
18003TIP3   OH275499   0.478   5.860   2.595  0.8891 -0.0249  0.0364
18003TIP3    H175500   0.400   5.885   2.547  1.8289  2.0929 -0.4716
18003TIP3    H275501   0.498   5.936   2.650  1.3260 -1.3925  1.8185
18004TIP3   OH275502   0.876   0.212  14.696  0.0823  0.9633  0.2488
18004TIP3    H175503   0.927   0.186  14.619  0.8340  1.3415  0.6189
18004TIP3    H275504   0.836   0.295  14.671 -0.3371  0.6825 -0.0292
18005TIP3   OH275505   1.913   2.968  13.946 -0.5057  0.6495 -0.3599
18005TIP3    H175506   1.931   3.041  14.004  1.1278 -0.1067  0.1139
18005TIP3    H275507   1.818   2.968  13.936 -0.9272  0.2358  3.0429
18006TIP3   OH275508   2.964   1.211   0.532 -0.6027  0.2926 -0.0437
18006TIP3    H175509   3.038   1.176   0.483 -0.6897 -0.3863  0.3139
18006TIP3    H275510   2.924   1.135   0.573  0.2219  0.9741  2.1245
18007TIP3   OH275511   6.200   2.092  12.498  0.2581 -0.1381 -0.4568
18007TIP3    H175512   6.231   2.045  12.575 -1.1349 -0.4880 -0.1013
18007TIP3    H275513   6.206   2.184  12.521  1.7413 -0.1752 -0.6700
18008TIP3   OH275514   1.027   5.767  11.333 -0.3530 -0.5663  0.1535
18008TIP3    H175515   1.020   5.835  11.401 -0.7872 -1.1921  0.7418
18008TIP3    H275516   0.943   5.721  11.337 -1.2287  0.7359 -2.2628
18009TIP3   OH275517   2.889   0.929   5.524 -0.1085  0.3262  0.0384
18009TIP3    H175518   2.897   1.020   5.494 -0.4050  0.7964  1.3756
18009TIP3    H275519   2.929   0.877   5.453 -0.9491  1.4019 -1.2442
18010TIP3   OH275520   0.589   0.205   3.000 -0.1509  0.0988  0.0875
18010TIP3    H175521   0.575   0.133   2.938 -0.4384  1.9044 -2.0344
18010TIP3    H275522   0.528   0.187   3.072 -0.7427 -1.3727 -0.7483
18011TIP3   OH275523   0.497   4.036  14.269 -0.1357  0.6272 -0.4039
18011TIP3    H175524   0.496   4.036  14.364 -0.8685 -1.8945 -0.3553
18011TIP3    H275525   0.405   4.029  14.244  0.1524 -0.5509 -1.2255
18012TIP3   OH275526   1.992   6.261  14.967  0.4771 -0.4168 -0.3518
18012TIP3    H175527   1.948   6.214  14.897  0.7824 -0.6472 -0.3933
18012TIP3    H275528   1.925   6.319  15.004  0.9544  1.5091 -2.4150
18013TIP3   OH275529   1.844   5.115  10.849  0.1031 -0.5285 -0.0931
18013TIP3    H175530   1.855   5.113  10.944  0.6175  0.2261 -0.1247
18013TIP3    H275531   1.821   5.206  10.830 -1.6872 -1.0623 -0.5151
18014TIP3   OH275532   4.964   5.126   0.361 -0.6585  0.2632 -0.4832
18014TIP3    H175533   4.934   5.201   0.411 -1.5385  0.2795 -1.0368
18014TIP3    H275534   4.990   5.163   0.276  1.2341  0.3021  0.0822
18015TIP3   OH275535   4.344   2.560  13.979 -0.0255  0.3229 -0.1271
18015TIP3    H175536   4.313   2.631  14.035 -2.0648 -0.6799  0.0610
18015TIP3    H275537   4.338   2.482  14.034  0.3547 -0.2839 -0.9373
18016TIP3   OH275538   2.736   2.175   1.367 -0.0115 -0.5058 -0.1670
18016TIP3    H175539   2.773   2.237   1.429  1.0776 -2.0102  0.7388
18016TIP3    H275540   2.713   2.099   1.420 -2.2123 -0.5282 -1.1024
18017TIP3   OH275541   3.956   5.770  12.809 -0.6081  0.4794  0.1058
18017TIP3    H175542   3.862   5.759  12.796 -0.5869  0.1808  0.1908
18017TIP3    H275543   3.966   5.859  12.844 -0.7643  0.8737 -0.8589
18018TIP3   OH275544   4.181   1.454   4.353 -0.5062 -0.4545 -0.4381
18018TIP3    H175545   4.198   1.534   4.402 -1.1302 -0.1772 -0.6648
18018TIP3    H275546   4.198   1.477   4.262  0.9667 -1.0597 -0.3295
18019TIP3   OH275547   5.142   6.701  16.434  0.2101  0.5381 -0.1112
18019TIP3    H175548   5.198   6.706  16.357 -1.1777 -1.8496 -1.3173
18019TIP3    H275549   5.155   6.612  16.468 -1.1794  0.6866  0.8808
18020TIP3   OH275550   1.866   3.573  16.373 -0.7158  0.0531  0.2132
18020TIP3    H175551   1.931   3.620  16.320  0.5407 -1.2981  0.5056
18020TIP3    H275552   1.917   3.534  16.444 -1.4817 -2.8286 -0.7403
18021TIP3   OH275553   0.700   5.409   0.511 -0.1174  0.0199  0.1788
18021TIP3    H175554   0.666   5.320   0.518 -0.1308  0.0698  0.7783
18021TIP3    H275555   0.625   5.465   0.534  0.5551  0.1140  2.3201
18022TIP3   OH275556   2.749   1.951   3.419  0.2421  0.1592  0.3954
18022TIP3    H175557   2.686   2.015   3.388  0.0234  0.4527  1.4487
18022TIP3    H275558   2.785   1.988   3.499 -0.2556 -1.2415  1.3012
18023TIP3   OH275559   6.466   0.723   3.651 -0.1450  0.2309 -0.1849
18023TIP3    H175560   6.414   0.693   3.577 -2.1197 -0.1862  1.3398
18023TIP3    H275561   6.487   0.815   3.631 -0.6861  0.1276 -1.2267
18024TIP3   OH275562   2.655   2.282  10.952  0.4582 -0.2470 -0.2848
18024TIP3    H175563   2.631   2.326  10.870 -2.1753  0.0078  0.5670
18024TIP3    H275564   2.644   2.350  11.019  0.3404 -1.0926  0.5544
18025TIP3   OH275565   3.757   5.585   0.990 -0.0925  0.0994 -0.3813
18025TIP3    H175566   3.676   5.579   0.940 -1.0317  0.3275  1.1030
18025TIP3    H275567   3.816   5.637   0.935 -1.4332  1.1542 -0.8413
18026TIP3   OH275568   2.747   2.680   1.713 -0.2593  0.0149  0.3895
18026TIP3    H175569   2.666   2.716   1.749 -0.1641  1.4741 -0.8230
18026TIP3    H275570   2.817   2.735   1.748 -0.1137  1.0310 -1.4239
18027TIP3   OH275571   1.598   3.050  12.164 -0.1433  0.6619 -0.3268
18027TIP3    H175572   1.667   3.115  12.178  1.2162 -0.9057  0.3941
18027TIP3    H275573   1.536   3.065  12.235  0.0017  1.3622 -0.3432
18028TIP3   OH275574   4.601   1.728   2.523 -0.5318 -0.5547 -0.0163
18028TIP3    H175575   4.572   1.813   2.490 -1.3331 -0.2140  1.5084
18028TIP3    H275576   4.694   1.724   2.501 -0.4572  0.7876  0.0104
18029TIP3   OH275577   0.945   2.247  16.384 -0.3142 -0.3798  0.1212
18029TIP3    H175578   0.887   2.309  16.341  2.0816  1.4316 -0.5822
18029TIP3    H275579   0.938   2.167  16.331 -0.3283  0.5980 -1.3890
18030TIP3   OH275580   3.469   2.139   3.547 -0.9187 -0.6566 -0.1912
18030TIP3    H175581   3.406   2.211   3.551  0.0979  0.3355 -1.4364
18030TIP3    H275582   3.480   2.122   3.454 -0.7343 -2.0595  0.0795
18031TIP3   OH275583   3.989   1.714  14.977  0.7931 -0.0412 -0.1938
18031TIP3    H175584   3.919   1.700  15.041  1.3638 -0.2012  0.4012
18031TIP3    H275585   3.951   1.772  14.912 -1.0290 -2.8516 -1.7175
18032TIP3   OH275586   6.534   3.631  15.870 -0.5811 -0.0989  0.1079
18032TIP3    H175587   6.528   3.715  15.916 -0.3990 -0.3285  0.5616
18032TIP3    H275588   6.516   3.652  15.778  0.5747  0.6318  0.0277
18033TIP3   OH275589   4.879   0.596  10.767 -0.3011 -0.5243 -0.4977
18033TIP3    H175590   4.808   0.659  10.782  0.3619 -0.1043  0.9678
18033TIP3    H275591   4.857   0.555  10.684 -2.7553 -1.0382  0.3598
18034TIP3   OH275592   2.825   6.095   0.478 -0.1225  0.1885  0.1880
18034TIP3    H175593   2.878   6.138   0.544  0.1880  0.4063 -0.2049
18034TIP3    H275594   2.803   6.010   0.517 -0.4103  0.5443  0.7964
18035TIP3   OH275595   6.494   1.755   5.682 -0.6663  0.5711  0.0411
18035TIP3    H175596   6.586   1.755   5.655 -0.8824  0.9815 -0.7072
18035TIP3    H275597   6.470   1.662   5.686 -0.6882  0.5056 -1.4042
18036TIP3   OH275598   5.796   5.588  14.996  0.0461 -0.5686 -0.0274
18036TIP3    H175599   5.839   5.548  15.072 -0.9620 -0.5135  0.5799
18036TIP3    H275600   5.730   5.524  14.970 -0.0425 -0.2999 -0.4725
18037TIP3   OH275601   4.976   0.477   1.054  0.0451 -0.4100  0.1977
18037TIP3    H175602   4.931   0.420   1.116  0.8786 -1.3023 -0.0099
18037TIP3    H275603   5.065   0.484   1.087  0.8076 -1.8211 -1.5104
18038TIP3   OH275604   6.591   3.089  16.829  0.1235 -0.3307  0.3063
18038TIP3    H175605   6.668   3.034  16.816 -0.3329 -0.9640  0.2435
18038TIP3    H275606   6.517   3.030  16.816 -0.3939 -0.7507  4.4140
18039TIP3   OH275607   6.392   4.956  13.875  0.3617  0.1391  0.4628
18039TIP3    H175608   6.483   4.927  13.876  0.2521 -0.3466 -1.8291
18039TIP3    H275609   6.341   4.875  13.871 -0.1577  0.4423  0.8727
18040TIP3   OH275610   4.901   3.497  15.598 -0.2402  0.0548 -0.1194
18040TIP3    H175611   4.908   3.537  15.685  1.3654  0.5075 -0.4287
18040TIP3    H275612   4.897   3.403  15.615  3.2883 -0.0803  0.3615
18041TIP3   OH275613   3.226   1.589  12.627  0.4419 -0.0676  0.5328
18041TIP3    H175614   3.149   1.619  12.577  0.4411  0.2594  0.7233
18041TIP3    H275615   3.208   1.498  12.647  0.7974 -0.4260 -0.7335
18042TIP3   OH275616   5.943   0.877  16.888  0.0850  0.1619  0.1100
18042TIP3    H175617   5.942   0.941  16.959 -0.1681  0.1250  0.1383
18042TIP3    H275618   5.892   0.918  16.818 -2.6490 -1.2702  1.2172
18043TIP3   OH275619   3.980   5.478  10.451 -0.3170  0.1120 -0.2713
18043TIP3    H175620   3.892   5.459  10.484 -0.4492 -1.5534 -1.5262
18043TIP3    H275621   4.039   5.448  10.520 -0.6723 -0.6496 -0.2977
18044TIP3   OH275622   6.461   6.082   3.660  0.5128  0.4979  0.2889
18044TIP3    H175623   6.469   5.988   3.675  1.5286  0.4127 -0.7650
18044TIP3    H275624   6.378   6.106   3.703  1.6285 -0.3608  3.0055
18045TIP3   OH275625   3.494   0.160  17.065  0.0296 -0.2702 -0.0008
18045TIP3    H175626   3.487   0.066  17.079  0.8043 -0.6824 -2.2001
18045TIP3    H275627   3.453   0.175  16.980  0.3683  1.3016  0.0955
18046TIP3   OH275628   2.399   4.221  12.364 -0.0098 -0.1500 -0.0661
18046TIP3    H175629   2.394   4.183  12.277 -0.2072  1.0535 -0.5978
18046TIP3    H275630   2.438   4.308  12.350 -2.1269  0.9670  0.7405
18047TIP3   OH275631   3.368   3.442   0.622  0.5975  0.1278  0.0974
18047TIP3    H175632   3.357   3.403   0.709 -1.8719  0.2164 -0.1420
18047TIP3    H275633   3.317   3.386   0.564 -0.5725  1.9869 -0.7232
18048TIP3   OH275634   4.583   5.070  14.643  0.3564  0.3026 -0.5473
18048TIP3    H175635   4.507   5.052  14.587  0.5046 -0.2867 -0.5601
18048TIP3    H275636   4.592   5.165  14.641 -1.9626  0.6247  1.4991
18049TIP3   OH275637   5.824   2.320   5.120 -0.0768  0.2846 -0.5430
18049TIP3    H175638   5.889   2.383   5.089 -2.4336  2.2643 -1.5887
18049TIP3    H275639   5.820   2.334   5.215 -0.7771  1.9721 -0.7940
18050TIP3   OH275640   4.586   3.354  13.330 -0.0923  0.0881 -0.1640
18050TIP3    H175641   4.585   3.415  13.403 -0.0819 -0.0031 -0.0877
18050TIP3    H275642   4.629   3.276  13.365 -3.3224 -1.3274  0.8136
18051TIP3   OH275643   5.292   2.738  17.201 -0.4742 -0.6219  0.1644
18051TIP3    H175644   5.337   2.803  17.255 -1.6940  1.8266 -1.6558
18051TIP3    H275645   5.345   2.659  17.210  1.8533  1.0098  1.3788
18052TIP3   OH275646   1.913   2.850  14.602  0.2038 -0.4795  0.0822
18052TIP3    H175647   1.882   2.866  14.513  0.7980 -0.0030 -0.0390
18052TIP3    H275648   1.889   2.929  14.650 -1.6310 -1.4053  0.7666
18053TIP3   OH275649   4.101   0.993   0.263 -0.6494 -0.0336  0.0705
18053TIP3    H175650   4.026   0.935   0.248 -1.7428  0.7828  2.2170
18053TIP3    H275651   4.066   1.081   0.254  0.2760  0.3561  0.1932
18054TIP3   OH275652   5.286   4.193   1.782  0.3736  0.0714 -0.0194
18054TIP3    H175653   5.279   4.281   1.746  0.7706  0.7254  1.4532
18054TIP3    H275654   5.196   4.161   1.786  0.2885  0.1418 -1.1690
18055TIP3   OH275655   3.546   2.514  15.952 -0.0354 -0.5780 -0.2449
18055TIP3    H175656   3.526   2.458  15.877  0.2367  0.7053 -1.3033
18055TIP3    H275657   3.600   2.460  16.009 -1.3059 -1.9964 -0.3529
18056TIP3   OH275658   5.531   6.571   4.449 -0.1247 -0.0128 -0.0244
18056TIP3    H175659   5.436   6.571   4.449 -0.1215  0.6965 -0.7004
18056TIP3    H275660   5.556   6.558   4.357  0.4311  1.9123 -0.1644
18057TIP3   OH275661   3.432   1.787   1.098 -0.8808  0.8476  0.0135
18057TIP3    H175662   3.524   1.813   1.109  0.2660 -2.2373 -1.6230
18057TIP3    H275663   3.382   1.864   1.125  2.0773  1.6156  3.7420
18058TIP3   OH275664   5.459   2.652   3.811 -0.6640  0.2394 -0.0787
18058TIP3    H175665   5.428   2.694   3.731 -0.3141  0.8339  0.0964
18058TIP3    H275666   5.383   2.652   3.870 -1.1413 -0.8719 -0.6694
18059TIP3   OH275667   1.257   0.074   4.704 -0.0495 -0.0059  0.1156
18059TIP3    H175668   1.231   0.004   4.645 -2.4517  1.5385 -0.7488
18059TIP3    H275669   1.256   0.153   4.650  1.4455  0.8748  1.3350
18060TIP3   OH275670   5.234   1.213  13.187  0.3130 -0.3087 -0.2993
18060TIP3    H175671   5.212   1.215  13.094 -0.6943 -0.8057 -0.0756
18060TIP3    H275672   5.324   1.246  13.191 -0.5555  2.2841 -1.1444
18061TIP3   OH275673   6.533   5.061  16.960 -0.1113 -0.0848 -0.3705
18061TIP3    H175674   6.511   5.124  17.029 -1.5954 -1.1299  0.1353
18061TIP3    H275675   6.503   4.977  16.994  2.3417 -1.1797 -0.8147
18062TIP3   OH275676   6.434   3.605  17.162  0.2099  0.0084 -0.2125
18062TIP3    H175677   6.509   3.659  17.186  0.0222  0.5538 -0.8204
18062TIP3    H275678   6.454   3.576  17.073  1.2912 -2.6619  0.8666
18063TIP3   OH275679   6.746   1.567  15.853  0.4422  0.0826 -0.1676
18063TIP3    H175680   6.654   1.540  15.863  0.1181  0.8385 -1.0701
18063TIP3    H275681   6.768   1.605  15.938 -0.3537  0.6958 -0.2215
18064TIP3   OH275682   4.292   3.661  14.089  0.6034 -0.3360  0.4787
18064TIP3    H175683   4.316   3.746  14.124 -1.0735  0.3113  0.1083
18064TIP3    H275684   4.205   3.674  14.051  0.5847 -2.0550 -0.1338
18065TIP3   OH275685   6.412   1.916  16.403  0.4584  0.0112 -0.5991
18065TIP3    H175686   6.423   1.876  16.317  1.1934 -0.0155 -0.4974
18065TIP3    H275687   6.501   1.942  16.429  0.1208  0.8101 -0.2327
18066TIP3   OH275688   2.435   4.696  12.752  0.5485  0.5184 -0.2040
18066TIP3    H175689   2.474   4.771  12.796 -1.0941  0.7680  0.8604
18066TIP3    H275690   2.498   4.625  12.765  0.7391  0.9554  1.3612
18067TIP3   OH275691   3.590   1.540  14.984 -0.2934  0.2168 -0.6297
18067TIP3    H175692   3.516   1.524  14.925 -0.9059 -1.5115  0.5915
18067TIP3    H275693   3.662   1.489  14.948 -0.7060 -0.9481  0.1804
18068TIP3   OH275694   0.862   1.049   2.568 -0.0058  0.8260  0.5370
18068TIP3    H175695   0.769   1.071   2.556  0.1198  1.7406  1.1464
18068TIP3    H275696   0.902   1.067   2.484 -0.0745  2.1252  0.7695
18069TIP3   OH275697   3.596   5.528   3.420 -0.0119  0.1985 -0.9923
18069TIP3    H175698   3.637   5.606   3.459 -1.2831  1.3896 -1.9606
18069TIP3    H275699   3.656   5.502   3.350  0.1945  0.5829 -0.9600
18070TIP3   OH275700   5.494   6.664  15.547  0.0039 -0.2749  0.1301
18070TIP3    H175701   5.465   6.576  15.572 -0.2300  0.3169  1.9709
18070TIP3    H275702   5.589   6.659  15.546 -0.0273 -0.7734 -0.6015
18071TIP3   OH275703   5.537   0.036   1.234  0.7060  0.3136  0.0557
18071TIP3    H175704   5.465  -0.018   1.200  1.1544  0.6221 -1.4372
18071TIP3    H275705   5.575  -0.017   1.304 -1.8132  0.7343  1.8195
18072TIP3   OH275706   0.910   1.571   6.348  0.0394 -0.4545  0.0590
18072TIP3    H175707   0.984   1.612   6.303 -0.7428  1.5391  0.5524
18072TIP3    H275708   0.947   1.492   6.388  1.5256 -0.3527 -1.0734
18073TIP3   OH275709   2.839   4.650   4.959 -0.2366 -0.1637  0.2461
18073TIP3    H175710   2.871   4.675   4.873 -0.9073 -2.5515 -0.7490
18073TIP3    H275711   2.744   4.644   4.949 -0.2764 -0.9587  0.9831
18074TIP3   OH275712   2.499   2.999   0.129  0.2791  0.0355 -0.5112
18074TIP3    H175713   2.583   3.041   0.148  1.5814 -2.9681  0.6636
18074TIP3    H275714   2.455   2.993   0.214 -0.4987  0.2313 -0.8898
18075TIP3   OH275715   0.658   1.702  12.311  0.1580 -0.2027  0.2944
18075TIP3    H175716   0.679   1.609  12.319  0.5911 -0.0100  1.6377
18075TIP3    H275717   0.626   1.727  12.398 -1.4833  0.5422 -0.4972
18076TIP3   OH275718   2.075   5.954  14.771 -0.6698  0.2083  0.3857
18076TIP3    H175719   2.016   5.912  14.709 -0.0402  0.4749 -0.4048
18076TIP3    H275720   2.025   5.959  14.852 -0.7265 -2.1433  0.5274
18077TIP3   OH275721   4.435   0.759   1.058  0.1947 -0.5023  0.1513
18077TIP3    H175722   4.417   0.667   1.040  3.5533 -1.5777  1.7508
18077TIP3    H275723   4.414   0.770   1.150 -0.7276  0.4765 -0.1750
18078TIP3   OH275724   6.695   1.270   1.399 -0.4080  0.3180  0.2942
18078TIP3    H175725   6.709   1.200   1.336  0.9885  1.9375 -1.2448
18078TIP3    H275726   6.600   1.270   1.414 -0.8186  0.1096 -2.0990
18079TIP3   OH275727   5.935   6.103  13.955  0.1224  0.1934 -0.2099
18079TIP3    H175728   6.031   6.109  13.946  0.5082 -2.0637  1.7991
18079TIP3    H275729   5.904   6.192  13.939  2.6049  1.0585 -0.5163
18080TIP3   OH275730   1.255   4.923  11.918 -0.0442 -0.5431 -0.6864
18080TIP3    H175731   1.330   4.875  11.882  0.2337  1.0541 -2.3110
18080TIP3    H275732   1.178   4.878  11.884  0.2108 -0.4760 -1.3632
18081TIP3   OH275733   0.085   2.194   3.499  0.4172 -0.7068  0.2107
18081TIP3    H175734   0.101   2.100   3.486  1.8313 -0.9787  3.5405
18081TIP3    H275735   0.016   2.198   3.565 -0.1620  0.6051 -0.4648
18082TIP3   OH275736   1.017   3.939   1.091  0.0411  0.1835 -0.2103
18082TIP3    H175737   1.046   4.029   1.088  1.6516 -0.2600  1.2735
18082TIP3    H275738   0.960   3.934   1.169  0.1622 -0.1312 -0.1378
18083TIP3   OH275739   1.896   4.306  10.982  0.1130 -0.2165  0.3696
18083TIP3    H175740   1.920   4.258  10.902  0.8442  0.7313  0.0169
18083TIP3    H275741   1.957   4.380  10.984 -0.6677  0.3972  1.1999
18084TIP3   OH275742   1.300   4.592   5.812  0.1050  0.3246 -0.6870
18084TIP3    H175743   1.297   4.638   5.728 -1.0189  1.0874 -0.2302
18084TIP3    H275744   1.291   4.661   5.877 -0.1605 -0.3964  0.0387
18085TIP3   OH275745   2.109   6.174   3.943  0.6468 -0.1998 -0.1693
18085TIP3    H175746   2.138   6.190   4.033  2.4479  0.7362 -0.8919
18085TIP3    H275747   2.146   6.089   3.920  0.5377 -0.2441 -0.1865
18086TIP3   OH275748   2.126   4.130  16.880  0.6292  0.0112  0.0015
18086TIP3    H175749   2.100   4.095  16.965 -0.8909 -2.0217 -1.2523
18086TIP3    H275750   2.132   4.225  16.894 -1.8994 -0.0351  1.7781
18087TIP3   OH275751   0.967   0.410   2.984  0.3053  0.2067 -0.3043
18087TIP3    H175752   1.019   0.404   2.904  1.1392  0.4038  0.2175
18087TIP3    H275753   1.032   0.411   3.054 -0.3649  1.2738  0.3137
18088TIP3   OH275754   3.177   4.523   4.140  0.1934 -0.0752 -1.1337
18088TIP3    H175755   3.119   4.449   4.153 -0.4829  0.5074 -0.8092
18088TIP3    H275756   3.239   4.494   4.073  0.2604 -1.1134 -0.6274
18089TIP3   OH275757   5.087   3.499   0.216  0.4893 -0.6068  0.1068
18089TIP3    H175758   5.055   3.483   0.304  0.9179 -0.5070  0.2779
18089TIP3    H275759   5.012   3.478   0.159  0.0964 -0.3157  0.5118
18090TIP3   OH275760   0.767   3.625  16.580  0.1315 -0.2402  0.4374
18090TIP3    H175761   0.834   3.580  16.633  0.5306 -1.0932 -0.7730
18090TIP3    H275762   0.727   3.555  16.529 -0.3978  0.5568 -0.2367
18091TIP3   OH275763   6.787   1.059  13.219 -0.0244 -0.2155 -0.2990
18091TIP3    H175764   6.733   1.069  13.140  1.4719  0.6773 -1.2246
18091TIP3    H275765   6.828   0.973  13.209  2.2638  1.0199 -1.8326
18092TIP3   OH275766   3.270   3.019  12.464  0.7402  0.2670  0.8032
18092TIP3    H175767   3.364   3.028  12.451  0.4663  1.1097 -0.7037
18092TIP3    H275768   3.232   3.097  12.423 -0.9296 -2.0664 -2.2888
18093TIP3   OH275769   3.890   3.565  14.268  0.2220 -0.2855 -0.2558
18093TIP3    H175770   3.873   3.602  14.181  1.4715  1.9900  0.4450
18093TIP3    H275771   3.963   3.505  14.254  1.7430  1.5694 -0.4541
18094TIP3   OH275772   5.787   3.584   3.943  0.4206 -0.2162  0.0929
18094TIP3    H175773   5.792   3.513   4.008 -0.0971  0.2684  0.6706
18094TIP3    H275774   5.719   3.555   3.881  0.4772 -0.3986  0.1167
18095TIP3   OH275775   5.907   1.255  13.979  0.1079  0.3437  0.0711
18095TIP3    H175776   5.980   1.262  13.917  0.7516 -0.0111  0.7775
18095TIP3    H275777   5.944   1.285  14.063  0.1031 -2.0293  0.9539
18096TIP3   OH275778   0.941   2.605  10.455  0.0449 -0.1687  0.0108
18096TIP3    H175779   0.860   2.596  10.404  0.3615  1.2261 -0.7567
18096TIP3    H275780   0.928   2.548  10.531 -1.0168 -1.1649 -0.9028
18097TIP3   OH275781   5.271   1.300  14.558  0.2514  0.1886  0.1428
18097TIP3    H175782   5.218   1.221  14.553  0.8897 -0.2478  0.1558
18097TIP3    H275783   5.305   1.302  14.648  1.7632 -0.5423 -0.3887
18098TIP3   OH275784   3.435   5.678   2.574  0.1894  0.4561  0.2372
18098TIP3    H175785   3.401   5.766   2.558  0.2492  0.6589  1.1526
18098TIP3    H275786   3.357   5.623   2.581  0.1283  0.5351  0.1720
18099TIP3   OH275787   3.499   0.830  15.024  0.1808  0.1417  0.2301
18099TIP3    H175788   3.410   0.841  14.991  0.2554  0.8176  0.2474
18099TIP3    H275789   3.545   0.910  14.996  0.4230  0.4146  1.3849
18100TIP3   OH275790   3.847   6.236  14.084 -0.2259  0.5028 -0.2333
18100TIP3    H175791   3.826   6.144  14.099  1.3375  0.4793  2.1951
18100TIP3    H275792   3.764   6.282  14.094 -0.5936 -0.4082  0.9508
18101TIP3   OH275793   6.507   4.171  12.088  0.0751 -0.3028 -0.6483
18101TIP3    H175794   6.503   4.260  12.052  0.0904 -0.6716 -1.5629
18101TIP3    H275795   6.421   4.157  12.127  0.9208  1.0786  1.8100
18102TIP3   OH275796   0.098   2.351  11.970  0.2261  0.3343  0.3008
18102TIP3    H175797   0.031   2.303  11.923 -0.6787  0.3659  1.5314
18102TIP3    H275798   0.096   2.439  11.933 -0.3704  0.3139  0.2928
18103TIP3   OH275799   2.289   6.242   2.077 -0.1918 -0.3656  0.8961
18103TIP3    H175800   2.317   6.165   2.028  0.0180 -1.2027  2.3260
18103TIP3    H275801   2.229   6.287   2.017  1.3003 -0.5129 -0.7621
18104TIP3   OH275802   2.503   6.505   4.878 -0.0159 -0.4930  0.5330
18104TIP3    H175803   2.561   6.432   4.855 -1.8981 -1.7791 -0.2980
18104TIP3    H275804   2.562   6.574   4.908  1.9073 -1.8955  0.0969
18105TIP3   OH275805   6.755   2.329   0.287  0.4861 -0.0990  0.5702
18105TIP3    H175806   6.832   2.294   0.243  0.1590 -3.9673  2.8125
18105TIP3    H275807   6.789   2.367   0.368  0.2352 -0.5187  0.8786
18106TIP3   OH275808   3.073   4.240   2.555 -0.1709 -0.2968  0.5077
18106TIP3    H175809   3.014   4.167   2.536  1.7644 -2.1729  1.4448
18106TIP3    H275810   3.084   4.285   2.471 -1.3475 -1.1192 -0.0986
18107TIP3   OH275811   0.637   5.286  13.202 -0.0455  0.6297 -0.6473
18107TIP3    H175812   0.569   5.289  13.269 -0.7155 -0.5026 -1.2786
18107TIP3    H275813   0.674   5.198  13.209  0.5332  0.8325 -1.1281
18108TIP3   OH275814   5.837   4.267   4.890 -0.0159  0.0755  0.2696
18108TIP3    H175815   5.779   4.342   4.903  0.2025  0.3082 -0.0893
18108TIP3    H275816   5.803   4.224   4.811  0.2044  0.1217  0.1488
18109TIP3   OH275817   0.046   2.946   3.853  0.0849 -0.1548 -0.1135
18109TIP3    H175818   0.110   2.907   3.793 -0.9249 -0.9341 -0.7070
18109TIP3    H275819   0.044   2.887   3.928 -2.3600 -1.9831 -1.5598
18110TIP3   OH275820   0.847   0.178   3.100  0.2725 -0.1397 -0.2287
18110TIP3    H175821   0.772   0.176   3.041  0.1097 -2.2187  0.0210
18110TIP3    H275822   0.921   0.202   3.045  0.0853 -1.8527 -1.2501
18111TIP3   OH275823   3.185   1.885  17.292  0.2187 -0.5965 -0.0304
18111TIP3    H175824   3.193   1.790  17.308  2.2642 -0.3625  0.4794
18111TIP3    H275825   3.254   1.904  17.229  1.1190  0.8916  1.3734
18112TIP3   OH275826   5.251   2.987  16.086 -0.4609 -0.1910  0.1469
18112TIP3    H175827   5.306   3.053  16.043 -2.5935 -0.0916 -2.5971
18112TIP3    H275828   5.194   3.038  16.144 -0.5041  0.1369 -0.1785
18113TIP3   OH275829   0.922   5.689  14.157 -0.1640  0.1725  0.0920
18113TIP3    H175830   0.985   5.675  14.228 -1.0201  2.2454  1.3032
18113TIP3    H275831   0.972   5.669  14.077  1.1839 -0.9526  1.1822
18114TIP3   OH275832   4.477   0.146   4.257  0.4768  0.1653 -0.2546
18114TIP3    H175833   4.413   0.205   4.296  0.5613  0.0688  0.0273
18114TIP3    H275834   4.510   0.194   4.181 -0.2209  0.0492 -0.6346
18115TIP3   OH275835   6.061   4.101  13.830 -0.4122  0.3958 -0.0978
18115TIP3    H175836   6.082   4.109  13.923 -0.0849 -0.9563 -0.0534
18115TIP3    H275837   5.972   4.068  13.828  0.2537 -1.4385 -0.2425
18116TIP3   OH275838   3.249   1.306   0.285 -0.0502 -0.1219  0.4797
18116TIP3    H175839   3.241   1.250   0.363 -0.8343  2.4285  2.2995
18116TIP3    H275840   3.331   1.353   0.298 -0.2652  0.4290 -0.1414
18117TIP3   OH275841   2.358   0.961  12.796 -0.2953  0.6232 -0.1938
18117TIP3    H175842   2.430   0.904  12.769 -1.7034 -1.3615  0.0932
18117TIP3    H275843   2.368   0.968  12.891 -0.2596  0.6727 -0.2001
18118TIP3   OH275844   4.479   3.968   6.393  0.5428  0.4894 -0.5679
18118TIP3    H175845   4.462   4.061   6.381  1.0558  0.5655 -0.7144
18118TIP3    H275846   4.451   3.950   6.483 -0.9490  0.4578 -1.0207
18119TIP3   OH275847   1.688   0.674   1.565 -0.1184 -0.1695 -0.0430
18119TIP3    H175848   1.739   0.604   1.606  0.1520 -0.2458 -0.5125
18119TIP3    H275849   1.732   0.691   1.482  0.0325  0.8085  0.2286
18120TIP3   OH275850   5.829   0.957  15.043  0.0782 -0.4216  0.6447
18120TIP3    H175851   5.863   0.932  15.129  0.3552  0.7880  0.8987
18120TIP3    H275852   5.820   0.875  14.995  0.6835 -1.0199  1.5560
18121TIP3   OH275853   4.875   2.437  11.059  0.1177 -0.2716  0.4421
18121TIP3    H175854   4.860   2.343  11.049  0.1637 -0.1497 -1.0184
18121TIP3    H275855   4.969   2.446  11.068  0.0781 -0.4003  0.9522
18122TIP3   OH275856   0.421   6.183   1.273 -0.9418  0.1235 -0.3363
18122TIP3    H175857   0.351   6.239   1.304 -1.3126 -0.4801 -0.0668
18122TIP3    H275858   0.421   6.194   1.178 -2.2805 -0.8672 -0.4717
18123TIP3   OH275859   2.360   2.433  16.872  0.0685  0.3842  0.4489
18123TIP3    H175860   2.284   2.468  16.825 -0.5146  0.1426  1.1892
18123TIP3    H275861   2.375   2.495  16.943  1.0164  0.8071 -0.1184
18124TIP3   OH275862   1.371   2.290   5.707 -0.0431 -0.3016  0.3150
18124TIP3    H175863   1.348   2.379   5.733 -1.9000 -1.0958  1.4929
18124TIP3    H275864   1.331   2.279   5.621 -0.2746 -0.1898  0.4090
18125TIP3   OH275865   3.879   3.698  14.039  0.3189  0.5460 -0.3878
18125TIP3    H175866   3.953   3.752  14.013  0.0097  1.7077  1.0548
18125TIP3    H275867   3.854   3.650  13.960  2.6555  0.0568 -0.8609
18126TIP3   OH275868   2.700   0.405   0.748  0.1251 -0.1951  0.3479
18126TIP3    H175869   2.783   0.384   0.789  0.8290  0.6481 -0.6126
18126TIP3    H275870   2.679   0.493   0.779 -0.8750 -0.7614  1.3114
18127TIP3   OH275871   4.471   2.749  16.597  0.4468 -0.3599 -0.4283
18127TIP3    H175872   4.442   2.709  16.679  0.3327 -1.7493 -1.1148
18127TIP3    H275873   4.433   2.692  16.529  2.6870 -0.7331 -1.3965
18128TIP3   OH275874   2.069   2.493   3.348  0.0657  0.6889  0.1361
18128TIP3    H175875   2.011   2.554   3.393 -0.8906 -0.6264  0.7288
18128TIP3    H275876   2.154   2.538   3.343 -0.3294  1.5915  1.5733
18129TIP3   OH275877   5.925   3.932   2.854  0.1817 -0.2456  0.1965
18129TIP3    H175878   5.970   3.854   2.888 -1.8090 -0.8285  1.6286
18129TIP3    H275879   5.921   3.919   2.760 -0.7158 -2.2502  0.4810
18130TIP3   OH275880   3.662   3.774  14.292  0.0715 -0.4424  0.3411
18130TIP3    H175881   3.645   3.699  14.235  1.4681  0.0489 -0.7585
18130TIP3    H275882   3.757   3.773  14.305 -0.1381 -0.1069  2.0618
18131TIP3   OH275883   2.244   6.224  12.385  0.0865 -0.1124 -0.0382
18131TIP3    H175884   2.274   6.206  12.296 -1.2635 -0.7105 -0.3700
18131TIP3    H275885   2.320   6.264  12.427  0.4996  0.8981 -1.6833
18132TIP3   OH275886   5.044   0.831   3.399 -0.1678 -0.3622 -0.5383
18132TIP3    H175887   5.089   0.915   3.400  0.9215 -0.9361  1.6938
18132TIP3    H275888   5.024   0.813   3.491 -0.8336 -2.3183 -1.0287
18133TIP3   OH275889   6.717   2.837  16.359 -0.4100  0.2985  0.2043
18133TIP3    H175890   6.754   2.869  16.442 -0.0782  2.2086 -0.6480
18133TIP3    H275891   6.794   2.814  16.306 -0.6347 -1.4131  0.6048
18134TIP3   OH275892   3.288   6.247  12.907  0.2077  0.2036 -0.2746
18134TIP3    H175893   3.214   6.194  12.876  0.8134 -0.2426 -0.9716
18134TIP3    H275894   3.366   6.196  12.883  0.8015  1.4160 -0.9709
18135TIP3   OH275895   2.169   5.447  13.480  0.5057 -0.4561 -0.9451
18135TIP3    H175896   2.215   5.367  13.454 -0.2554 -0.6473 -1.7575
18135TIP3    H275897   2.179   5.506  13.405  1.9288  0.6044  0.0596
18136TIP3   OH275898   1.638   1.658   4.330  0.4311 -0.2581 -0.0416
18136TIP3    H175899   1.582   1.696   4.398  0.3111 -0.1682 -0.1921
18136TIP3    H275900   1.716   1.715   4.329 -0.5116  1.0599 -1.5057
18137TIP3   OH275901   1.452   0.353  12.889 -0.5788 -0.4541 -0.3612
18137TIP3    H175902   1.442   0.446  12.907 -0.9238 -0.3963 -0.8363
18137TIP3    H275903   1.436   0.345  12.795  0.6263 -0.8258 -0.5433
18138TIP3   OH275904   1.197   0.555  16.817  0.2741  0.1382 -0.4445
18138TIP3    H175905   1.138   0.491  16.858  0.3054 -0.6590 -1.6048
18138TIP3    H275906   1.161   0.640  16.841 -0.5841 -0.3351 -0.0406
18139TIP3   OH275907   3.652   4.465  14.158 -0.6390  0.1969  0.2529
18139TIP3    H175908   3.747   4.458  14.155 -0.7351 -0.8398 -0.9504
18139TIP3    H275909   3.622   4.431  14.073 -2.1419 -1.0176  1.2289
18140TIP3   OH275910   5.953   4.540  12.024  0.1377  0.2126 -0.0744
18140TIP3    H175911   5.900   4.464  11.998  2.3014 -1.2695 -0.2372
18140TIP3    H275912   5.888   4.606  12.049 -1.8251 -1.1078 -1.4947
18141TIP3   OH275913   3.092   2.511  17.036 -0.5010 -0.3002 -0.0304
18141TIP3    H175914   3.160   2.482  17.097 -1.6263  0.0504  1.4103
18141TIP3    H275915   3.051   2.430  17.006 -1.3455 -0.3771  1.3159
18142TIP3   OH275916   0.023   3.574   5.757  0.2795 -0.4647  0.2418
18142TIP3    H175917   0.062   3.520   5.688  1.8963  1.1404 -0.1497
18142TIP3    H275918   0.060   3.540   5.838  3.0721  1.3977 -0.1634
18143TIP3   OH275919   2.764   3.572   1.871  0.4130  0.0738  0.0691
18143TIP3    H175920   2.723   3.528   1.796 -0.1613 -0.2816  0.5872
18143TIP3    H275921   2.691   3.603   1.923  0.7965 -0.6752  1.0677
18144TIP3   OH275922   3.231   5.426  13.779  0.4249  0.2568  0.1336
18144TIP3    H175923   3.304   5.454  13.724 -0.2474 -0.4599 -1.1475
18144TIP3    H275924   3.258   5.342  13.814  0.1470 -0.0907 -0.4825
18145TIP3   OH275925   5.282   4.191  11.952 -0.4164 -0.9769  0.4849
18145TIP3    H175926   5.241   4.105  11.953  0.5917 -1.4764  2.2357
18145TIP3    H275927   5.376   4.173  11.949 -0.1987  0.0478  0.7330
18146TIP3   OH275928   1.717   2.172   3.167  0.1883 -0.4866  0.7549
18146TIP3    H175929   1.785   2.116   3.129  0.2284 -0.2859  0.5298
18146TIP3    H275930   1.763   2.223   3.234  0.8963  1.6737 -1.2709
18147TIP3   OH275931   6.093   0.208  14.604 -0.6831  0.5192  0.9364
18147TIP3    H175932   6.110   0.221  14.697  0.5167  3.2281  0.4000
18147TIP3    H275933   5.998   0.221  14.596 -0.9435 -0.7169  1.9124
18148TIP3   OH275934   4.512   6.185  15.430  0.1013 -0.4638 -0.2865
18148TIP3    H175935   4.418   6.200  15.438  0.2736  1.3864 -1.5202
18148TIP3    H275936   4.524   6.150  15.342  0.4938 -1.3578  0.1186
18149TIP3   OH275937   6.401   6.209  12.629 -0.1850  0.0072  0.0300
18149TIP3    H175938   6.381   6.262  12.706  0.0291 -0.3682  0.3491
18149TIP3    H275939   6.353   6.250  12.558 -1.1078 -0.1628  0.5441
18150TIP3   OH275940   6.512   5.669  14.794  0.3103  0.0362 -0.2795
18150TIP3    H175941   6.453   5.674  14.869  0.6561  0.6063 -0.0397
18150TIP3    H275942   6.599   5.662  14.832  0.6546  2.1751 -0.5945
18151TIP3   OH275943   0.473   3.685   3.482 -0.0284  0.1499  0.1702
18151TIP3    H175944   0.524   3.649   3.554  2.4496  2.8925 -0.1623
18151TIP3    H275945   0.506   3.639   3.404  0.3489  0.3023  0.2395
18152TIP3   OH275946   4.118   1.277   0.298  0.0619 -0.3409 -0.7094
18152TIP3    H175947   4.155   1.236   0.375 -1.0959 -1.0923 -0.5370
18152TIP3    H275948   4.142   1.370   0.306  0.9777 -0.6292 -0.0815
18153TIP3   OH275949   0.382   2.507   0.300 -0.3673  0.4183  0.1252
18153TIP3    H175950   0.402   2.553   0.382 -0.5934  1.6031 -0.4760
18153TIP3    H275951   0.467   2.493   0.259 -0.3964  1.5313 -0.3366
18154TIP3   OH275952   3.592   5.038   6.238 -0.4306 -0.5545 -0.1517
18154TIP3    H175953   3.516   5.093   6.220  1.9517  2.9943  0.0823
18154TIP3    H275954   3.648   5.049   6.162  2.2836  1.3787  2.0090
18155TIP3   OH275955   1.128   4.218  13.085  0.1765 -0.1207 -0.1372
18155TIP3    H175956   1.115   4.184  12.997 -1.1743  0.6996 -0.2555
18155TIP3    H275957   1.058   4.180  13.137  0.7385 -0.2925  0.5141
18156TIP3   OH275958   5.230   0.870  17.259  0.4842  0.2435 -0.4491
18156TIP3    H175959   5.211   0.780  17.232  2.0720  0.5026 -2.6072
18156TIP3    H275960   5.325   0.870  17.276 -0.1403  0.5653  3.5042
18157TIP3   OH275961   6.579   5.343  12.970 -0.2015  0.7137  0.0243
18157TIP3    H175962   6.662   5.318  12.930 -1.0515 -1.4053 -0.4983
18157TIP3    H275963   6.589   5.321  13.062 -0.4678 -0.3345 -0.1920
18158TIP3   OH275964   2.214   4.288  11.816 -0.1025  0.1189  0.6548
18158TIP3    H175965   2.309   4.276  11.810 -0.2132 -0.3476 -0.2571
18158TIP3    H275966   2.181   4.206  11.852 -0.0779  0.5963  1.7710
18159TIP3   OH275967   6.720   0.485  15.029 -0.1927 -0.5225  0.0939
18159TIP3    H175968   6.790   0.452  15.085 -0.0297 -1.5739 -0.7140
18159TIP3    H275969   6.740   0.578  15.017  0.2974 -0.5102  0.9822
18160TIP3   OH275970   3.584   5.277   4.259 -0.3961 -0.1003  0.8427
18160TIP3    H175971   3.646   5.350   4.258 -0.7836  0.2330  1.0019
18160TIP3    H275972   3.578   5.251   4.167 -0.4453  0.2285  0.7500
18161TIP3   OH275973   5.468   1.347  12.061  0.2014 -1.0253  0.1076
18161TIP3    H175974   5.380   1.346  12.024  0.5663 -0.2010 -0.8016
18161TIP3    H275975   5.479   1.437  12.094  0.9719 -0.9064 -0.4529
18162TIP3   OH275976   3.250   3.717  13.127 -0.2968  0.0909  0.7031
18162TIP3    H175977   3.263   3.723  13.222 -0.4537  0.0899  0.7237
18162TIP3    H275978   3.338   3.699  13.093  0.0280  1.5162  0.7245
18163TIP3   OH275979   0.641   3.839   1.035  0.2337  0.1436 -0.4318
18163TIP3    H175980   0.586   3.776   1.081 -0.5254 -0.9758 -2.8250
18163TIP3    H275981   0.702   3.871   1.102  0.1424 -2.5450  0.9833
18164TIP3   OH275982   3.937   5.460   5.265  0.2512 -0.0990 -0.7176
18164TIP3    H175983   3.931   5.373   5.304 -0.2316  0.9265  1.6099
18164TIP3    H275984   3.995   5.509   5.324 -1.5871  1.9037 -0.4989
18165TIP3   OH275985   0.164   4.165   4.367 -0.2543  0.3249  0.0189
18165TIP3    H175986   0.170   4.129   4.278  0.4993  0.4050  0.0275
18165TIP3    H275987   0.154   4.259   4.354  0.4127  0.3999  0.0197
18166TIP3   OH275988   4.199   2.033   2.479 -0.2256  0.2294  0.2714
18166TIP3    H175989   4.263   1.967   2.504 -0.2970 -0.0732 -0.3158
18166TIP3    H275990   4.236   2.116   2.509 -0.1986 -0.0953  1.1274
18167TIP3   OH275991   3.717   5.385  14.948  0.1193 -0.0762  0.6614
18167TIP3    H175992   3.636   5.375  14.898  1.3288  0.3587 -1.4423
18167TIP3    H275993   3.694   5.355  15.036 -2.5835  0.9541  0.3718
18168TIP3   OH275994   3.488   2.511   0.384  0.2973  0.3413  0.1179
18168TIP3    H175995   3.434   2.580   0.422  1.2479  1.3612 -0.3746
18168TIP3    H275996   3.450   2.494   0.298  0.2061  0.4215  0.1431
18169TIP3   OH275997   5.924   6.105  17.119 -0.6686 -0.3957 -0.0521
18169TIP3    H175998   5.888   6.144  17.199 -0.5874  0.6323 -0.5139
18169TIP3    H275999   5.996   6.050  17.151 -1.5949 -1.1992  0.7178
18170TIP3   OH276000   5.882   1.323  11.222 -0.2112  0.1011  0.0496
18170TIP3    H176001   5.846   1.332  11.134 -0.4377 -0.7345  0.0538
18170TIP3    H276002   5.845   1.396  11.271 -2.4677 -1.1325  0.2429
18171TIP3   OH276003   3.012   6.363   5.175 -0.0863 -0.8438  0.2305
18171TIP3    H176004   2.963   6.281   5.175 -0.9685 -0.3451 -1.3119
18171TIP3    H276005   2.981   6.409   5.097 -0.8316  1.6645  1.9424
18172TIP3   OH276006   0.156   6.769  14.508  0.0463 -0.3405  0.2705
18172TIP3    H176007   0.077   6.718  14.529  0.6391 -0.9209  1.0810
18172TIP3    H276008   0.140   6.855  14.548  1.2431 -1.4825  3.3134
18173TIP3   OH276009   2.166   0.917  16.046  0.0902  0.2427  0.0574
18173TIP3    H176010   2.155   0.982  16.115  1.3241  0.0841  0.4142
18173TIP3    H276011   2.233   0.858  16.080  1.2932  0.6235 -1.6044
18174TIP3   OH276012   0.327   0.598   1.010  0.0742  0.0502  0.5332
18174TIP3    H176013   0.303   0.676   0.959  1.5140 -1.1669 -2.1280
18174TIP3    H276014   0.376   0.633   1.084  1.4235  1.6765 -1.0588
18175TIP3   OH276015   5.535   5.678   3.337  0.5659  0.4775  0.1891
18175TIP3    H176016   5.588   5.608   3.301  0.1851  0.9042 -1.2616
18175TIP3    H276017   5.524   5.656   3.430 -0.6102 -2.0343 -0.5093
18176TIP3   OH276018   4.161   4.058  11.720 -0.2541 -0.1325  0.2627
18176TIP3    H176019   4.249   4.095  11.730 -0.3440 -0.2211  1.3537
18176TIP3    H276020   4.102   4.132  11.736 -0.3701  0.3717 -2.2757
18177TIP3   OH276021   1.082   6.249  15.752 -0.0323 -0.4686 -0.4407
18177TIP3    H176022   1.011   6.311  15.769 -0.1036 -1.3641  2.8007
18177TIP3    H276023   1.162   6.302  15.757 -0.2611 -0.1160 -0.4921
18178TIP3   OH276024   6.700   2.937   4.203  0.6800  0.1004 -0.1084
18178TIP3    H176025   6.640   2.979   4.142 -2.3541 -0.1397  2.6051
18178TIP3    H276026   6.735   3.009   4.255  0.1513 -0.1058  0.5334
18179TIP3   OH276027   2.591   6.271   0.691 -0.3759  0.0197 -0.3604
18179TIP3    H176028   2.684   6.276   0.670 -0.5890  1.0753 -1.1313
18179TIP3    H276029   2.588   6.239   0.781  0.6967 -0.8721 -0.6297
18180TIP3   OH276030   0.197   1.495  12.737  0.1939  0.0930 -0.6294
18180TIP3    H176031   0.161   1.529  12.655 -0.7402 -0.1350 -0.3200
18180TIP3    H276032   0.253   1.565  12.770 -1.4829  1.2234 -0.1449
18181TIP3   OH276033   0.524   0.771   3.904 -0.1189  0.4157 -0.2287
18181TIP3    H176034   0.606   0.731   3.932  0.3353  0.8713 -0.8813
18181TIP3    H276035   0.471   0.777   3.983  0.1918 -0.5595  0.0530
18182TIP3   OH276036   3.784   5.488  15.547 -0.8063 -0.3638  0.6840
18182TIP3    H176037   3.780   5.480  15.643  0.8961 -1.6899  0.6676
18182TIP3    H276038   3.800   5.399  15.516 -1.3057  0.0721 -0.8375
18183TIP3   OH276039   2.856   5.603  11.146 -0.2531  0.8705 -0.3776
18183TIP3    H176040   2.779   5.579  11.196 -0.2453  1.3937 -0.1035
18183TIP3    H276041   2.899   5.670  11.199  0.0805  0.9960 -0.7994
18184TIP3   OH276042   0.562   6.447   5.131 -0.1694  0.0455  0.4039
18184TIP3    H176043   0.534   6.356   5.143  1.1151 -0.4575 -0.2269
18184TIP3    H276044   0.652   6.440   5.097 -0.2383  1.5430 -0.1406
18185TIP3   OH276045   2.981   6.141  11.151  0.5779  0.0595 -0.5693
18185TIP3    H176046   3.044   6.193  11.102 -1.1959  1.5117 -1.3591
18185TIP3    H276047   3.024   6.056  11.162  2.4190  0.8290 -1.5888
18186TIP3   OH276048   3.029   2.152  12.193 -0.0719 -0.1070  0.0006
18186TIP3    H176049   2.936   2.127  12.194 -0.3812  1.0004  0.9397
18186TIP3    H276050   3.032   2.230  12.137 -0.2659  1.7450  2.4576
18187TIP3   OH276051   2.269   0.765  17.199 -0.6609 -0.4459 -0.3018
18187TIP3    H176052   2.309   0.678  17.198 -1.5621 -0.8703 -0.4797
18187TIP3    H276053   2.185   0.751  17.243 -0.6656  0.4032 -0.0372
18188TIP3   OH276054   0.684   3.863  14.158 -0.4071  0.0733 -0.2159
18188TIP3    H176055   0.635   3.926  14.212 -1.5982 -2.1489  1.3493
18188TIP3    H276056   0.663   3.889  14.068 -2.0055  1.0730  0.4189
18189TIP3   OH276057   0.526   2.148   5.516 -0.3833 -0.5059  0.1755
18189TIP3    H176058   0.454   2.202   5.547  0.7388  2.7761 -2.6610
18189TIP3    H276059   0.488   2.098   5.443 -0.3596 -0.4966  0.1569
18190TIP3   OH276060   3.398   4.362   0.500 -0.0630 -0.1389  0.1559
18190TIP3    H176061   3.392   4.294   0.433 -0.7109  0.4000 -0.3367
18190TIP3    H276062   3.373   4.443   0.455  1.3682  0.5367  0.5711
18191TIP3   OH276063   5.747   1.998  12.952  1.0926 -0.8421  0.2453
18191TIP3    H176064   5.711   2.083  12.928 -0.5146 -1.6057 -0.1462
18191TIP3    H276065   5.754   2.001  13.047  2.4919  0.2719  0.1210
18192TIP3   OH276066   3.878   1.676   5.819 -0.0806  0.1352  0.2803
18192TIP3    H176067   3.824   1.600   5.837 -0.2081  0.3557  0.8587
18192TIP3    H276068   3.966   1.640   5.804 -0.1576 -0.1310  0.4655
18193TIP3   OH276069   5.397   0.645   4.808 -0.4720 -0.0160  0.2347
18193TIP3    H176070   5.437   0.731   4.823 -0.4301 -0.1739  1.0613
18193TIP3    H276071   5.426   0.620   4.721  0.3160  0.3674  0.3825
18194TIP3   OH276072   2.698   3.898  12.300 -0.4753 -0.4446  0.4137
18194TIP3    H176073   2.623   3.952  12.275  1.2644  1.1644 -1.5014
18194TIP3    H276074   2.770   3.932  12.247  1.6073 -1.9623  2.2176
18195TIP3   OH276075   4.088   5.558   1.424  0.3447  0.5847  0.0141
18195TIP3    H176076   4.080   5.476   1.374  0.2993  1.1042 -0.8412
18195TIP3    H276077   4.149   5.536   1.495 -0.1253 -0.3522  0.1408
18196TIP3   OH276078   3.251   1.605  16.036  0.2333  0.1091  0.4806
18196TIP3    H176079   3.191   1.640  15.971  1.2623 -1.8984 -1.6005
18196TIP3    H276080   3.324   1.668  16.037  0.7881 -0.4776 -1.2382
18197TIP3   OH276081   2.564   2.301   2.169 -0.1712 -0.3889  0.3335
18197TIP3    H176082   2.633   2.316   2.233 -0.8831 -0.7135  1.1917
18197TIP3    H276083   2.588   2.219   2.126  0.1954 -0.2855  0.3395
18198TIP3   OH276084   4.126   6.516   4.279  0.6779 -0.7608  0.8357
18198TIP3    H176085   4.058   6.548   4.338 -0.1437  1.6764 -1.3255
18198TIP3    H276086   4.208   6.543   4.321  0.1359  0.3321  1.2257
18199TIP3   OH276087   5.018   1.606  17.264 -0.0418 -0.2384  0.2730
18199TIP3    H176088   4.975   1.685  17.232 -0.7559 -0.2806  1.1151
18199TIP3    H276089   4.959   1.535  17.240  1.4117 -0.7294 -2.0343
18200TIP3   OH276090   5.814   0.326  12.462 -0.0165 -0.0534  0.7470
18200TIP3    H176091   5.900   0.333  12.421 -0.0333 -1.7705  0.3818
18200TIP3    H276092   5.769   0.257  12.413  0.0664 -2.3771  3.8126
18201TIP3   OH276093   4.544   4.693   5.153 -0.2257  0.1943  0.3466
18201TIP3    H176094   4.508   4.604   5.152 -0.2756  0.2209 -0.5000
18201TIP3    H276095   4.616   4.689   5.215 -0.3796 -0.3797  0.4921
18202TIP3   OH276096   4.789   4.850  14.354  0.0722 -0.1643 -0.4130
18202TIP3    H176097   4.792   4.890  14.267  0.7844  0.9803  0.1157
18202TIP3    H276098   4.703   4.809  14.358 -1.0753  2.1215 -0.6653
18203TIP3   OH276099   0.243   0.832   0.879 -0.1757 -0.1526  0.3292
18203TIP3    H176100   0.254   0.851   0.786  0.4082  2.3955  0.8698
18203TIP3    H276101   0.148   0.828   0.891 -0.2976  1.0821 -0.1091
18204TIP3   OH276102   2.114   1.573  15.784 -0.3218 -0.0963 -0.0579
18204TIP3    H176103   2.141   1.664  15.777 -0.7174  0.0839  0.6672
18204TIP3    H276104   2.135   1.535  15.699  0.3693  0.5271 -0.1748
18205TIP3   OH276105   2.079   1.448   0.090 -0.1497 -0.1362 -0.3747
18205TIP3    H176106   2.008   1.419   0.033  0.2369 -1.2346 -0.3189
18205TIP3    H276107   2.142   1.375   0.089  0.2639  0.1930  0.7644
18206TIP3   OH276108   5.921   2.758  14.879  0.0772 -0.2273 -0.1093
18206TIP3    H176109   5.847   2.755  14.819 -1.2786  0.9145  1.4509
18206TIP3    H276110   5.997   2.732  14.826 -1.7580 -3.8058 -1.1879
18207TIP3   OH276111   4.530   0.815  17.144 -0.0788 -0.1911 -0.0135
18207TIP3    H176112   4.557   0.762  17.219  0.1393  1.0256  0.7731
18207TIP3    H276113   4.454   0.864  17.175 -0.7201 -0.5681 -0.9639
18208TIP3   OH276114   2.459   4.924  16.355 -0.0960  0.4656 -0.7691
18208TIP3    H176115   2.482   4.831  16.365  0.6059  0.6148 -0.9767
18208TIP3    H276116   2.496   4.949  16.270 -0.1275  0.9806 -0.6320
18209TIP3   OH276117   2.322   0.142   5.315 -0.1069 -0.0722 -0.4648
18209TIP3    H176118   2.286   0.169   5.230  1.6208  0.9657 -0.8956
18209TIP3    H276119   2.416   0.133   5.299 -0.2441 -3.5153  0.4404
18210TIP3   OH276120   5.269   5.924  12.627  0.5523  0.0604  0.0072
18210TIP3    H176121   5.310   5.845  12.661 -0.8914 -1.0461 -0.7583
18210TIP3    H276122   5.256   5.906  12.534 -2.0275  0.1664  0.2934
18211TIP3   OH276123   6.801   1.828   4.799  0.0016  0.4243  0.8848
18211TIP3    H176124   6.739   1.768   4.841 -0.3293  0.1429  0.0185
18211TIP3    H276125   6.791   1.810   4.705  0.1458  1.6059  0.6432
18212TIP3   OH276126   6.129   0.540   2.527 -0.0848 -0.0757  0.0381
18212TIP3    H176127   6.119   0.576   2.615  1.8796  1.3404 -0.2849
18212TIP3    H276128   6.180   0.606   2.479  0.0055 -1.4140 -1.7845
18213TIP3   OH276129   4.221   1.023  17.114  0.2195 -0.3592 -0.0599
18213TIP3    H176130   4.188   1.084  17.180  0.8555 -0.0457 -0.0259
18213TIP3    H276131   4.210   0.937  17.153  1.5243 -0.1099  0.8700
18214TIP3   OH276132   1.333   0.583   4.596  0.2433 -0.6521  0.1529
18214TIP3    H176133   1.395   0.517   4.565  0.2369 -0.3400 -0.5251
18214TIP3    H276134   1.367   0.666   4.561 -0.1266 -0.3828  0.4289
18215TIP3   OH276135   6.124   3.366   2.117 -0.2406 -0.5240 -0.4360
18215TIP3    H176136   6.148   3.402   2.031 -1.0976 -1.7488 -1.1951
18215TIP3    H276137   6.161   3.428   2.179  2.3719 -0.7775 -1.6374
18216TIP3   OH276138   1.357   2.128  13.815 -0.3734 -0.1292 -1.1024
18216TIP3    H176139   1.421   2.184  13.770  1.5966 -1.4918 -0.0668
18216TIP3    H276140   1.395   2.040  13.810 -1.7779 -0.8251  0.2509
18217TIP3   OH276141   5.435   1.615   6.509  0.2102  0.5827  0.2243
18217TIP3    H176142   5.364   1.551   6.510 -1.1356  2.0395  1.1302
18217TIP3    H276143   5.482   1.600   6.591 -0.4311  1.0844  0.6924
18218TIP3   OH276144   4.969   5.904   6.010  0.4394  0.5649 -0.2043
18218TIP3    H176145   4.907   5.831   6.018 -0.4483  1.2175 -0.9090
18218TIP3    H276146   5.055   5.864   6.015 -0.0441 -0.4961 -0.2496
18219TIP3   OH276147   1.757   2.341  16.815  0.2618  0.1171 -0.0993
18219TIP3    H176148   1.838   2.345  16.865  0.3459  0.3539 -0.2536
18219TIP3    H276149   1.689   2.370  16.876  0.5875  1.9470 -0.5989
18220TIP3   OH276150   3.406   4.046  14.457 -0.3711 -0.1227  0.0533
18220TIP3    H176151   3.488   4.023  14.413 -0.5079  2.7633 -1.8391
18220TIP3    H276152   3.349   3.970  14.442  0.6008 -0.4657 -2.1489
18221TIP3   OH276153   5.713   4.214   4.633 -0.1566 -0.4467 -0.5853
18221TIP3    H176154   5.671   4.299   4.619 -0.2561 -0.4291 -0.2027
18221TIP3    H276155   5.685   4.161   4.559  0.9514  0.2447 -1.5122
18222TIP3   OH276156   5.857   3.356   0.059  0.0156  0.2957  0.5816
18222TIP3    H176157   5.940   3.333   0.101 -0.7781 -1.5243  1.2016
18222TIP3    H276158   5.817   3.419   0.118  0.7238  0.8170  0.5170
18223TIP3   OH276159   4.660   1.084  12.733 -0.0655  0.2109  0.4108
18223TIP3    H176160   4.713   1.105  12.809 -0.6496  2.0710  0.3220
18223TIP3    H276161   4.722   1.076  12.661  0.2590  0.6881  0.6404
18224TIP3   OH276162   4.897   4.960  11.739  0.2018  0.0206 -0.1811
18224TIP3    H176163   4.823   4.919  11.694  0.4148 -0.5658 -0.0085
18224TIP3    H276164   4.862   4.984  11.824 -0.3698  1.6815 -0.8615
18225TIP3   OH276165   0.086   5.729   4.971 -0.3819  0.2654  0.0267
18225TIP3    H176166   0.167   5.709   5.018 -0.1743 -0.7179 -0.7236
18225TIP3    H276167   0.104   5.812   4.927 -0.3930  0.9154  1.2517
18226TIP3   OH276168   6.642   1.874   0.902  0.0920 -0.2332  0.5427
18226TIP3    H176169   6.548   1.858   0.889 -0.0721  1.2511 -0.1455
18226TIP3    H276170   6.683   1.789   0.884 -0.8672 -0.2465 -1.7779
18227TIP3   OH276171   5.730   5.249  12.589  0.1431  0.3309  0.1591
18227TIP3    H176172   5.679   5.311  12.642  1.9332 -0.6813  3.1904
18227TIP3    H276173   5.810   5.297  12.567 -0.1055  0.3535 -0.7262
18228TIP3   OH276174   0.526   0.781   5.182  0.2836 -0.0945 -0.1980
18228TIP3    H176175   0.482   0.716   5.236  0.4376 -0.4475 -0.5031
18228TIP3    H276176   0.489   0.770   5.095  0.1533  0.3699 -0.2040
18229TIP3   OH276177   2.398   1.771   6.387 -0.3148 -0.0905  0.4013
18229TIP3    H176178   2.313   1.794   6.424 -0.4792  1.3530 -0.8038
18229TIP3    H276179   2.448   1.853   6.388  0.1961 -0.3499 -1.1432
18230TIP3   OH276180   6.261   2.520   5.162 -0.0010 -0.4153  0.5531
18230TIP3    H176181   6.224   2.513   5.250 -0.5870 -0.6939  0.2841
18230TIP3    H276182   6.266   2.429   5.131 -1.2232 -0.2033 -0.2958
18231TIP3   OH276183   1.092   3.358   2.775 -0.1409  0.1091 -0.2904
18231TIP3    H176184   1.061   3.389   2.860  2.0652  0.8934  0.2556
18231TIP3    H276185   1.027   3.391   2.712 -1.3880  0.1519  0.9907
18232TIP3   OH276186   3.181   5.261  16.651  0.0130  0.3262 -0.4459
18232TIP3    H176187   3.247   5.330  16.652  1.1668 -0.7803  0.2748
18232TIP3    H276188   3.098   5.309  16.651  0.7732  1.7360 -2.0667
18233TIP3   OH276189   3.844   1.878   1.914 -0.5136  0.0385  0.8458
18233TIP3    H176190   3.755   1.849   1.892  0.3390 -1.4384 -0.7196
18233TIP3    H276191   3.831   1.960   1.962 -2.7318 -0.3008  0.8759
18234TIP3   OH276192   5.433   3.895   1.412  0.6339 -0.2334 -0.6805
18234TIP3    H176193   5.389   3.811   1.429 -2.0930  1.2599 -0.0333
18234TIP3    H276194   5.460   3.926   1.498 -0.0091  0.4173 -0.7124
18235TIP3   OH276195   2.571   0.149  16.516  0.2020  0.3485  0.7642
18235TIP3    H176196   2.614   0.234  16.514  0.5148  0.1938  0.8141
18235TIP3    H276197   2.481   0.166  16.487  0.5364  0.5286 -0.1813
18236TIP3   OH276198   3.586   2.071  12.960  0.4489 -0.1628  0.4979
18236TIP3    H176199   3.556   2.101  13.046  0.2537  1.6323 -0.1761
18236TIP3    H276200   3.589   1.976  12.968  0.2432 -0.0319  2.4311
18237TIP3   OH276201   0.740   5.945   5.464 -0.6832 -0.0461 -0.1021
18237TIP3    H176202   0.646   5.930   5.472 -0.6021 -0.0017  0.9037
18237TIP3    H276203   0.747   6.018   5.402 -1.3491  0.6771  0.6751
18238TIP3   OH276204   6.208   1.239  11.945  0.3464  0.1352 -0.0094
18238TIP3    H176205   6.153   1.222  12.022 -0.2849  1.3423 -0.1753
18238TIP3    H276206   6.293   1.264  11.981 -0.1622  1.4252  0.3274
18239TIP3   OH276207   0.832   4.669   3.083 -0.0378 -0.1633 -0.1234
18239TIP3    H176208   0.883   4.598   3.045  3.4335  0.6394  2.7406
18239TIP3    H276209   0.857   4.670   3.175 -3.1069  2.1887  0.7700
18240TIP3   OH276210   0.258   0.940   3.142 -0.5530  0.7469  0.3661
18240TIP3    H176211   0.315   0.870   3.112 -2.6826 -0.7373 -0.2892
18240TIP3    H276212   0.316   1.015   3.152  2.2318 -1.6417  3.2416
18241TIP3   OH276213   0.546   5.187   6.387 -0.1460 -0.2306  0.5085
18241TIP3    H176214   0.519   5.267   6.432 -0.7801 -0.7042  0.9705
18241TIP3    H276215   0.564   5.215   6.298  0.3871  0.5756  0.8594
18242TIP3   OH276216   5.306   4.930  11.436 -0.2248 -0.1650  0.3154
18242TIP3    H176217   5.264   4.844  11.445  1.8429 -1.5438 -2.3596
18242TIP3    H276218   5.251   4.976  11.371  2.1569 -1.9426 -3.1314
18243TIP3   OH276219   2.601   2.191  14.313  0.0225 -0.1014 -0.4118
18243TIP3    H176220   2.510   2.190  14.283 -0.1562 -1.2365  0.1142
18243TIP3    H276221   2.641   2.266  14.270 -1.2328  0.5431 -0.4591
18244TIP3   OH276222   4.555   5.118   2.871  0.1757 -0.1806  0.5325
18244TIP3    H176223   4.532   5.202   2.911 -0.3460 -0.9638  1.8747
18244TIP3    H276224   4.637   5.092   2.913  1.4072  0.5885 -1.2934
18245TIP3   OH276225   3.851   0.335  12.722  0.6543 -0.3620 -0.1589
18245TIP3    H176226   3.758   0.354  12.716  0.6808 -0.4824 -1.0459
18245TIP3    H276227   3.872   0.347  12.814 -0.4061 -1.1214  0.1926
18246TIP3   OH276228   6.061   4.907  13.755  0.7121 -0.2010  0.4674
18246TIP3    H176229   5.982   4.931  13.707 -0.4493 -1.5062  1.6651
18246TIP3    H276230   6.081   4.984  13.808  1.8282  1.1328 -1.8404
18247TIP3   OH276231   1.580   2.761  13.963 -0.2020 -0.3258  0.8232
18247TIP3    H176232   1.633   2.787  13.887  0.9211 -2.7328  0.7442
18247TIP3    H276233   1.594   2.831  14.027 -1.6705  2.0735 -1.3766
18248TIP3   OH276234   1.415   2.140   2.889  0.0122 -0.9837  0.0577
18248TIP3    H176235   1.410   2.200   2.963  0.8030 -1.3787  0.4316
18248TIP3    H276236   1.335   2.087   2.896  0.9785 -2.2827  1.7356
18249TIP3   OH276237   0.080   3.101  11.040  0.1684 -0.1618  0.4628
18249TIP3    H176238   0.082   3.197  11.038  0.6319 -0.1661  0.5690
18249TIP3    H276239   0.009   3.079  11.100 -0.6073  0.1078 -0.3517
18250TIP3   OH276240   1.429   0.789   1.615  0.3548  0.1062  0.0309
18250TIP3    H176241   1.504   0.731   1.604  0.9018  0.8865 -0.3978
18250TIP3    H276242   1.374   0.745   1.680  1.5372 -0.1113  0.8952
18251TIP3   OH276243   5.964   1.909  13.161 -0.0647 -0.0053  0.0110
18251TIP3    H176244   5.926   1.850  13.226 -2.0990  2.3612  1.0563
18251TIP3    H276245   5.939   1.871  13.077 -1.3221 -0.6574  0.6611
18252TIP3   OH276246   3.995   6.580  16.947  0.0051  0.3890  0.0157
18252TIP3    H176247   3.931   6.533  16.999 -1.5071 -0.5737 -2.6171
18252TIP3    H276248   4.029   6.515  16.885  1.3602  1.6041 -0.5631
18253TIP3   OH276249   2.447   5.116  15.059  1.0307  0.4511 -0.1156
18253TIP3    H176250   2.439   5.075  15.145  0.0522  1.4705  0.2751
18253TIP3    H276251   2.505   5.191  15.073  0.1016  1.1775 -0.1494
18254TIP3   OH276252   3.915   2.668   2.728  0.1875 -0.4026 -0.6466
18254TIP3    H176253   3.826   2.660   2.694 -0.6174  2.1422  0.6869
18254TIP3    H276254   3.954   2.581   2.717 -2.4111 -1.5022 -1.3842
18255TIP3   OH276255   6.532   2.181   4.894  0.1915 -0.7991 -0.1919
18255TIP3    H176256   6.443   2.215   4.886  0.3522 -0.5109 -0.7722
18255TIP3    H276257   6.579   2.247   4.946 -0.0925 -1.2544  0.6535
18256TIP3   OH276258   5.887   1.957   1.813  0.6082 -0.1904 -0.2249
18256TIP3    H176259   5.903   2.036   1.761 -1.9443 -1.1763 -2.6309
18256TIP3    H276260   5.847   1.989   1.894  2.5828  1.2037  0.2278
18257TIP3   OH276261   5.417   0.967  13.989  0.0314 -0.0980 -0.1395
18257TIP3    H176262   5.421   1.013  13.905 -0.9484  0.1309 -0.0631
18257TIP3    H276263   5.469   0.888  13.976  0.8744  0.5180 -0.5943
18258TIP3   OH276264   3.702   4.107  11.345 -0.3506 -0.6474  0.1067
18258TIP3    H176265   3.665   4.056  11.417 -2.5035 -0.9229 -1.1439
18258TIP3    H276266   3.793   4.077  11.337 -0.3411 -1.1828  2.1490
18259TIP3   OH276267   2.692   5.712   4.263 -0.1739  0.1098  0.6824
18259TIP3    H176268   2.772   5.755   4.232 -0.2779  1.3516  2.0777
18259TIP3    H276269   2.630   5.784   4.277 -1.9726 -0.9398 -1.5224
18260TIP3   OH276270   3.161   6.377  16.495 -0.0826 -0.4615 -0.1684
18260TIP3    H176271   3.095   6.312  16.469 -0.7293 -0.2768  0.9922
18260TIP3    H276272   3.184   6.421  16.413  0.6976 -2.4463 -1.0554
18261TIP3   OH276273   2.164   3.680  11.324 -0.0903  0.1516 -0.6306
18261TIP3    H176274   2.201   3.615  11.384 -0.1705 -0.2775 -1.0422
18261TIP3    H276275   2.230   3.748  11.318  0.2209 -0.1469 -0.6093
18262TIP3   OH276276   5.722   6.557  14.249  0.0323 -0.0010 -0.7746
18262TIP3    H176277   5.751   6.592  14.165  1.9216  1.5251  0.4836
18262TIP3    H276278   5.651   6.616  14.276  1.2573  1.1404 -0.0260
18263TIP3   OH276279   4.467   3.211  14.369 -0.1438  0.2440 -0.1403
18263TIP3    H176280   4.502   3.178  14.452  0.8793  1.9126  0.1235
18263TIP3    H276281   4.482   3.305  14.373  0.9201  0.2194 -2.6900
18264TIP3   OH276282   3.098   6.621  13.633 -0.1933  0.2628  0.3585
18264TIP3    H176283   3.037   6.695  13.623  2.5147  2.6143  0.5489
18264TIP3    H276284   3.145   6.617  13.550  0.6538 -0.3531  0.8566
18265TIP3   OH276285   5.664   4.246   6.545  0.1285 -0.4753  0.1110
18265TIP3    H176286   5.671   4.184   6.617 -0.9323 -1.1127 -0.3297
18265TIP3    H276287   5.647   4.331   6.587 -3.4218 -1.3269  0.4967
18266TIP3   OH276288   1.324   6.652   3.724 -0.3131  0.6618 -0.0692
18266TIP3    H176289   1.332   6.738   3.764  0.3725 -0.1929  1.6739
18266TIP3    H276290   1.407   6.638   3.679 -0.4169  0.8935 -0.3352
18267TIP3   OH276291   5.169   3.901  17.176 -0.3296  0.7344  0.5490
18267TIP3    H176292   5.143   3.993  17.168  0.8974  0.9154 -1.8776
18267TIP3    H276293   5.259   3.904  17.207 -0.0310  0.3890 -0.2701
18268TIP3   OH276294   4.116   3.509   2.789  0.3140  0.2869  0.5571
18268TIP3    H176295   4.120   3.448   2.863 -0.4346  0.2765  0.5939
18268TIP3    H276296   4.063   3.582   2.820  0.0771  0.3285  0.0674
18269TIP3   OH276297   4.361   5.105   0.711  0.2020 -0.3424 -0.5583
18269TIP3    H176298   4.457   5.100   0.712  0.1578 -1.4488  1.1045
18269TIP3    H276299   4.333   5.021   0.673 -0.1246 -0.7846  0.6377
18270TIP3   OH276300   0.217   3.809  16.096  0.3882  0.0253  0.8954
18270TIP3    H176301   0.225   3.806  16.191  1.5250  2.7864  0.9505
18270TIP3    H276302   0.132   3.850  16.080  1.0723  1.4723  0.8033
18271TIP3   OH276303   0.542   0.083  16.439  0.6740  0.4437 -0.2751
18271TIP3    H176304   0.579   0.020  16.501  1.5246  1.4532  0.2594
18271TIP3    H276305   0.584   0.063  16.355  2.7158  1.7729  0.3876
18272TIP3   OH276306   5.731   6.628   3.043  0.7634 -0.2378 -0.9535
18272TIP3    H176307   5.823   6.651   3.057  0.7168 -0.1660 -0.7627
18272TIP3    H276308   5.717   6.550   3.096  1.0178 -0.9303 -1.8918
18273TIP3   OH276309   1.834   6.495   1.474 -0.1282 -0.0161  0.2314
18273TIP3    H176310   1.801   6.502   1.385 -1.1205  0.1080  0.6055
18273TIP3    H276311   1.803   6.410   1.505  0.5304 -0.2220  0.3357
18274TIP3   OH276312   1.806   1.931   1.487  0.0954  0.2685  0.3011
18274TIP3    H176313   1.774   2.007   1.535 -1.7005  0.1267 -0.6411
18274TIP3    H276314   1.750   1.859   1.516 -0.8902  0.1406 -1.8195
18275TIP3   OH276315   1.526   0.565   2.143 -0.4979  0.1229 -0.4885
18275TIP3    H176316   1.571   0.537   2.063  1.5087 -1.1289  1.0157
18275TIP3    H276317   1.583   0.632   2.180 -0.2136 -0.9368  1.0556
18276TIP3   OH276318   0.757   4.285  16.191  0.7208  0.3362 -0.4018
18276TIP3    H176319   0.763   4.203  16.143  1.7243  1.4572 -2.2448
18276TIP3    H276320   0.789   4.264  16.278 -0.0799 -1.4715 -0.5159
18277TIP3   OH276321   0.616   0.571   4.500 -0.5215  0.2178  0.6500
18277TIP3    H176322   0.699   0.542   4.462  0.4656  1.1705  1.9872
18277TIP3    H276323   0.565   0.491   4.511 -0.2590 -0.2361 -1.2723
18278TIP3   OH276324   2.485   0.820   0.066  0.2495 -0.0372  0.1338
18278TIP3    H176325   2.553   0.852   0.006 -2.1574  3.5713 -0.8363
18278TIP3    H276326   2.412   0.796   0.009 -0.5955 -0.4494  1.3741
18279TIP3   OH276327   2.028   0.972  11.186  0.2008 -0.2139 -0.0387
18279TIP3    H176328   2.080   0.906  11.233  1.5461  0.1368 -1.0066
18279TIP3    H276329   1.980   0.923  11.120  2.4555 -0.0853 -1.8586
18280TIP3   OH276330   2.807   5.384  14.496  0.2321  0.5196  0.4863
18280TIP3    H176331   2.847   5.300  14.518  0.4235 -0.4559 -3.2596
18280TIP3    H276332   2.714   5.373  14.515  0.1623 -0.7810 -0.5337
18281TIP3   OH276333   4.522   4.298   3.669 -0.0016 -0.1208  0.1107
18281TIP3    H176334   4.532   4.380   3.621  1.8301  0.1043  0.8364
18281TIP3    H276335   4.471   4.241   3.611  0.4687  0.8292 -1.2385
18282TIP3   OH276336   0.205   4.650  13.608  0.5972  0.3375  0.7950
18282TIP3    H176337   0.171   4.583  13.667 -0.0384 -0.4293 -0.4201
18282TIP3    H276338   0.251   4.601  13.540 -1.2677  1.0054 -1.0017
18283TIP3   OH276339   6.567   3.010  16.168  0.0640  0.6343 -0.1016
18283TIP3    H176340   6.611   2.965  16.241 -0.4059  0.8630  0.3218
18283TIP3    H276341   6.566   2.945  16.098  2.3724  1.0853 -0.6082
18284TIP3   OH276342   4.356   1.907   0.102 -0.0704  0.1898 -0.2544
18284TIP3    H176343   4.412   1.890   0.178 -0.9675 -0.5331  0.2518
18284TIP3    H276344   4.334   2.000   0.109  0.2315  0.2360  0.1079
18285TIP3   OH276345   6.780   0.143  14.326  0.7583 -0.5564  0.0735
18285TIP3    H176346   6.725   0.064  14.333  3.0494 -2.0503  2.1788
18285TIP3    H276347   6.770   0.186  14.412 -0.9103  1.8186 -1.2451
18286TIP3   OH276348   4.783   4.630   2.127  0.2900 -0.0936  0.1508
18286TIP3    H176349   4.788   4.622   2.222  1.4138  0.1645  0.1208
18286TIP3    H276350   4.850   4.695   2.104  0.8508 -1.0114 -0.9116
18287TIP3   OH276351   0.075   5.820  12.199  0.1977 -0.1636 -0.2219
18287TIP3    H176352   0.041   5.734  12.175  0.4333  0.0600 -1.3899
18287TIP3    H276353   0.108   5.857  12.117  2.3960  0.0072  0.6811
18288TIP3   OH276354   0.511   1.764  12.564 -0.5259  0.5038  0.3073
18288TIP3    H176355   0.577   1.702  12.596 -0.5293 -0.1062 -0.8252
18288TIP3    H276356   0.526   1.843  12.615  1.3168  0.5002 -0.1828
18289TIP3   OH276357   5.869   4.840   4.620  0.1015  0.2237  0.3812
18289TIP3    H176358   5.894   4.920   4.667  0.1168  0.4036  0.0698
18289TIP3    H276359   5.828   4.785   4.687  0.0371  0.5160  0.5837
18290TIP3   OH276360   5.686   2.748  15.736 -0.0332 -0.3067  0.1473
18290TIP3    H176361   5.666   2.658  15.761 -1.6476  0.0043  0.0378
18290TIP3    H276362   5.607   2.798  15.760  0.0213  0.7086 -1.6913
18291TIP3   OH276363   3.769   0.838   3.068  0.5506 -0.1894 -0.0657
18291TIP3    H176364   3.710   0.903   3.031 -0.1886 -0.7699  0.0974
18291TIP3    H276365   3.713   0.781   3.121  1.0945 -1.3490 -0.7196
18292TIP3   OH276366   6.668   1.615   5.288 -0.0013  0.2929  0.0285
18292TIP3    H176367   6.745   1.666   5.315 -1.4025  2.7966 -0.5036
18292TIP3    H276368   6.593   1.667   5.319 -1.4837 -2.0713  0.4977
18293TIP3   OH276369   1.627   6.101  16.819 -0.7057  0.0882 -0.4168
18293TIP3    H176370   1.686   6.131  16.888 -1.0033  0.6255 -0.3961
18293TIP3    H276371   1.623   6.174  16.757  3.5113 -2.1657 -3.6328
18294TIP3   OH276372   5.814   4.306  17.107  0.2109 -0.0581  0.3628
18294TIP3    H176373   5.905   4.334  17.115  0.6353 -0.0581 -3.3314
18294TIP3    H276374   5.803   4.240  17.175  2.4809  1.1197  1.9284
18295TIP3   OH276375   2.260   5.685   5.178 -0.3815  0.0663  0.4656
18295TIP3    H176376   2.214   5.633   5.245  0.5821 -1.4124  0.0234
18295TIP3    H276377   2.210   5.766   5.172 -1.5244 -0.5127  1.7061
18296TIP3   OH276378   1.428   5.388  11.553 -0.1377  0.0464  0.1751
18296TIP3    H176379   1.350   5.432  11.585  0.1673  0.9652 -0.3131
18296TIP3    H276380   1.501   5.434  11.595  0.2454  0.9317 -1.4064
18297TIP3   OH276381   2.687   0.487   0.339 -0.4507  0.4139  0.0337
18297TIP3    H176382   2.689   0.433   0.418 -1.3984  0.5779  0.1753
18297TIP3    H276383   2.775   0.480   0.304 -0.7981 -2.0264 -0.4755
18298TIP3   OH276384   0.670   0.976  12.643  0.7220 -0.1064  0.0638
18298TIP3    H176385   0.624   0.970  12.727  0.8373  0.0237  0.1369
18298TIP3    H276386   0.614   0.929  12.582  2.1488 -2.9441  0.8495
18299TIP3   OH276387   6.814   6.481  14.103 -0.0834  0.3680  0.2515
18299TIP3    H176388   6.887   6.478  14.042 -0.4589  0.3733 -0.2035
18299TIP3    H276389   6.737   6.462  14.049 -0.3064 -0.6957  0.9104
18300TIP3   OH276390   5.590   5.169   0.620  0.7675  0.6206 -0.1269
18300TIP3    H176391   5.593   5.262   0.598  0.2762  0.2566 -1.8319
18300TIP3    H276392   5.681   5.145   0.638  1.2429  0.8827 -2.1111
18301TIP3   OH276393   3.219   0.379  13.629 -0.2086 -0.2644 -0.0548
18301TIP3    H176394   3.296   0.336  13.666  0.0941  1.0721  0.9112
18301TIP3    H276395   3.150   0.362  13.693 -0.6237 -1.1292 -0.7301
18302TIP3   OH276396   3.802   6.457  12.417 -0.2498  0.3821 -0.5214
18302TIP3    H176397   3.822   6.364  12.430  0.0463  0.3328 -1.3181
18302TIP3    H276398   3.886   6.501  12.430 -0.6236  0.6657  1.0473
18303TIP3   OH276399   0.440   4.540   1.863  0.5355  0.1122  0.3686
18303TIP3    H176400   0.509   4.511   1.805 -0.6680  0.9809 -1.5398
18303TIP3    H276401   0.485   4.589   1.932  2.1214 -2.3298  1.1076
18304TIP3   OH276402   3.454   4.217   6.051 -0.3337 -0.2944 -0.8964
18304TIP3    H176403   3.384   4.176   6.102 -1.1124  0.1409 -1.5945
18304TIP3    H276404   3.534   4.177   6.084 -1.0323 -1.9452 -1.1498
18305TIP3   OH276405   4.940   0.250  11.925 -0.4380 -0.2020 -0.5162
18305TIP3    H176406   4.892   0.180  11.970  0.6078 -1.0912 -0.7710
18305TIP3    H276407   5.012   0.205  11.881 -1.4894  0.6482 -3.1480
18306TIP3   OH276408   0.511   4.815  11.274  0.0166  0.2004 -0.2788
18306TIP3    H176409   0.458   4.806  11.195 -0.6293 -0.2028  0.1902
18306TIP3    H276410   0.447   4.817  11.345  0.5484  1.4622  0.1722
18307TIP3   OH276411   0.199   0.320  13.538  0.3177 -0.4834 -0.1305
18307TIP3    H176412   0.261   0.250  13.555 -0.1255 -0.8244  0.0650
18307TIP3    H276413   0.254   0.398  13.524  0.7662 -0.6696  0.5860
18308TIP3   OH276414   3.089   5.634   5.375  0.0387 -0.4858  0.2710
18308TIP3    H176415   3.043   5.710   5.411 -0.9952 -0.8259 -0.2947
18308TIP3    H276416   3.041   5.613   5.295  1.1235 -0.9249 -0.2740
18309TIP3   OH276417   3.372   2.211   5.042  0.2448  0.0544 -0.0402
18309TIP3    H176418   3.431   2.240   4.973  0.0663 -2.0726 -1.1148
18309TIP3    H276419   3.300   2.274   5.041  0.8986  0.7980 -0.8834
18310TIP3   OH276420   6.089   5.169   0.901  0.4990 -0.0423  0.4119
18310TIP3    H176421   6.177   5.208   0.892  0.5834 -0.1241  0.8855
18310TIP3    H276422   6.055   5.206   0.983 -0.0139  0.1936  0.0916
18311TIP3   OH276423   5.228   5.001  11.099 -0.1685 -0.0271 -0.6901
18311TIP3    H176424   5.280   4.921  11.092 -1.8985 -1.1931 -0.6300
18311TIP3    H276425   5.207   5.024  11.008 -0.9470 -0.5165 -0.6394
18312TIP3   OH276426   0.275   4.511  16.160 -0.2429 -0.1718 -0.0072
18312TIP3    H176427   0.269   4.540  16.251 -1.1614  1.0403 -0.4470
18312TIP3    H276428   0.364   4.476  16.153 -0.2775 -0.5996  1.4406
18313TIP3   OH276429   3.466   5.887   3.103 -0.1531  0.0567  0.1114
18313TIP3    H176430   3.386   5.898   3.051 -1.5153  0.8271  2.2886
18313TIP3    H276431   3.440   5.827   3.173  1.0258  0.7672  1.1703
18314TIP3   OH276432   5.135   0.180   1.116 -0.0469  0.2223  0.3804
18314TIP3    H176433   5.049   0.190   1.157  0.2076  0.4615  0.8653
18314TIP3    H276434   5.189   0.247   1.158  0.3679  0.0881  0.0607
18315TIP3   OH276435   0.397   0.174   3.219  0.2512 -0.2943 -0.6925
18315TIP3    H176436   0.439   0.121   3.287  1.4633  0.1692 -1.0678
18315TIP3    H276437   0.313   0.200   3.257  0.0206 -1.7380 -0.1575
18316TIP3   OH276438   6.593   5.260  13.245  0.8336 -0.7320 -0.3998
18316TIP3    H176439   6.562   5.290  13.331 -1.0182 -1.5734 -0.7550
18316TIP3    H276440   6.653   5.187  13.266 -2.2240 -3.2056  0.0984
18317TIP3   OH276441   2.037   5.999  15.433  0.3678  0.4932  0.1897
18317TIP3    H176442   1.974   5.957  15.374  0.2698 -0.0352  0.6728
18317TIP3    H276443   2.092   6.052  15.375  1.3078 -1.2833 -0.5684
18318TIP3   OH276444   0.400   3.574  13.329 -0.4242 -0.0155 -0.3473
18318TIP3    H176445   0.377   3.655  13.284 -1.5113 -1.4821 -2.5732
18318TIP3    H276446   0.332   3.561  13.394 -0.4882  0.6329 -0.2859
18319TIP3   OH276447   5.108   3.396  13.856  0.2162  0.1658 -0.1802
18319TIP3    H176448   5.016   3.390  13.884  0.0509 -3.3357 -1.2676
18319TIP3    H276449   5.155   3.340  13.917  1.1416 -0.5887 -1.5581
18320TIP3   OH276450   2.967   0.491   4.727  0.4986  0.0856 -0.1008
18320TIP3    H176451   3.052   0.510   4.766  1.7248 -2.1345 -1.5556
18320TIP3    H276452   2.917   0.451   4.797  0.2937  2.2824  1.0339
18321TIP3   OH276453   3.723   3.220   0.843  0.2409  0.6019  0.0198
18321TIP3    H176454   3.704   3.133   0.808  2.4099  1.1273 -2.5989
18321TIP3    H276455   3.774   3.204   0.922 -1.3948 -0.5223  0.8764
18322TIP3   OH276456   1.351   0.682   4.950  0.0208 -0.1114 -0.0647
18322TIP3    H176457   1.282   0.748   4.963  0.7976  0.9483 -1.1631
18322TIP3    H276458   1.304   0.599   4.948 -1.1703  0.5460 -0.2103
18323TIP3   OH276459   4.083   5.002   0.454  0.3087 -0.1860  0.0881
18323TIP3    H176460   4.057   4.949   0.379 -0.6584 -0.0661  0.3266
18323TIP3    H276461   4.158   5.053   0.423 -1.2400  1.2484 -1.3852
18324TIP3   OH276462   1.622   5.413  16.538  1.0672 -0.7700  0.0677
18324TIP3    H176463   1.591   5.498  16.508  0.4569 -0.6546  1.0384
18324TIP3    H276464   1.604   5.354  16.464  1.4156 -0.0810 -0.5697
18325TIP3   OH276465   3.639   6.259   6.042 -0.1149  0.4694  0.2292
18325TIP3    H176466   3.694   6.299   6.109  1.1092 -1.8449  0.6407
18325TIP3    H276467   3.698   6.244   5.968 -0.7485  0.1426 -0.2224
18326TIP3   OH276468   5.180   0.312  12.485 -0.3008  0.6641 -0.2947
18326TIP3    H176469   5.131   0.391  12.462 -1.0753  0.8030  1.7386
18326TIP3    H276470   5.113   0.250  12.513  0.2932 -0.7801 -1.9846
18327TIP3   OH276471   5.062   2.314   4.035  0.3445  0.3688  0.3203
18327TIP3    H176472   5.074   2.338   3.943 -0.1739 -1.0178 -0.1240
18327TIP3    H276473   5.150   2.320   4.073  0.6582  0.3912 -0.4064
18328TIP3   OH276474   3.377   3.108  11.435  0.3101  0.0357 -0.1825
18328TIP3    H176475   3.398   3.181  11.493  0.5233 -1.4477  1.6481
18328TIP3    H276476   3.308   3.142  11.378  0.4484  1.6688  0.5953
18329TIP3   OH276477   3.765   2.242   3.369 -0.6004  0.6478 -0.0805
18329TIP3    H176478   3.831   2.229   3.437  1.7672 -0.3326 -2.4616
18329TIP3    H276479   3.710   2.164   3.374 -0.3527  0.5146  0.5992
18330TIP3   OH276480   4.239   2.260   4.316  0.1336  0.5064  0.3108
18330TIP3    H176481   4.256   2.202   4.390  2.2597  0.8371  0.1309
18330TIP3    H276482   4.144   2.265   4.310 -0.0656 -1.1734  1.7193
18331TIP3   OH276483   5.033   2.419   1.134 -0.0363  0.7374 -0.3711
18331TIP3    H176484   5.002   2.508   1.119  1.2069  1.5481  1.6392
18331TIP3    H276485   4.963   2.376   1.183 -0.0641  1.0251 -0.1617
18332TIP3   OH276486   1.102   0.654  12.539 -0.0288  0.7696  0.3859
18332TIP3    H176487   1.126   0.704  12.617  2.4347 -0.5315  0.5011
18332TIP3    H276488   1.102   0.563  12.568 -0.1335  0.3543 -0.8785
18333TIP3   OH276489   6.598   1.335  17.021 -0.1397 -0.5411  0.2059
18333TIP3    H176490   6.648   1.409  16.986  0.6245 -0.5393  1.2562
18333TIP3    H276491   6.514   1.338  16.976  0.2736  0.3431 -0.5113
18334TIP3   OH276492   6.025   4.675   1.794  0.2185 -0.1593  0.3964
18334TIP3    H176493   6.070   4.732   1.857  1.3179 -0.9664  0.3603
18334TIP3    H276494   5.945   4.650   1.839 -0.6260  1.9693  0.1339
18335TIP3   OH276495   1.572   6.185   2.556 -0.0607  0.3445  0.1032
18335TIP3    H176496   1.635   6.119   2.527 -0.0186  1.3219 -2.0952
18335TIP3    H276497   1.487   6.142   2.549 -0.1352  0.8202 -2.3606
18336TIP3   OH276498   3.362   6.243   0.458 -0.2137  0.2652  0.0247
18336TIP3    H176499   3.314   6.298   0.396 -2.7191 -1.1280  0.6317
18336TIP3    H276500   3.445   6.287   0.470 -0.8728  2.1695 -1.9960
18337TIP3   OH276501   5.671   0.112  11.235  0.2888  0.4914 -0.3624
18337TIP3    H176502   5.633   0.085  11.151  1.2470  0.9564 -0.9529
18337TIP3    H276503   5.738   0.176  11.211  2.7510 -1.6653  0.5021
18338TIP3   OH276504   3.657   3.396   2.039  0.1425 -0.1862 -0.5735
18338TIP3    H176505   3.660   3.410   1.944  0.9495 -1.5740 -0.7702
18338TIP3    H276506   3.660   3.301   2.049 -0.2526 -0.0576  0.8421
18339TIP3   OH276507   4.050   2.697   0.889 -0.5122  0.2494  0.2169
18339TIP3    H176508   4.054   2.656   0.975 -0.3175  0.1232  0.1485
18339TIP3    H276509   4.093   2.635   0.831  0.0113  0.6715  0.1568
18340TIP3   OH276510   4.752   4.311  13.367  0.7954 -0.1979 -0.1604
18340TIP3    H176511   4.743   4.371  13.292  0.0199  0.4633  0.4544
18340TIP3    H276512   4.791   4.232  13.329  1.1538  0.4243 -1.1160
18341TIP3   OH276513   1.014   3.693   1.244 -0.0927 -0.1295  0.7262
18341TIP3    H176514   0.962   3.765   1.278  2.0407  0.9828  1.7538
18341TIP3    H276515   1.039   3.720   1.156 -1.1203 -0.6150  0.2750
18342TIP3   OH276516   6.670   2.801   2.493  0.2691 -0.3868  0.1326
18342TIP3    H176517   6.728   2.876   2.499 -0.0573 -0.0757 -0.5767
18342TIP3    H276518   6.701   2.752   2.416  0.7421 -1.1989  0.8291
18343TIP3   OH276519   5.412   2.217   3.127 -0.2433  0.3106  0.0169
18343TIP3    H176520   5.504   2.239   3.118  0.7717 -3.6247 -0.0750
18343TIP3    H276521   5.400   2.197   3.220 -1.3766  2.1717  0.3000
18344TIP3   OH276522   2.988   1.184  13.114 -0.2352  0.3161 -0.3663
18344TIP3    H176523   2.905   1.231  13.100 -0.1300  0.6493  0.1099
18344TIP3    H276524   3.015   1.157  13.027 -1.7993 -1.4106 -0.3433
18345TIP3   OH276525   2.923   1.865   1.180  0.0492 -0.4901  0.1809
18345TIP3    H176526   2.949   1.785   1.225  3.9896  0.7783  0.3506
18345TIP3    H276527   2.946   1.935   1.242 -2.7474  0.8544 -0.2228
18346TIP3   OH276528   2.153   2.461   6.069  0.0918  0.0500  0.4197
18346TIP3    H176529   2.202   2.394   6.116  0.5295  0.1846  0.1549
18346TIP3    H276530   2.072   2.418   6.043  0.9572 -0.7755 -0.9355
18347TIP3   OH276531   0.370   2.578  12.265 -0.1077  0.4949  0.0658
18347TIP3    H176532   0.426   2.504  12.288  0.5588  1.3685  1.3454
18347TIP3    H276533   0.379   2.586  12.170 -3.2537 -3.4688 -0.6743
18348TIP3   OH276534   1.790   6.521  13.762  0.2314  0.0218  0.0614
18348TIP3    H176535   1.796   6.495  13.670  1.2054  3.5080 -0.9391
18348TIP3    H276536   1.696   6.517  13.782  0.0445 -0.9832 -1.0116
18349TIP3   OH276537   4.436   2.447   5.326 -0.1952 -0.3642 -0.6357
18349TIP3    H176538   4.361   2.453   5.385  0.1343 -0.7025 -0.1687
18349TIP3    H276539   4.428   2.523   5.268  2.0468  2.7887  2.8981
18350TIP3   OH276540   6.479   5.632  15.587  0.2190  0.1099 -0.1278
18350TIP3    H176541   6.440   5.583  15.659 -2.8556 -1.0163 -2.4428
18350TIP3    H276542   6.419   5.618  15.513  2.5550  2.2934 -2.5494
18351TIP3   OH276543   6.270   3.605  12.058  0.0064 -0.3509  0.0382
18351TIP3    H176544   6.314   3.520  12.066 -1.1625 -1.0177 -0.5505
18351TIP3    H276545   6.328   3.656  12.000  0.8151 -0.6609  0.5613
18352TIP3   OH276546   1.300   0.616  14.766 -0.2659 -0.4957 -0.0901
18352TIP3    H176547   1.214   0.607  14.725 -0.7231 -1.6878  1.1123
18352TIP3    H276548   1.283   0.612  14.860  1.1539 -1.2856  0.1503
18353TIP3   OH276549   1.081   1.292  12.130  0.4971  0.6366  0.0045
18353TIP3    H176550   1.081   1.336  12.215  2.8801 -0.0578  0.4061
18353TIP3    H276551   1.081   1.198  12.152  1.6603  0.4520 -0.7475
18354TIP3   OH276552   4.240   5.632  14.508  0.2575 -0.1525  0.1079
18354TIP3    H176553   4.146   5.610  14.509  0.2649 -0.2222 -0.6293
18354TIP3    H276554   4.264   5.636  14.601 -0.2749 -0.9838  0.2917
18355TIP3   OH276555   5.033   6.687   2.509 -0.0822  0.0994 -0.2181
18355TIP3    H176556   4.960   6.653   2.457 -0.7659 -0.3703  1.0193
18355TIP3    H276557   5.025   6.642   2.593  0.6553  1.2799  0.4981
18356TIP3   OH276558   5.837   5.275  15.810 -0.1280 -0.0642  0.0972
18356TIP3    H176559   5.774   5.265  15.882 -0.5809  3.3221  0.2662
18356TIP3    H276560   5.803   5.348  15.759  2.4748  0.3559 -1.1265
18357TIP3   OH276561   3.020   6.478  12.586  0.6915 -0.4614 -0.3216
18357TIP3    H176562   3.077   6.555  12.587 -1.2132  0.9930  0.9344
18357TIP3    H276563   2.940   6.507  12.541 -0.2480 -1.5301  0.5977
18358TIP3   OH276564   1.904   3.336  13.887 -0.6300 -0.4624  0.1845
18358TIP3    H176565   1.934   3.293  13.967  0.8142  0.8839  0.4044
18358TIP3    H276566   1.905   3.267  13.821 -2.0383 -1.6377  1.3556
18359TIP3   OH276567   0.696   3.230   0.933 -0.4690 -0.0558 -0.5199
18359TIP3    H176568   0.678   3.230   1.027 -1.9454 -0.2990 -0.7913
18359TIP3    H276569   0.658   3.312   0.901 -0.6804 -0.3501 -1.0341
18360TIP3   OH276570   2.571   2.666   0.837  0.4106 -0.5453  0.0453
18360TIP3    H176571   2.543   2.593   0.892  0.5507 -0.9596 -0.4208
18360TIP3    H276572   2.663   2.679   0.860  1.0245 -1.9993 -1.4541
18361TIP3   OH276573   0.184   4.111  12.459  0.5994  0.5712 -0.7602
18361TIP3    H176574   0.257   4.051  12.446 -0.6966 -0.3235 -4.5023
18361TIP3    H276575   0.222   4.198  12.449  2.3495  0.4805  4.0108
18362TIP3   OH276576   5.596   4.389  16.943  0.0847  0.1713 -0.2248
18362TIP3    H176577   5.681   4.388  16.987  0.9029  1.1941 -1.7337
18362TIP3    H276578   5.548   4.460  16.985  1.1772  1.7088 -1.4692
18363TIP3   OH276579   5.307   1.402  16.650 -0.1636 -0.9311 -0.7314
18363TIP3    H176580   5.296   1.450  16.568 -0.9685 -0.2596 -0.2407
18363TIP3    H276581   5.390   1.356  16.640  2.5528  3.4965  0.2242
18364TIP3   OH276582   2.789   2.002   6.425 -0.0123  0.0890 -0.3019
18364TIP3    H176583   2.881   1.976   6.421 -0.2669 -0.9288  0.2430
18364TIP3    H276584   2.791   2.092   6.457  0.8382  0.4044 -1.2342
18365TIP3   OH276585   0.579   0.041   1.639 -0.2098 -0.1001 -0.3331
18365TIP3    H176586   0.599  -0.024   1.571  1.1767 -0.9964  0.8788
18365TIP3    H276587   0.648   0.107   1.630 -0.0571 -0.1878  0.1345
18366TIP3   OH276588   3.975   3.643  14.534 -0.3414  0.1359 -0.0274
18366TIP3    H176589   3.939   3.616  14.449  0.7122  0.2807 -0.5309
18366TIP3    H276590   3.940   3.732  14.546 -0.0096  0.3550 -0.6093
18367TIP3   OH276591   6.196   6.037  11.845  0.1156 -1.2317  0.0230
18367TIP3    H176592   6.178   6.094  11.919 -0.7806 -1.6156  0.1056
18367TIP3    H276593   6.119   5.982  11.837 -0.1441 -0.6652 -1.6892
18368TIP3   OH276594   0.255   2.453   5.191  0.3467 -0.4705 -0.3522
18368TIP3    H176595   0.315   2.527   5.196 -1.2075  0.8729 -0.9047
18368TIP3    H276596   0.193   2.467   5.263  0.3956 -1.5489 -0.0966
18369TIP3   OH276597   0.937   5.627  15.467 -0.2590 -0.4714 -0.4829
18369TIP3    H176598   0.908   5.683  15.395 -0.7297 -0.4957 -0.3159
18369TIP3    H276599   0.861   5.622  15.525  1.1584  2.1611  1.6547
18370TIP3   OH276600   0.956   3.545  16.780 -0.2642 -0.2394 -0.7036
18370TIP3    H176601   1.047   3.523  16.761 -0.4802  0.2944 -2.4375
18370TIP3    H276602   0.961   3.625  16.833  0.2580  0.8375 -2.3285
18371TIP3   OH276603   4.545   6.339  17.081  0.1194  0.1404  0.1434
18371TIP3    H176604   4.504   6.353  17.167  0.1700 -0.2263  0.2283
18371TIP3    H276605   4.561   6.427  17.048 -1.6476  0.3070 -0.3221
18372TIP3   OH276606   6.820   3.451   4.621 -0.7306 -0.0325  0.1700
18372TIP3    H176607   6.851   3.533   4.583 -0.2092  0.1989  1.0839
18372TIP3    H276608   6.724   3.458   4.619 -0.6939  1.4007  1.9249
18373TIP3   OH276609   4.167   0.171   3.394  0.6691 -0.0898  0.5164
18373TIP3    H176610   4.078   0.183   3.361  0.5915 -0.8366  0.4418
18373TIP3    H276611   4.194   0.086   3.358  1.6379  0.4175  0.0244
18374TIP3   OH276612   6.812   5.269  15.570  0.1960  0.8119 -0.5204
18374TIP3    H176613   6.760   5.288  15.648  1.1136  0.7291  0.1253
18374TIP3    H276614   6.872   5.343  15.562  1.2912 -0.0117 -0.1189
18375TIP3   OH276615   5.581   3.189  16.515 -0.6990 -0.6319 -0.0782
18375TIP3    H176616   5.580   3.188  16.610  1.2219 -0.4676 -0.0408
18375TIP3    H276617   5.654   3.131  16.491 -2.1092 -1.8731 -1.4845
18376TIP3   OH276618   3.473   4.784  16.098  0.4368 -0.2504  0.8172
18376TIP3    H176619   3.541   4.724  16.127  1.8250  0.5713 -0.6167
18376TIP3    H276620   3.404   4.728  16.064  0.4189 -1.0964  2.2229
18377TIP3   OH276621   0.581   3.220  14.794 -0.0387  0.5377 -0.1914
18377TIP3    H176622   0.657   3.255  14.747  0.4838  0.2983  0.4770
18377TIP3    H276623   0.506   3.245  14.740  0.4552  1.3883 -0.4863
18378TIP3   OH276624   3.575   3.632   3.646  0.6470 -0.1756 -0.3184
18378TIP3    H176625   3.596   3.700   3.709  1.8970 -0.7404 -0.1083
18378TIP3    H276626   3.534   3.678   3.573  2.6420  0.9690 -0.7363
18379TIP3   OH276627   0.672   2.194   2.393 -0.4156 -0.3200  0.5785
18379TIP3    H176628   0.645   2.104   2.376  1.1794 -0.8958  1.0552
18379TIP3    H276629   0.760   2.187   2.429  0.7558  1.5859 -1.7962
18380TIP3   OH276630   6.511   2.518  14.918  0.2908  0.1241  0.4407
18380TIP3    H176631   6.561   2.490  14.995  1.4321  1.4733  0.1992
18380TIP3    H276632   6.422   2.532  14.951  1.0497  1.9159  1.8234
18381TIP3   OH276633   5.133   1.886   4.235 -0.2478  0.4613 -0.9248
18381TIP3    H176634   5.095   1.962   4.190 -1.3788  0.5750  0.2158
18381TIP3    H276635   5.152   1.918   4.323  1.9279  0.2288 -1.2780
18382TIP3   OH276636   1.642   3.214  11.540  0.2284 -0.7099  0.3556
18382TIP3    H176637   1.574   3.164  11.586 -0.3271  0.4942  0.8835
18382TIP3    H276638   1.594   3.267  11.477  0.9684 -2.1388 -1.4470
18383TIP3   OH276639   2.094   5.304   5.491 -0.3129  0.0783  0.3679
18383TIP3    H176640   2.109   5.257   5.573  0.6887 -0.1796  0.0456
18383TIP3    H276641   2.024   5.256   5.448  1.0219 -1.4053 -0.1765
18384TIP3   OH276642   1.055   4.153   0.877 -0.8721 -0.2310  0.0196
18384TIP3    H176643   1.132   4.136   0.824 -0.9423 -1.3554  0.2758
18384TIP3    H276644   1.085   4.213   0.945 -0.4060 -0.0909 -0.3080
18385TIP3   OH276645   0.252   6.388  11.683  0.5211  0.3000  0.3062
18385TIP3    H176646   0.336   6.377  11.637 -0.6000 -2.2844 -1.2310
18385TIP3    H276647   0.210   6.303  11.676 -2.0663  1.4459  1.4389
18386TIP3   OH276648   4.321   1.163   0.474  0.3823 -0.1814  0.7794
18386TIP3    H176649   4.277   1.141   0.557  3.4052  1.6955  3.0005
18386TIP3    H276650   4.383   1.092   0.460  1.1812  0.4321  1.1526
18387TIP3   OH276651   0.932   5.051   5.425  0.4538 -0.0628  0.2457
18387TIP3    H176652   0.985   5.104   5.364  2.0582 -1.3670  0.4538
18387TIP3    H276653   0.963   5.077   5.512 -0.2979  0.2191  0.4324
18388TIP3   OH276654   3.787   5.711   6.165 -0.4919  0.4337 -0.7522
18388TIP3    H176655   3.868   5.713   6.216 -0.3246  0.3112 -1.0112
18388TIP3    H276656   3.800   5.775   6.096  0.1850 -1.0038 -1.9882
18389TIP3   OH276657   1.610   5.124   1.127 -0.3031 -0.0240 -0.3896
18389TIP3    H176658   1.655   5.199   1.165  0.3335  0.0407 -1.2446
18389TIP3    H276659   1.521   5.155   1.111 -0.1096  0.4750 -0.5107
18390TIP3   OH276660   5.921   3.476   5.474  0.2063  0.1432 -0.3506
18390TIP3    H176661   5.985   3.476   5.546  1.2906  0.8215 -1.3111
18390TIP3    H276662   5.969   3.509   5.399 -0.7336 -1.2489 -1.5828
18391TIP3   OH276663   0.448   3.129  12.420  0.1565  0.1266  0.0818
18391TIP3    H176664   0.476   3.039  12.436  0.5486  0.2309 -0.0130
18391TIP3    H276665   0.529   3.180  12.421 -0.0895  0.5212  0.4270
18392TIP3   OH276666   5.975   3.714  16.583 -0.7223  0.7489  0.2991
18392TIP3    H176667   6.002   3.699  16.673  1.0939  0.3217 -0.3112
18392TIP3    H276668   6.056   3.728  16.535 -1.7083  1.5337 -1.1808
18393TIP3   OH276669   4.540   3.993   3.102 -0.4416  0.5788  0.7096
18393TIP3    H176670   4.455   3.989   3.145 -0.7980  0.1752 -0.0121
18393TIP3    H276671   4.595   3.932   3.152 -1.6599 -2.1455 -1.1081
18394TIP3   OH276672   0.224   3.269  12.294 -0.1690  0.1247  1.1040
18394TIP3    H176673   0.244   3.361  12.281  0.1004 -0.1665 -0.7261
18394TIP3    H276674   0.306   3.229  12.321  0.7937 -0.3170 -2.2801
18395TIP3   OH276675   5.907   4.034  16.630 -0.5071  0.7700 -0.0730
18395TIP3    H176676   5.851   3.960  16.605 -0.3439  0.1965  1.2155
18395TIP3    H276677   5.845   4.099  16.663 -0.5398  0.6892  0.0270
18396TIP3   OH276678   2.195   4.914   4.578  0.3129 -0.1911 -0.0201
18396TIP3    H176679   2.120   4.862   4.605 -1.3924  1.3919 -1.5746
18396TIP3    H276680   2.167   5.005   4.592  2.1921  0.4007  0.0367
18397TIP3   OH276681   4.169   2.837   0.544  0.0022 -0.0472 -0.3179
18397TIP3    H176682   4.111   2.834   0.468 -1.9132 -2.2177  1.1549
18397TIP3    H276683   4.210   2.751   0.547  1.1214  0.4930  0.3112
18398TIP3   OH276684   1.546   4.925  11.576 -0.4927 -0.2202 -0.1046
18398TIP3    H176685   1.625   4.972  11.602 -0.5809 -0.8806  1.3770
18398TIP3    H276686   1.547   4.929  11.480  1.4930 -0.4670 -0.1240
18399TIP3   OH276687   2.386   3.367  14.724 -0.7192  0.3937 -0.4172
18399TIP3    H176688   2.360   3.387  14.814 -0.0403  0.2776 -0.1875
18399TIP3    H276689   2.427   3.280  14.730  0.5174  0.9468 -0.5986
18400TIP3   OH276690   2.549   0.540  14.271 -0.0595 -0.2363 -0.3078
18400TIP3    H176691   2.576   0.448  14.275 -0.1152 -0.1943  1.3194
18400TIP3    H276692   2.603   0.583  14.337  0.7565  1.1138 -1.8272
18401TIP3   OH276693   6.788   4.926  16.904 -0.1690 -0.4142  0.1293
18401TIP3    H176694   6.732   4.946  16.829  0.7565  0.6799 -0.2956
18401TIP3    H276695   6.789   5.007  16.955  0.8129 -0.5042  0.2654
18402TIP3   OH276696   3.655   5.549  17.268  0.3180  0.0798  0.2908
18402TIP3    H176697   3.582   5.514  17.319  1.2487 -1.1256  0.8052
18402TIP3    H276698   3.668   5.637  17.303  0.8858 -0.6942  2.0865
18403TIP3   OH276699   1.341   5.262   1.534 -0.8975  0.0814  0.1392
18403TIP3    H176700   1.421   5.217   1.561 -0.2369 -0.6097 -2.8044
18403TIP3    H276701   1.358   5.354   1.551 -1.1822 -0.4120  3.5588
18404TIP3   OH276702   4.091   0.396  12.584 -0.2782 -0.3668  1.0050
18404TIP3    H176703   4.018   0.396  12.646 -2.8354  1.1078 -1.8567
18404TIP3    H276704   4.123   0.487  12.585 -0.3943 -0.3178  0.0737
18405TIP3   OH276705   5.043   3.558  16.808 -0.4723 -0.7264  0.0103
18405TIP3    H176706   5.008   3.647  16.804  0.8349 -0.1805  0.2355
18405TIP3    H276707   5.071   3.547  16.899 -1.4410 -1.6890  0.1888
18406TIP3   OH276708   1.350   0.882  13.445  0.5885 -0.4930  0.0552
18406TIP3    H176709   1.356   0.899  13.539  0.2844  2.3245 -0.3903
18406TIP3    H276710   1.271   0.828  13.435  0.4551 -0.5619  1.3749
18407TIP3   OH276711   0.394   4.196   5.244  0.1460  0.4205  0.0662
18407TIP3    H176712   0.392   4.106   5.277  1.9011  1.3723  2.9821
18407TIP3    H276713   0.403   4.250   5.323  2.1470  2.9724 -1.8187
18408TIP3   OH276714   1.822   5.133   3.362 -0.3502  0.0347 -0.5829
18408TIP3    H176715   1.792   5.088   3.441 -0.5501  0.6349 -0.3155
18408TIP3    H276716   1.906   5.170   3.387 -0.6020  0.5663 -0.5306
18409TIP3   OH276717   2.633   5.291  16.044 -0.3040 -0.2733  0.3994
18409TIP3    H176718   2.703   5.306  15.981 -1.3303 -0.8362 -0.9119
18409TIP3    H276719   2.671   5.231  16.108  0.9240  0.7333  0.6226
18410TIP3   OH276720   4.067   2.613   5.993  0.9033  0.2880  0.2275
18410TIP3    H176721   4.038   2.701   6.019  1.5187  0.5648 -0.0263
18410TIP3    H276722   4.102   2.574   6.072 -2.0391 -0.8245  1.0530
18411TIP3   OH276723   5.029   6.688  16.730 -0.3561  0.8763 -0.3022
18411TIP3    H176724   5.065   6.736  16.804 -0.4668 -0.5116  0.6615
18411TIP3    H276725   5.078   6.606  16.728 -2.0138 -0.1352 -0.2686
18412TIP3   OH276726   6.644   5.678  11.730 -0.0551  1.0073  0.2218
18412TIP3    H176727   6.686   5.751  11.776  2.4283 -1.3392  1.8264
18412TIP3    H276728   6.597   5.630  11.798  0.6124 -0.4280 -0.2994
18413TIP3   OH276729   2.988   2.490   0.897 -0.3548 -0.6344  0.1946
18413TIP3    H176730   2.927   2.551   0.857  0.2398  0.3367  0.7530
18413TIP3    H276731   2.981   2.507   0.991  0.8228 -0.4761  0.2595
18414TIP3   OH276732   0.589   6.459   0.780 -0.1289  0.4741  0.1389
18414TIP3    H176733   0.517   6.446   0.718 -0.8134  0.0356  0.9997
18414TIP3    H276734   0.609   6.552   0.775 -1.4150  0.7814  0.5911
18415TIP3   OH276735   4.254   6.600   0.925  0.2822  0.5846 -0.1361
18415TIP3    H176736   4.257   6.573   1.017 -0.1959  1.6120  0.1857
18415TIP3    H276737   4.168   6.569   0.895 -0.0589  1.2768  0.0988
18416TIP3   OH276738   0.908   4.177   4.686 -0.3793 -0.5131 -0.0712
18416TIP3    H176739   0.838   4.156   4.624 -0.6105  0.5253 -0.1756
18416TIP3    H276740   0.863   4.184   4.771 -0.5378  0.8938 -0.2578
18417TIP3   OH276741   2.914   5.707  11.513  0.4761  0.3350  0.6227
18417TIP3    H176742   2.897   5.618  11.482 -3.2060  1.7553 -1.9605
18417TIP3    H276743   2.949   5.753  11.436 -0.8292  1.9027  0.9300
18418TIP3   OH276744   2.804   1.666  12.225 -0.5283 -0.1417 -0.1468
18418TIP3    H176745   2.854   1.739  12.188  0.0811 -0.6261 -0.2894
18418TIP3    H276746   2.829   1.591  12.172  0.3977 -0.8575  1.2920
18419TIP3   OH276747   3.577   6.656   1.244 -0.1105 -0.4342 -0.0828
18419TIP3    H176748   3.493   6.633   1.284  0.5559  1.0603  2.3288
18419TIP3    H276749   3.619   6.572   1.224 -0.3061 -1.2622  2.8139
18420TIP3   OH276750   3.728   5.659   5.643  0.0037  1.0425  0.3306
18420TIP3    H176751   3.684   5.740   5.665 -1.0408  0.3625  0.7579
18420TIP3    H276752   3.707   5.599   5.715  0.0612  0.1336 -0.3936
18421TIP3   OH276753   3.073   6.277   6.503  0.1371  0.6863 -0.2884
18421TIP3    H176754   3.136   6.321   6.446  2.8422 -1.2636  1.1343
18421TIP3    H276755   3.085   6.317   6.589 -1.8235  1.4999 -0.3483
18422TIP3   OH276756   0.954   5.378   1.540 -0.2250  0.0672 -0.3140
18422TIP3    H176757   0.987   5.465   1.518  1.2569  0.1192  2.0347
18422TIP3    H276758   0.922   5.386   1.630 -0.6222 -1.6713 -0.2801
18423TIP3   OH276759   5.226   6.194  12.681  0.0857  0.3268 -0.0591
18423TIP3    H176760   5.260   6.105  12.668  0.5022  0.3339  0.9496
18423TIP3    H276761   5.293   6.238  12.733  0.2815  1.4976 -1.2885
18424TIP3   OH276762   5.242   6.443  12.359  0.6074  0.1469  0.3809
18424TIP3    H176763   5.231   6.538  12.348  1.0442  0.0058 -1.4930
18424TIP3    H276764   5.336   6.428  12.350  0.2425 -0.7852 -2.3904
18425TIP3   OH276765   3.046   0.751   3.197 -0.6091 -0.0601 -0.4484
18425TIP3    H176766   3.091   0.685   3.249 -1.4444 -0.3864 -0.1306
18425TIP3    H276767   3.114   0.787   3.140  0.4313  0.6108  1.1466
18426TIP3   OH276768   1.574   0.484   5.951  0.6526  0.5330 -0.5416
18426TIP3    H176769   1.521   0.559   5.978  1.1630  0.0905  1.7756
18426TIP3    H276770   1.537   0.458   5.867 -1.6214  1.3724  0.1611
18427TIP3   OH276771   3.653   2.979  16.544  0.2599  0.3236 -0.0129
18427TIP3    H176772   3.714   3.051  16.560  0.7572 -0.0687 -0.1239
18427TIP3    H276773   3.704   2.900  16.563 -0.2584 -0.0009  0.0344
18428TIP3   OH276774   4.629   6.196   1.103 -0.6314  0.4194  0.3018
18428TIP3    H176775   4.704   6.176   1.047  0.3274  1.5510  1.1614
18428TIP3    H276776   4.565   6.237   1.044 -0.2212  0.2439 -0.2613
18429TIP3   OH276777   4.524   6.640   3.988 -0.4097  0.6514  0.0415
18429TIP3    H176778   4.438   6.640   4.030  0.0285  0.5715  0.9564
18429TIP3    H276779   4.525   6.719   3.934 -1.4987  0.0305 -0.9141
18430TIP3   OH276780   3.844   2.959  13.631 -0.4329  0.7519  0.3077
18430TIP3    H176781   3.913   2.896  13.608 -1.1167  0.3902 -0.8232
18430TIP3    H276782   3.766   2.905  13.642 -0.8945  1.3349 -0.0759
18431TIP3   OH276783   0.770   5.928   1.532  0.7770  0.3849  0.3504
18431TIP3    H176784   0.716   5.852   1.509  2.7702 -0.9229 -0.0768
18431TIP3    H276785   0.733   6.000   1.481  1.6830 -1.2640 -2.7206
18432TIP3   OH276786   6.727   6.104   2.686 -0.6540  0.6510 -0.9042
18432TIP3    H176787   6.721   6.056   2.604  0.4078  0.7188 -1.0284
18432TIP3    H276788   6.665   6.176   2.677 -0.9500  0.3278 -1.4266
18433TIP3   OH276789   0.690   5.530   5.663 -0.5502 -0.0042  0.4588
18433TIP3    H176790   0.749   5.489   5.600 -0.2805  0.1502  0.6093
18433TIP3    H276791   0.608   5.541   5.615 -0.3674  0.0536  0.1563
18434TIP3   OH276792   3.776   2.231  16.367  0.1655  0.2384  0.8726
18434TIP3    H176793   3.797   2.166  16.300 -3.1194 -1.4007  1.3428
18434TIP3    H276794   3.788   2.316  16.323 -3.4452 -0.7948 -2.3616
18435TIP3   OH276795   1.844   5.708  11.850 -0.0418  0.0828  0.7939
18435TIP3    H176796   1.784   5.682  11.780  0.2608 -0.1771  0.6320
18435TIP3    H276797   1.827   5.647  11.921 -0.7674  0.7190  1.1681
18436TIP3   OH276798   3.268   4.792  15.728  0.2899  0.0636 -0.5268
18436TIP3    H176799   3.275   4.878  15.771 -0.2333 -0.9448  1.6667
18436TIP3    H276800   3.197   4.748  15.775  1.0754 -1.8619 -1.0917
18437TIP3   OH276801   6.039   3.739   2.083  0.2392  0.7977  0.3517
18437TIP3    H176802   6.023   3.817   2.136 -2.4558 -0.0402  0.8855
18437TIP3    H276803   5.985   3.671   2.125  1.5074 -1.0059 -0.8808
18438TIP3   OH276804   1.221   3.423   2.075 -0.3406 -0.6737  0.3379
18438TIP3    H176805   1.147   3.364   2.093 -1.2847  0.5881  0.7202
18438TIP3    H276806   1.279   3.413   2.150 -1.9702  1.0730  1.8875
18439TIP3   OH276807   0.150   5.746  15.361 -0.4859 -0.1068 -0.2056
18439TIP3    H176808   0.084   5.815  15.361  1.2591  1.6201 -0.1178
18439TIP3    H276809   0.219   5.779  15.418  0.4226 -1.9024 -0.2362
18440TIP3   OH276810   0.245   3.629  13.567 -0.3007  0.1346 -0.2138
18440TIP3    H176811   0.222   3.688  13.495 -0.9569  2.5056  1.8427
18440TIP3    H276812   0.165   3.623  13.619  0.0249 -1.9230  0.0896
18441TIP3   OH276813   5.457   2.622   2.913 -0.2552 -0.0720 -0.6397
18441TIP3    H176814   5.425   2.688   2.975 -0.1056  0.8877 -1.5705
18441TIP3    H276815   5.549   2.644   2.900 -0.6176  0.5768 -2.2516
18442TIP3   OH276816   4.477   6.745  14.643  0.4916  0.0509  0.4437
18442TIP3    H176817   4.449   6.680  14.707 -1.7359 -0.0211 -0.5634
18442TIP3    H276818   4.475   6.828  14.690 -1.1112 -0.0063  0.4891
18443TIP3   OH276819   0.172   5.344  13.766 -0.1127 -0.0744 -0.4444
18443TIP3    H176820   0.106   5.281  13.795  0.6994 -0.0230  1.6035
18443TIP3    H276821   0.176   5.408  13.837 -0.8640  2.2800 -2.4439
18444TIP3   OH276822   5.422   1.049   5.729  0.0710  0.6810  0.2207
18444TIP3    H176823   5.409   1.024   5.821 -0.8964 -0.5097 -0.2321
18444TIP3    H276824   5.456   1.139   5.734 -2.3974  1.5846  1.6674
18445TIP3   OH276825   4.312   4.579   6.742  0.9741  0.1776  0.5001
18445TIP3    H176826   4.267   4.547   6.820  0.0443 -0.8367 -0.4460
18445TIP3    H276827   4.266   4.538   6.668  3.1987 -0.5870 -0.4993
18446TIP3   OH276828   6.176   3.620   1.284 -0.3638  0.2643 -0.4785
18446TIP3    H176829   6.169   3.698   1.229  1.1993  0.2416 -0.7230
18446TIP3    H276830   6.258   3.632   1.333 -0.1170 -1.2058 -0.4997
18447TIP3   OH276831   4.837   3.770  12.829 -0.4128 -0.0854  0.7377
18447TIP3    H176832   4.865   3.852  12.787  0.9747 -0.3664  1.0904
18447TIP3    H276833   4.869   3.701  12.771 -0.9285 -0.3997  0.8255
18448TIP3   OH276834   3.296   0.748  14.489 -0.6304 -0.4119 -0.5383
18448TIP3    H176835   3.206   0.764  14.517 -0.2837  0.0766  0.3161
18448TIP3    H276836   3.298   0.780  14.399 -0.8285  1.3613  0.0648
18449TIP3   OH276837   1.267   5.846   5.381  0.1433 -0.0314  0.7733
18449TIP3    H176838   1.227   5.764   5.352  0.6108  0.1414 -0.4287
18449TIP3    H276839   1.252   5.849   5.475 -2.2407 -0.1938  0.4228
18450TIP3   OH276840   1.367   2.328   0.528  0.4410  0.2265  0.3096
18450TIP3    H176841   1.435   2.260   0.528 -0.9921 -1.2992 -1.5342
18450TIP3    H276842   1.412   2.408   0.504  2.0818 -0.1780  1.9684
18451TIP3   OH276843   2.912   1.392  11.715 -0.5383  0.1492  0.4336
18451TIP3    H176844   2.864   1.344  11.782 -0.9602  1.6770  1.2461
18451TIP3    H276845   3.003   1.388  11.743 -0.2374 -2.2871 -0.8221
18452TIP3   OH276846   3.462   3.915  14.184  0.2535  0.5693  0.0686
18452TIP3    H176847   3.510   3.985  14.140 -0.0298  1.2890  0.8841
18452TIP3    H276848   3.528   3.869  14.236  0.2137  1.0017  0.4966
18453TIP3   OH276849   6.770   6.286  11.759  0.4547  0.0257 -0.1741
18453TIP3    H176850   6.677   6.307  11.764  0.4446  0.0358 -0.3969
18453TIP3    H276851   6.815   6.366  11.786  0.3871 -0.1742  0.5235
18454TIP3   OH276852   6.285   3.080   2.686 -0.4337 -0.2384 -0.0487
18454TIP3    H176853   6.272   3.089   2.592 -2.0847 -0.8760  0.1170
18454TIP3    H276854   6.317   2.990   2.697  0.9498  0.2326 -0.1109
18455TIP3   OH276855   5.967   5.770  15.320  0.1721  0.2433 -0.2442
18455TIP3    H176856   5.988   5.686  15.278  0.8682 -0.4765  1.4832
18455TIP3    H276857   5.888   5.800  15.275 -0.3149 -1.5328 -0.6238
18456TIP3   OH276858   3.798   5.545  11.297  0.4417 -0.7382  0.1458
18456TIP3    H176859   3.828   5.520  11.385 -0.8440 -0.2364  0.7432
18456TIP3    H276860   3.815   5.639  11.292 -1.2746 -0.3846  0.6109
18457TIP3   OH276861   6.802   4.140  16.847  0.0725 -0.0186 -0.1365
18457TIP3    H176862   6.897   4.139  16.834 -0.1284 -1.7533 -1.6550
18457TIP3    H276863   6.775   4.226  16.815  0.8664 -0.4097 -1.9206
18458TIP3   OH276864   1.149   6.655  16.439 -0.3736 -0.3427  0.1067
18458TIP3    H176865   1.103   6.593  16.496 -0.9819 -0.2875 -0.3248
18458TIP3    H276866   1.126   6.627  16.351 -0.1993  0.1612 -0.0961
18459TIP3   OH276867   1.061   3.150   5.784  0.5148 -0.2625 -0.0701
18459TIP3    H176868   1.101   3.074   5.825 -0.4647 -1.1962 -0.8363
18459TIP3    H276869   1.053   3.214   5.855 -1.6304 -2.0334  1.3539
18460TIP3   OH276870   2.262   5.389   0.496  0.1425  0.4032  0.1274
18460TIP3    H176871   2.264   5.459   0.561 -0.0624  0.8829 -0.3807
18460TIP3    H276872   2.351   5.353   0.497  0.6525  1.6313 -0.6536
18461TIP3   OH276873   4.188   4.867   5.595 -0.0987  0.2414 -0.1695
18461TIP3    H176874   4.239   4.948   5.603  0.1397  0.0425  0.3406
18461TIP3    H276875   4.245   4.808   5.546  0.1916 -0.0019  0.4533
18462TIP3   OH276876   3.188   2.819   4.000 -0.8116 -0.4845 -0.4537
18462TIP3    H176877   3.101   2.803   3.964 -0.6612 -0.7924 -0.6868
18462TIP3    H276878   3.201   2.914   3.991 -0.6118 -0.6196 -1.5870
18463TIP3   OH276879   1.988   0.921  15.241  0.1007  0.4257  0.0107
18463TIP3    H176880   1.960   0.864  15.313 -0.4249 -0.3073 -0.7540
18463TIP3    H276881   1.922   0.990  15.238  0.2584  0.5893  0.3943
18464TIP3   OH276882   5.504   0.798   6.178  0.1507  0.2152  0.4831
18464TIP3    H176883   5.446   0.786   6.253 -0.4723  0.1906  0.0035
18464TIP3    H276884   5.587   0.826   6.216  0.0303 -0.4073  1.2288
18465TIP3   OH276885   3.701   2.827   1.592 -0.1069  0.3958 -0.2223
18465TIP3    H176886   3.670   2.756   1.648 -1.9236  1.0684 -0.3344
18465TIP3    H276887   3.756   2.881   1.648 -0.6893  0.2358  0.4984
18466TIP3   OH276888   3.827   6.313   3.582 -0.0042 -0.3192  0.5162
18466TIP3    H176889   3.903   6.314   3.640  2.3546  3.3209 -2.4531
18466TIP3    H276890   3.818   6.221   3.556  3.5667 -0.7664  0.6862
18467TIP3   OH276891   6.343   6.373  12.011 -0.2556  1.0418  0.1455
18467TIP3    H176892   6.392   6.366  11.929  0.2040  3.1657  0.2128
18467TIP3    H276893   6.254   6.346  11.988  0.2727 -0.0941 -0.6219
18468TIP3   OH276894   5.818   4.427  14.306  0.4549  0.3911 -0.4284
18468TIP3    H176895   5.756   4.366  14.346  0.7295  1.0012  0.9599
18468TIP3    H276896   5.820   4.502  14.366  2.1788  0.5728 -0.6899
18469TIP3   OH276897   2.781   4.244   1.234  0.0333 -0.1248 -1.0725
18469TIP3    H176898   2.876   4.234   1.228  0.2012  1.0432 -0.5390
18469TIP3    H276899   2.746   4.159   1.209  1.2623 -0.9899  0.0909
18470TIP3   OH276900   0.086   0.206   0.417 -0.4186 -0.0707 -0.7700
18470TIP3    H176901   0.051   0.273   0.358 -0.2353 -1.2785 -2.2811
18470TIP3    H276902   0.181   0.214   0.409 -0.3954 -0.4146 -0.8454
18471TIP3   OH276903   2.446   2.854   1.015  0.1648 -0.0639  0.4298
18471TIP3    H176904   2.444   2.811   1.101 -0.2062 -1.5452 -0.3009
18471TIP3    H276905   2.495   2.794   0.959  0.3596  0.8678 -0.4143
18472TIP3   OH276906   4.992   0.342  11.351 -0.1879  0.4602 -0.1496
18472TIP3    H176907   5.076   0.342  11.396 -1.0639 -0.5834  1.5546
18472TIP3    H276908   4.948   0.422  11.382 -0.1027  0.6507 -0.5152
18473TIP3   OH276909   0.082   0.258   5.643 -1.0580  0.4442 -0.0880
18473TIP3    H176910   0.094   0.215   5.728  2.5853  2.1422  0.3608
18473TIP3    H276911   0.114   0.195   5.579  1.2357  1.1823  0.2960
18474TIP3   OH276912   6.697   3.404   2.601 -0.3144  0.3283 -0.5836
18474TIP3    H176913   6.782   3.403   2.556  0.2591 -0.1254  0.4850
18474TIP3    H276914   6.687   3.315   2.634 -0.3283  0.8736  0.9067
18475TIP3   OH276915   5.345   1.681  11.223  0.2885 -0.3025  0.0449
18475TIP3    H176916   5.269   1.682  11.283  0.7490 -0.3408  0.6373
18475TIP3    H276917   5.356   1.588  11.201 -0.4295 -0.1912 -0.8126
18476TIP3   OH276918   2.371   0.647   1.505  0.7227 -0.1893  0.7383
18476TIP3    H176919   2.392   0.663   1.597 -0.3506 -0.6672  1.0748
18476TIP3    H276920   2.393   0.555   1.490  1.1057 -0.0518  0.4620
18477TIP3   OH276921   1.619   6.538   4.914  0.4009  0.0213 -0.1697
18477TIP3    H176922   1.524   6.544   4.922  0.1114 -0.6937 -2.6424
18477TIP3    H276923   1.649   6.629   4.917 -0.3915  0.2725  0.1869
18478TIP3   OH276924   4.647   2.182   1.964 -0.2179 -0.4226  0.5816
18478TIP3    H176925   4.612   2.230   2.039  1.3401 -0.6610  1.4700
18478TIP3    H276926   4.659   2.093   1.995  0.8737 -0.4149  0.1909
18479TIP3   OH276927   5.368   3.776  14.587  0.7950  0.5011 -0.8061
18479TIP3    H176928   5.308   3.714  14.627 -0.0525  0.1517 -2.5855
18479TIP3    H276929   5.378   3.846  14.652  0.7687 -0.8682  0.6849
18480TIP3   OH276930   1.441   1.129  13.200 -0.1339 -0.0570  0.0281
18480TIP3    H176931   1.496   1.129  13.121 -0.8270 -0.3000 -0.4579
18480TIP3    H276932   1.409   1.039  13.206 -0.6328  0.1345  0.2014
18481TIP3   OH276933   5.932   0.224   3.124 -0.2621  0.3322 -0.1088
18481TIP3    H176934   5.925   0.225   3.029 -0.5541  1.6578 -0.0863
18481TIP3    H276935   5.891   0.307   3.152 -1.5703 -0.7491  1.2626
18482TIP3   OH276936   2.766   3.547   2.712  0.3195  0.7910  0.3615
18482TIP3    H176937   2.750   3.634   2.674  0.0494  0.6970  0.2578
18482TIP3    H276938   2.742   3.486   2.643 -0.2304  0.6162  0.7007
18483TIP3   OH276939   1.729   5.224  15.271  0.0515  0.2107  0.6886
18483TIP3    H176940   1.766   5.256  15.189 -1.0491  0.3518  0.2489
18483TIP3    H276941   1.653   5.172  15.245  0.1678 -0.4115  1.5686
18484TIP3   OH276942   4.279   5.909   4.253  0.0046 -0.3412  0.7196
18484TIP3    H176943   4.210   5.971   4.232 -1.7184 -2.5685 -0.4115
18484TIP3    H276944   4.312   5.881   4.167  1.0031 -0.7270  1.2220
18485TIP3   OH276945   2.990   1.239  10.932  0.0331 -0.2280  0.1641
18485TIP3    H176946   3.021   1.329  10.940 -1.7283  0.7855 -3.0095
18485TIP3    H276947   3.058   1.194  10.882  1.1193 -0.8190  2.1284
18486TIP3   OH276948   2.054   1.428  15.320  0.3325  0.6544  0.2483
18486TIP3    H176949   1.974   1.471  15.288 -0.5108  0.0300  1.4811
18486TIP3    H276950   2.073   1.362  15.253 -1.3388 -0.5359  0.8920
18487TIP3   OH276951   6.273   2.786  12.481  0.6185  0.3941  0.1542
18487TIP3    H176952   6.181   2.779  12.457  0.1486 -0.7824  2.1851
18487TIP3    H276953   6.272   2.812  12.573  2.2388 -2.9029  1.2069
18488TIP3   OH276954   1.074   1.940  12.063 -0.3058  0.4266 -0.1789
18488TIP3    H176955   1.029   1.857  12.045  0.0986  0.7105 -2.6078
18488TIP3    H276956   1.063   1.991  11.983  2.7996  1.2219 -0.1325
18489TIP3   OH276957   1.648   5.645   2.415 -0.2008  0.3665 -0.0325
18489TIP3    H176958   1.576   5.696   2.377 -0.1641 -0.0946 -0.7300
18489TIP3    H276959   1.643   5.560   2.370  0.6162  0.2424  0.1062
18490TIP3   OH276960   1.968   1.176   5.501 -0.0534 -0.4661 -0.5151
18490TIP3    H176961   2.029   1.145   5.433  1.2092 -0.8304  0.7538
18490TIP3    H276962   1.970   1.271   5.493  2.1657 -0.3718  0.7226
18491TIP3   OH276963   2.883   6.579   4.657  0.3252  0.2947 -0.4216
18491TIP3    H176964   2.956   6.598   4.598  1.8805 -2.0425  0.6504
18491TIP3    H276965   2.810   6.557   4.598  0.6418  2.0855 -1.4991
18492TIP3   OH276966   0.097   3.744  14.144 -0.6028  0.1774 -0.0303
18492TIP3    H176967   0.033   3.673  14.148 -1.7346  1.1996 -0.0687
18492TIP3    H276968   0.149   3.725  14.066 -1.4718 -0.1066 -0.5410
18493TIP3   OH276969   5.336   0.510   3.251  0.5567 -0.2800 -0.8666
18493TIP3    H176970   5.289   0.440   3.296  0.1307  0.3863 -0.2692
18493TIP3    H276971   5.267   0.563   3.212  0.7212  1.6195  1.3439
18494TIP3   OH276972   3.857   1.938  14.854 -0.5273 -0.8342  0.0835
18494TIP3    H176973   3.850   2.017  14.800  0.6157 -1.7477 -1.4391
18494TIP3    H276974   3.766   1.916  14.876 -0.8931  0.5535  0.0236
18495TIP3   OH276975   5.663   3.513   2.474  0.2786 -0.8979  0.3923
18495TIP3    H176976   5.698   3.512   2.563  0.2899 -1.0255  0.3870
18495TIP3    H276977   5.663   3.421   2.447 -1.1820 -1.0452  0.8361
18496TIP3   OH276978   1.667   3.645  16.074  0.5332  0.3585  0.2243
18496TIP3    H176979   1.661   3.643  15.979  1.3464  0.8942  0.1626
18496TIP3    H276980   1.757   3.671  16.093 -0.2871  2.6637  1.1207
18497TIP3   OH276981   1.377   1.064   2.967  0.1683 -0.3665 -0.5374
18497TIP3    H176982   1.338   1.146   2.999 -0.7412 -1.4390  1.1866
18497TIP3    H276983   1.302   1.006   2.954  0.8133 -0.9428 -1.7387
18498TIP3   OH276984   3.456   5.990  16.179  0.0698 -0.7184  0.3728
18498TIP3    H176985   3.532   6.041  16.152  1.4418 -3.1168 -0.4460
18498TIP3    H276986   3.381   6.046  16.157  1.5426  1.5112  0.8115
18499TIP3   OH276987   3.110   4.864   3.528 -0.0120 -0.1357 -0.9001
18499TIP3    H176988   3.028   4.840   3.570  0.7570 -0.6703  0.3132
18499TIP3    H276989   3.083   4.910   3.448 -1.4812 -0.1591 -0.4367
18500TIP3   OH276990   4.441   5.796   0.222  0.3062  0.5316 -0.0927
18500TIP3    H176991   4.495   5.829   0.293  0.2731 -0.2683  0.3159
18500TIP3    H276992   4.443   5.701   0.233 -1.1590  0.4931 -0.0944
18501TIP3   OH276993   4.899   5.564   3.841 -0.0703 -0.5208  0.1222
18501TIP3    H176994   4.867   5.479   3.871 -0.7717 -0.1891  0.3110
18501TIP3    H276995   4.927   5.549   3.751  1.5566 -1.4021  0.7551
18502TIP3   OH276996   2.512   1.069  17.179  0.8315 -0.2898 -0.4582
18502TIP3    H176997   2.591   1.047  17.129  0.4104 -0.1930 -1.1688
18502TIP3    H276998   2.498   1.162  17.163  0.5118 -0.3294 -0.4184
18503TIP3   OH276999   6.467   6.801  14.630 -0.0767  0.4287  0.0442
18503TIP3    H177000   6.519   6.727  14.599 -0.8771  0.0719 -0.4684
18503TIP3    H277001   6.379   6.784  14.597 -0.8580  0.2974  2.1210
18504TIP3   OH277002   6.794   0.281  12.229  0.2891  0.0240  0.0661
18504TIP3    H177003   6.775   0.230  12.308 -1.6208 -0.1889 -0.5245
18504TIP3    H277004   6.860   0.229  12.183 -1.1071 -1.5735 -0.1812
18505TIP3   OH277005   5.209   2.581  11.742 -0.4815  0.5435 -0.1533
18505TIP3    H177006   5.165   2.542  11.817 -0.9740  0.8910 -0.2568
18505TIP3    H277007   5.147   2.647  11.710  0.0319  0.9019 -0.4190
18506TIP3   OH277008   4.006   4.953   5.371 -0.5984 -0.1924  0.4086
18506TIP3    H177009   4.066   4.949   5.445 -0.1098 -1.5938 -0.0471
18506TIP3    H277010   4.061   4.942   5.294 -1.2752 -0.2001 -0.0827
18507TIP3   OH277011   2.365   4.644   5.406  1.0127  0.0680  0.3843
18507TIP3    H177012   2.342   4.736   5.401  0.4137 -0.0669  0.6548
18507TIP3    H277013   2.291   4.598   5.367  0.5605 -0.3943  1.7515
18508TIP3   OH277014   1.208   1.137   1.018 -0.2802 -0.1992  0.1092
18508TIP3    H177015   1.164   1.067   0.969  0.9528 -2.3363  1.9298
18508TIP3    H277016   1.270   1.174   0.955 -1.3199 -0.3713 -1.0434
18509TIP3   OH277017   6.634   6.693  15.101 -0.9856  0.2974 -0.5261
18509TIP3    H177018   6.693   6.744  15.046  0.7992 -1.7138 -0.5295
18509TIP3    H277019   6.690   6.657  15.170 -2.3220 -1.1181 -0.1567
18510TIP3   OH277020   0.056   1.594  11.226  0.1996 -0.0496 -0.3156
18510TIP3    H177021  -0.010   1.566  11.163 -0.1057  0.7039 -0.3289
18510TIP3    H277022   0.016   1.575  11.311 -0.1546  0.6707 -0.3179
18511TIP3   OH277023   5.372   0.272  13.363  0.9371  0.4622  0.2480
18511TIP3    H177024   5.369   0.367  13.353 -1.3447  0.5233  1.1001
18511TIP3    H277025   5.289   0.242  13.327  1.9742 -1.3016 -0.7356
18512TIP3   OH277026   3.928   0.540  14.481  0.9185  0.1351 -0.1167
18512TIP3    H177027   3.980   0.578  14.551 -0.1171 -0.3112  0.9146
18512TIP3    H277028   3.942   0.445  14.489 -1.8446 -0.1695  1.6648
18513TIP3   OH277029   5.677   0.176  14.187 -0.0561 -0.4480 -0.4109
18513TIP3    H177030   5.678   0.194  14.093 -1.4493  2.4241  0.0549
18513TIP3    H277031   5.762   0.206  14.219 -0.1076 -0.1542 -0.5483
18514TIP3   OH277032   6.090   5.174   5.157 -0.3679 -0.2008  0.5396
18514TIP3    H177033   6.054   5.262   5.145 -0.0463  0.0807  1.6029
18514TIP3    H277034   6.073   5.153   5.249 -0.0142 -1.0584  0.4194
18515TIP3   OH277035   0.207   2.215   5.855  0.2378 -0.0060 -0.8252
18515TIP3    H177036   0.157   2.135   5.868  2.0703 -1.0906 -0.2700
18515TIP3    H277037   0.153   2.268   5.796 -2.4441 -0.2954  1.2988
18516TIP3   OH277038   4.780   4.237   6.713  0.2003  0.1227  0.2070
18516TIP3    H177039   4.872   4.248   6.736  0.5273 -0.5348 -0.7735
18516TIP3    H277040   4.733   4.246   6.796  1.1992 -0.1631  0.8042
18517TIP3   OH277041   2.672   0.948   4.290 -0.3477  0.1659 -0.2582
18517TIP3    H177042   2.633   1.034   4.303 -2.1343 -0.8511  1.5012
18517TIP3    H277043   2.597   0.888   4.290  0.9455 -1.4832 -0.4595
18518TIP3   OH277044   2.221   6.775  10.586  0.5784  0.3424 -0.1644
18518TIP3    H177045   2.235   6.848  10.525  0.2862  0.4533 -0.1005
18518TIP3    H277046   2.176   6.814  10.661 -1.7554 -0.3231 -1.1628
18519TIP3   OH277047   4.952   0.645  15.217  0.3242  0.7447 -0.1894
18519TIP3    H177048   4.885   0.713  15.213 -0.3057  0.1566  0.2445
18519TIP3    H277049   5.035   0.692  15.221 -0.1225  1.4835  0.3476
18520TIP3   OH277050   0.447   2.254   3.154 -0.2386  0.2752  0.2874
18520TIP3    H177051   0.450   2.162   3.182 -0.6188  0.8173  2.2066
18520TIP3    H277052   0.353   2.273   3.146 -0.1397  0.1328 -1.4435
18521TIP3   OH277053   2.865   3.600   1.006 -0.3052 -0.4470 -0.5830
18521TIP3    H177054   2.897   3.673   1.059  0.8599 -1.0587 -0.4476
18521TIP3    H277055   2.925   3.596   0.932 -0.5464 -1.0778 -0.7433
18522TIP3   OH277056   0.356   1.366  13.262 -0.7979  0.1832  0.7700
18522TIP3    H177057   0.340   1.352  13.169 -0.3718  1.8145  0.4496
18522TIP3    H277058   0.271   1.394  13.297 -0.3141  2.1540  0.3692
18523TIP3   OH277059   4.147   2.113  15.800 -0.3422  0.2647 -0.1108
18523TIP3    H177060   4.080   2.178  15.777 -0.6890 -0.0688 -0.0447
18523TIP3    H277061   4.168   2.070  15.717  2.2537  2.6558 -0.7744
18524TIP3   OH277062   4.690   0.375   3.239 -0.3060  0.3976  0.0442
18524TIP3    H177063   4.601   0.388   3.272 -0.6835 -0.1023 -0.7563
18524TIP3    H277064   4.687   0.407   3.149 -0.2318 -1.5381 -0.6712
18525TIP3   OH277065   6.179   2.746   3.144 -0.4563 -0.0307  0.3418
18525TIP3    H177066   6.123   2.822   3.124  2.7614  1.8915 -1.9511
18525TIP3    H277067   6.159   2.683   3.074 -1.0704 -0.1191  0.5944
18526TIP3   OH277068   5.643   2.732  11.890 -0.1824 -0.2532 -0.0107
18526TIP3    H177069   5.610   2.819  11.912  1.3163  0.8201 -1.9395
18526TIP3    H277070   5.714   2.717  11.952  0.3127  0.3878 -0.4158
18527TIP3   OH277071   4.473   5.740  12.087 -0.8838  0.3482  0.2279
18527TIP3    H177072   4.378   5.726  12.088 -0.8594  0.1838  0.3630
18527TIP3    H277073   4.485   5.820  12.037 -1.0951  0.3722  0.2147
18528TIP3   OH277074   3.037   2.281   4.257  0.8395  0.0477 -0.1151
18528TIP3    H177075   2.959   2.234   4.285  0.5591 -1.2259 -2.8739
18528TIP3    H277076   3.012   2.373   4.259  1.3535  0.2168  5.1918
18529TIP3   OH277077   2.364   0.152   0.022 -0.2575 -0.4331  0.0507
18529TIP3    H177078   2.416   0.214   0.073 -1.8705  1.0388 -0.0351
18529TIP3    H277079   2.358   0.074   0.077  1.2169 -0.2671  0.4640
18530TIP3   OH277080   5.183   4.782   0.853 -0.0066 -0.6876  0.1560
18530TIP3    H177081   5.274   4.771   0.825 -0.1481  1.8644 -1.4641
18530TIP3    H277082   5.179   4.871   0.887 -2.1067 -0.4395 -0.6775
18531TIP3   OH277083   4.048   5.751  10.625 -0.2001  0.4768  0.3081
18531TIP3    H177084   3.991   5.741  10.549 -0.9590 -0.8095  1.0321
18531TIP3    H277085   4.031   5.841  10.655  0.0579  0.9744 -0.9743
18532TIP3   OH277086   5.489   4.721   2.609 -0.1308  0.0929 -0.1638
18532TIP3    H177087   5.472   4.628   2.624  0.2478 -0.1177 -1.0090
18532TIP3    H277088   5.500   4.757   2.696 -1.8789 -0.3401  0.2577
18533TIP3   OH277089   0.056   0.032  15.161  0.5501  0.1665  0.2400
18533TIP3    H177090   0.138   0.001  15.123 -0.7948 -2.0293 -1.0304
18533TIP3    H277091   0.047  -0.019  15.242  0.9847  1.2380  0.9712
18534TIP3   OH277092   4.801   0.994   0.185 -0.3564 -0.0309 -0.5389
18534TIP3    H177093   4.854   0.921   0.153  1.4484  1.6821 -1.6287
18534TIP3    H277094   4.733   0.953   0.238 -1.1109 -2.6994 -3.4284
18535TIP3   OH277095   2.933   3.868   3.998 -0.4849  0.3721 -0.5915
18535TIP3    H177096   2.898   3.935   4.057 -1.5887 -0.9065  0.2349
18535TIP3    H277097   2.860   3.846   3.941  0.7458  2.0148 -2.8673
18536TIP3   OH277098   5.488   6.292   0.581 -0.0141 -0.0970 -0.4438
18536TIP3    H177099   5.537   6.246   0.513 -2.1476 -0.8318 -1.5433
18536TIP3    H277100   5.409   6.239   0.593  0.0785  0.3199  2.2442
18537TIP3   OH277101   1.342   1.759   5.889 -0.5077  0.4219  0.4153
18537TIP3    H177102   1.326   1.834   5.946  0.0322 -0.1756  1.3804
18537TIP3    H277103   1.342   1.795   5.800 -0.9576  1.4369  0.8251
18538TIP3   OH277104   4.887   2.326   0.050 -0.3768  0.1770 -0.3553
18538TIP3    H177105   4.953   2.307  -0.017  1.6129 -0.8770  1.8255
18538TIP3    H277106   4.935   2.375   0.117 -2.1267  0.5009  0.6789
18539TIP3   OH277107   4.829   0.156  11.086 -0.2271  0.0613 -0.2149
18539TIP3    H177108   4.876   0.239  11.075  1.4347 -0.6624  1.1606
18539TIP3    H277109   4.802   0.156  11.178 -2.2105  0.0786 -0.7858
18540TIP3   OH277110   2.921   6.132  13.775 -0.2365  0.4301 -0.0795
18540TIP3    H177111   3.004   6.172  13.749  0.2105 -0.5892 -0.2710
18540TIP3    H277112   2.919   6.049  13.727 -0.9427  0.0419  0.6160
18541TIP3   OH277113   6.608   2.957  14.101 -0.0548 -0.1794 -0.2149
18541TIP3    H177114   6.703   2.956  14.092  0.0597 -0.7893  0.8627
18541TIP3    H277115   6.587   2.871  14.138 -1.0324 -0.0709 -0.4929
18542TIP3   OH277116   6.127   4.360   3.657 -0.0884 -0.6927  0.0163
18542TIP3    H177117   6.180   4.438   3.674  0.1251 -0.6158 -1.0099
18542TIP3    H277118   6.062   4.388   3.593 -1.0495 -0.9323  0.8633
18543TIP3   OH277119   1.377   4.391  16.782  0.5878  0.2774  0.6377
18543TIP3    H177120   1.363   4.482  16.759  0.4547  0.2955  0.7928
18543TIP3    H277121   1.302   4.367  16.836  0.4811 -0.0033  0.3693
18544TIP3   OH277122   4.220   2.421   6.157 -0.9244  0.0300  0.0403
18544TIP3    H177123   4.151   2.395   6.217 -0.0687  0.0164  1.0275
18544TIP3    H277124   4.301   2.411   6.207  0.0343 -2.3925 -1.9077
18545TIP3   OH277125   6.443   4.500   6.274 -0.0574 -0.3380 -0.1085
18545TIP3    H177126   6.511   4.440   6.244 -0.5028 -0.5855 -0.6329
18545TIP3    H277127   6.450   4.499   6.369 -0.8980 -2.2060 -0.0551
18546TIP3   OH277128   3.809   5.939  12.292  0.0343 -0.4252 -0.1014
18546TIP3    H177129   3.883   5.983  12.249  0.5940 -1.3904 -0.1511
18546TIP3    H277130   3.780   6.000  12.359  1.3330 -0.3152  0.3870
18547TIP3   OH277131   3.526   4.299  15.446 -0.0924 -0.8087 -0.0105
18547TIP3    H177132   3.596   4.314  15.382  0.1321  1.2148  0.6629
18547TIP3    H277133   3.450   4.344  15.408 -0.8685 -2.4586 -0.4378
18548TIP3   OH277134   0.683   3.675  15.456  0.0836  0.0776  0.3580
18548TIP3    H177135   0.683   3.627  15.373 -0.7838  1.4014 -0.4195
18548TIP3    H277136   0.775   3.692  15.474  0.2543  0.1587 -0.5663
18549TIP3   OH277137   6.054   5.406  15.224  0.5010 -0.4795  0.3041
18549TIP3    H177138   6.080   5.490  15.188 -2.5912  0.1664 -0.5757
18549TIP3    H277139   6.057   5.419  15.319  0.0117  0.6401  0.1705
18550TIP3   OH277140   2.796   6.449  11.152  0.8977 -0.2143 -0.4759
18550TIP3    H177141   2.752   6.382  11.205  0.6248 -0.2652 -0.7673
18550TIP3    H277142   2.886   6.418  11.144  0.6915 -0.7059 -0.8826
18551TIP3   OH277143   6.752   0.676   5.011  0.0245  0.3660  0.1796
18551TIP3    H177144   6.759   0.703   4.919 -1.8813  0.1841 -0.0345
18551TIP3    H277145   6.704   0.746   5.053  0.5041  0.2324  0.9637
18552TIP3   OH277146   6.499   6.402  12.854  0.4779 -0.1228 -0.8186
18552TIP3    H177147   6.554   6.465  12.901  0.4855 -1.8078  1.5154
18552TIP3    H277148   6.489   6.329  12.915 -0.8583 -1.6899 -2.8584
18553TIP3   OH277149   5.540   0.580   3.458  0.0175  0.2856  0.4445
18553TIP3    H177150   5.500   0.665   3.474  0.2825  0.6573 -0.8000
18553TIP3    H277151   5.493   0.545   3.382  1.4803  0.3737 -0.5353
18554TIP3   OH277152   5.110   1.089  15.949 -0.0185  0.1396 -0.1873
18554TIP3    H177153   5.133   1.055  16.035 -0.1585 -2.0735 -0.9872
18554TIP3    H277154   5.193   1.090  15.901  0.2006  2.1102  0.1893
18555TIP3   OH277155   6.281   4.129   2.018 -0.0380 -0.4461  0.5149
18555TIP3    H177156   6.283   4.081   2.101 -0.6766  1.2725  1.5481
18555TIP3    H277157   6.189   4.127   1.992  0.4362 -2.6229 -1.1742
18556TIP3   OH277158   3.223   4.790   2.912  0.2658  0.0555  0.2880
18556TIP3    H177159   3.148   4.820   2.862 -0.2946 -0.6624  0.6828
18556TIP3    H277160   3.275   4.739   2.849 -0.1676 -0.4081  0.3024
18557TIP3   OH277161   0.816   5.357   3.346 -0.6720  0.1876 -0.3828
18557TIP3    H177162   0.733   5.392   3.313 -0.7657 -0.7506 -1.1488
18557TIP3    H277163   0.878   5.371   3.274 -0.4425 -0.1854 -0.2602
18558TIP3   OH277164   4.026   6.132  16.383 -0.1455 -0.9545 -0.3459
18558TIP3    H177165   4.072   6.090  16.311  2.7375  0.8838  0.3180
18558TIP3    H277166   4.029   6.067  16.454  1.5927 -0.8246 -0.2724
18559TIP3   OH277167   2.407   5.695   0.532 -0.4767  0.1186 -0.6416
18559TIP3    H177168   2.449   5.654   0.457 -2.7051 -0.1681 -1.7763
18559TIP3    H277169   2.381   5.782   0.500  0.9531  1.0478  0.6389
18560TIP3   OH277170   0.218   1.633   4.885  0.0318  0.2530 -0.6985
18560TIP3    H177171   0.178   1.719   4.901  0.7433  0.6895 -1.2548
18560TIP3    H277172   0.156   1.588   4.827  0.2755  0.8827 -1.4564
18561TIP3   OH277173   5.258   5.976  11.512 -0.1535  0.1203 -0.2859
18561TIP3    H177174   5.296   6.039  11.574 -0.7274 -0.3170  0.5282
18561TIP3    H277175   5.228   5.904  11.568 -0.8458 -0.1971 -1.0642
18562TIP3   OH277176   3.784   2.235   3.921 -0.9934  0.8888 -0.3407
18562TIP3    H177177   3.858   2.293   3.938 -1.7078  1.6857  0.0984
18562TIP3    H277178   3.736   2.231   4.004 -1.0455 -0.1981 -0.4151
18563TIP3   OH277179   3.412   5.486   4.756  0.3905  0.2058 -0.0970
18563TIP3    H177180   3.369   5.416   4.804 -1.2941  0.6657 -0.8889
18563TIP3    H277181   3.454   5.540   4.823 -1.2006  0.3627  0.8071
18564TIP3   OH277182   3.666   3.815   3.099  0.1460  0.0150 -0.2001
18564TIP3    H177183   3.653   3.910   3.097  0.7769  0.1400  1.1318
18564TIP3    H277184   3.738   3.802   3.161  2.2251 -1.1010 -2.7323
18565TIP3   OH277185   4.648   4.944  13.854  0.1035  0.2365  0.5892
18565TIP3    H177186   4.691   4.916  13.773 -1.0546  2.8572 -1.0137
18565TIP3    H277187   4.591   4.872  13.878 -2.4988  0.9227 -3.1460
18566TIP3   OH277188   0.008   3.567   3.183  0.0763  0.0197 -0.3225
18566TIP3    H177189   0.044   3.633   3.241 -1.8937  0.7909  0.0872
18566TIP3    H277190  -0.019   3.495   3.240  0.7926 -0.4719 -0.5981
18567TIP3   OH277191   4.678   6.400   6.124  0.8321 -0.0660 -0.1809
18567TIP3    H177192   4.610   6.361   6.180  0.0608 -0.7859 -1.5839
18567TIP3    H277193   4.738   6.442   6.185 -1.1896  1.1066  1.0805
18568TIP3   OH277194   0.365   2.597  12.004 -0.1698 -0.2684 -0.3557
18568TIP3    H177195   0.296   2.604  11.938  0.6433 -0.3739 -1.2320
18568TIP3    H277196   0.433   2.545  11.962  1.0271  0.9743 -0.0186
18569TIP3   OH277197   1.268   3.675  12.904  0.0109  0.3235 -0.0231
18569TIP3    H177198   1.240   3.661  12.995 -1.6105  1.4720 -0.3194
18569TIP3    H277199   1.363   3.671  12.908 -0.0783 -0.9296  1.5091
18570TIP3   OH277200   1.649   0.942  13.086 -0.2812 -0.1788  0.1579
18570TIP3    H177201   1.700   0.999  13.143  0.8947  0.5604 -1.5820
18570TIP3    H277202   1.624   0.868  13.142  1.0532  0.3993  1.5548
18571TIP3   OH277203   2.743   6.172   0.111  0.0202 -0.2645 -0.3485
18571TIP3    H177204   2.728   6.265   0.097 -0.0053 -0.0144  1.2467
18571TIP3    H277205   2.833   6.157   0.080  0.7506  0.7262  1.1881
18572TIP3   OH277206   0.945   2.674   6.292  0.0744 -0.1038 -0.1870
18572TIP3    H177207   0.890   2.646   6.365  0.2205  2.4508  0.9641
18572TIP3    H277208   1.014   2.608   6.287  1.0843  0.5979  3.1816
18573TIP3   OH277209   3.374   0.345  10.921  0.1964 -0.1915  0.2726
18573TIP3    H177210   3.342   0.348  10.831 -0.6846 -1.9532  0.4982
18573TIP3    H277211   3.460   0.305  10.915  0.5081  0.5022  0.1214
18574TIP3   OH277212   0.681   6.275  17.026 -0.5600  1.0196 -0.4710
18574TIP3    H177213   0.740   6.340  17.064 -0.9056  0.0194  1.8915
18574TIP3    H277214   0.593   6.311  17.042 -0.7460  0.0995  0.7061
18575TIP3   OH277215   1.949   3.269  16.191 -0.1906 -0.0940  0.0364
18575TIP3    H177216   1.946   3.208  16.265 -0.8199 -2.3829 -1.8095
18575TIP3    H277217   1.858   3.275  16.161  0.4938 -1.5458 -2.3889
18576TIP3   OH277218   2.049   4.589  10.766  0.2465 -0.2281  0.4223
18576TIP3    H177219   2.141   4.616  10.768  0.5195 -1.1218  0.2845
18576TIP3    H277220   2.001   4.666  10.794  0.9268  0.7559 -1.0561
18577TIP3   OH277221   0.802   1.907  11.987 -0.6111 -0.4022  0.2375
18577TIP3    H177222   0.722   1.960  11.983  0.6758  1.6699  1.2821
18577TIP3    H277223   0.861   1.948  11.924  0.6980 -0.0930  1.6490
18578TIP3   OH277224   3.462   2.084  13.237 -0.6543 -0.2272 -0.1949
18578TIP3    H177225   3.428   2.163  13.279 -1.2119 -0.6823  0.2164
18578TIP3    H277226   3.456   2.017  13.305  1.5339 -0.2097  0.0524
18579TIP3   OH277227   6.059   1.742   4.460 -0.6294  0.0200 -0.0596
18579TIP3    H177228   6.121   1.670   4.454 -1.1597 -0.4322 -0.1231
18579TIP3    H277229   6.084   1.788   4.541 -1.1386 -1.0293  0.7064
18580TIP3   OH277230   4.001   3.326   4.694 -0.3453 -0.3572 -0.4362
18580TIP3    H177231   3.989   3.249   4.638 -0.6655 -1.8910  1.6861
18580TIP3    H277232   4.004   3.291   4.783 -2.5592  2.2743  0.7438
18581TIP3   OH277233   5.252   2.034   2.561  0.0068 -0.3353  1.3197
18581TIP3    H177234   5.330   2.019   2.507 -1.0161 -0.7538 -0.0503
18581TIP3    H277235   5.270   2.117   2.605  1.1835 -0.3764  0.9378
18582TIP3   OH277236   3.352   0.683  16.336  0.1657  0.4500 -0.2317
18582TIP3    H177237   3.282   0.634  16.379 -1.8133  3.3604 -0.0658
18582TIP3    H277238   3.388   0.739  16.404  1.4684  0.2718 -0.7567
18583TIP3   OH277239   2.226   1.172   0.912 -0.1948  0.2383  0.0832
18583TIP3    H177240   2.227   1.125   0.996 -2.6279 -0.1163 -0.0565
18583TIP3    H277241   2.257   1.108   0.848 -1.1191 -0.4218  0.2805
18584TIP3   OH277242   1.676   2.380   3.471 -0.2129 -0.2833 -0.6734
18584TIP3    H177243   1.661   2.289   3.497  0.8964 -0.6210 -1.1826
18584TIP3    H277244   1.679   2.428   3.554 -0.9865 -0.6763 -0.4131
18585TIP3   OH277245   3.564   1.456   2.922  0.1898  0.2255  0.0250
18585TIP3    H177246   3.528   1.367   2.922 -1.9697  1.0560  0.6952
18585TIP3    H277247   3.565   1.481   2.829  0.6441 -0.4397 -0.1504
18586TIP3   OH277248   0.912   1.273   0.896 -0.0891  0.2248 -0.2374
18586TIP3    H177249   0.938   1.209   0.831 -1.3048 -1.9197  1.3220
18586TIP3    H277250   0.829   1.307   0.864  0.4070  0.8293 -0.9093
18587TIP3   OH277251   1.549   6.014   1.569 -0.3857 -0.2695 -0.3661
18587TIP3    H177252   1.526   6.072   1.496 -0.6354  0.9184  0.6271
18587TIP3    H277253   1.574   6.074   1.640 -0.5350 -1.3881  0.6506
18588TIP3   OH277254   2.168   1.616   2.228 -0.0416  0.9731 -0.1317
18588TIP3    H177255   2.151   1.582   2.316  2.0740  2.7667  1.0484
18588TIP3    H277256   2.129   1.704   2.229  0.4775  1.2155 -0.7623
18589TIP3   OH277257   5.944   4.768  11.414  0.3327 -0.1182 -0.1104
18589TIP3    H177258   6.003   4.830  11.371  1.0688 -0.7531 -0.0318
18589TIP3    H277259   5.890   4.732  11.343  2.5489 -2.2704 -0.7738
18590TIP3   OH277260   2.890   2.669  15.266  0.3604 -0.2306  0.1342
18590TIP3    H177261   2.907   2.746  15.211  1.9985 -1.7949 -1.6474
18590TIP3    H277262   2.878   2.705  15.354 -1.6030  2.2842 -1.0817
18591TIP3   OH277263   2.342   1.567  11.918 -0.5421 -0.7648 -0.2131
18591TIP3    H177264   2.280   1.497  11.937 -2.2675  0.9593  0.5673
18591TIP3    H277265   2.385   1.584  12.002  0.1077 -1.0704 -0.4740
18592TIP3   OH277266   2.606   6.207   3.804  0.2652  0.1429  0.0446
18592TIP3    H177267   2.519   6.196   3.766 -0.0445 -1.1701  1.0864
18592TIP3    H277268   2.602   6.291   3.849  0.1542  0.9849 -1.4779
18593TIP3   OH277269   2.833   2.953   6.079  0.1132  0.1095  0.3238
18593TIP3    H177270   2.869   2.874   6.120  0.2484 -0.4200 -0.7980
18593TIP3    H277271   2.892   2.971   6.006  0.5110  1.6873  0.9900
18594TIP3   OH277272   0.486   4.739   3.257 -0.4601  0.2857 -0.0043
18594TIP3    H177273   0.526   4.671   3.203 -1.2447 -1.1285  1.1556
18594TIP3    H277274   0.527   4.821   3.228  1.2224 -0.7982 -0.7276
18595TIP3   OH277275   2.878   6.736  15.566 -0.1484 -0.3202  0.2578
18595TIP3    H177276   2.871   6.749  15.661  0.7258  1.0135  0.1504
18595TIP3    H277277   2.952   6.677  15.556 -0.6321 -0.9655  0.4343
18596TIP3   OH277278   2.124   6.286   3.403  0.6322 -0.2578  0.3424
18596TIP3    H177279   2.216   6.285   3.376  0.7043  1.1615  0.4877
18596TIP3    H277280   2.126   6.264   3.496  0.9955  1.4552  0.7563
18597TIP3   OH277281   2.780   5.579  12.627 -0.8600 -0.3388 -0.3635
18597TIP3    H177282   2.864   5.622  12.612 -2.4505  2.1380 -2.6926
18597TIP3    H277283   2.775   5.512  12.559 -1.3588  0.4765 -1.1427
18598TIP3   OH277284   6.270   2.509  16.805  0.3266 -0.8606 -0.4196
18598TIP3    H177285   6.290   2.472  16.719  0.0649 -0.4025 -0.6783
18598TIP3    H277286   6.266   2.603  16.790  2.1819 -0.6152  0.4704
18599TIP3   OH277287   0.017   4.489   0.069  0.6058 -0.4222 -0.6678
18599TIP3    H177288   0.074   4.566   0.070  0.4608 -0.3131 -0.6172
18599TIP3    H277289  -0.028   4.491   0.153  0.8552 -0.7586 -0.5265
18600TIP3   OH277290   5.408   4.956   1.710 -0.5265 -0.7550  0.5389
18600TIP3    H177291   5.425   4.903   1.632  0.1313 -2.8251  2.0395
18600TIP3    H277292   5.432   5.045   1.684  1.1540 -1.6524 -1.1568
18601TIP3   OH277293   5.687   4.337   3.951 -0.5291  0.2389  0.0456
18601TIP3    H177294   5.673   4.306   3.861  0.9181 -2.9100  0.8445
18601TIP3    H277295   5.765   4.391   3.946 -0.4863  0.1166 -0.6005
18602TIP3   OH277296   1.747   4.134   3.823  0.1811  0.0666  0.4803
18602TIP3    H177297   1.772   4.094   3.741  1.5082 -0.2307  1.0171
18602TIP3    H277298   1.743   4.228   3.804 -1.3718 -0.1662 -0.3777
18603TIP3   OH277299   1.749   0.104  13.462  0.1609 -0.1965  0.1595
18603TIP3    H177300   1.673   0.134  13.412 -0.3024 -1.9195 -0.2015
18603TIP3    H277301   1.791   0.041  13.404  0.3807 -1.2151  1.4296
18604TIP3   OH277302   5.063   3.678   3.285  0.7967 -0.2097  0.1537
18604TIP3    H177303   4.984   3.660   3.335  1.9915 -0.1692  2.1080
18604TIP3    H277304   5.104   3.753   3.329 -0.0837  2.3892 -3.2137
18605TIP3   OH277305   2.365   3.503  14.262 -0.2155  0.0003 -0.0623
18605TIP3    H177306   2.282   3.467  14.232  0.2038 -0.9518 -0.0984
18605TIP3    H277307   2.355   3.511  14.357 -0.0591 -0.8693  0.0279
18606TIP3   OH277308   0.917   2.368  13.700 -0.1302 -0.3754 -0.0170
18606TIP3    H177309   0.993   2.416  13.733  0.2049  0.3784 -1.8527
18606TIP3    H277310   0.953   2.285  13.669  0.1423  0.4404 -1.9411
18607TIP3   OH277311   0.377   1.565   2.716 -0.4448 -0.1525 -0.1540
18607TIP3    H177312   0.366   1.590   2.625 -1.6967 -0.7492 -0.1793
18607TIP3    H277313   0.464   1.597   2.740 -0.7425  1.3966 -1.0941
18608TIP3   OH277314   3.463   1.585  12.456 -0.1631  0.0669  0.0989
18608TIP3    H177315   3.417   1.592  12.540 -2.0224 -0.7596 -0.8260
18608TIP3    H277316   3.550   1.552  12.479 -0.9174 -0.9107  1.6221
18609TIP3   OH277317   6.452   3.038   5.532  0.2327  0.1372  0.4220
18609TIP3    H177318   6.395   3.108   5.564  1.1384  1.0377  0.0723
18609TIP3    H277319   6.437   3.035   5.438  1.4847  1.0203  0.1992
18610TIP3   OH277320   1.049   1.278   2.404 -0.7466  0.2399 -0.1980
18610TIP3    H177321   1.143   1.262   2.416 -0.6220  2.6173  2.5356
18610TIP3    H277322   1.040   1.303   2.312  1.3909  0.5777 -0.3358
18611TIP3   OH277323   5.157   2.295  14.652  0.6549 -0.1266 -0.4145
18611TIP3    H177324   5.234   2.345  14.623  1.5570 -0.8578  0.6675
18611TIP3    H277325   5.191   2.238  14.721 -1.0768  0.1978  0.7058
18612TIP3   OH277326   1.222   0.552   1.776  0.5331  0.0651  0.6084
18612TIP3    H177327   1.190   0.580   1.690 -0.0321  1.8243  1.3739
18612TIP3    H277328   1.310   0.517   1.758  0.3453  0.2480 -0.7075
18613TIP3   OH277329   1.804   4.115   5.196  0.1647  0.4092 -0.3928
18613TIP3    H177330   1.876   4.103   5.258  0.0805  1.0153 -0.1727
18613TIP3    H277331   1.729   4.075   5.238  0.1516  0.6513 -0.1801
18614TIP3   OH277332   6.585   3.628  16.866 -0.5849  0.7311  0.0354
18614TIP3    H177333   6.632   3.711  16.872  0.0996  0.2871  0.9033
18614TIP3    H277334   6.496   3.652  16.839 -0.5825  1.8015  0.9901
18615TIP3   OH277335   6.330   5.547  13.199  0.3535  0.1795  0.6705
18615TIP3    H177336   6.330   5.454  13.174  3.7355  0.2654  0.0555
18615TIP3    H277337   6.347   5.593  13.117 -2.6936  1.4847  0.7290
18616TIP3   OH277338   4.533   3.513   5.107 -0.1306  0.2812 -0.4038
18616TIP3    H177339   4.612   3.551   5.144 -0.9570  0.2106  1.5422
18616TIP3    H277340   4.507   3.572   5.037  0.3403  1.6113  0.5203
18617TIP3   OH277341   1.557   3.339  13.897 -0.7508  0.4540 -0.5244
18617TIP3    H177342   1.553   3.405  13.828 -3.3816  0.3261 -0.5224
18617TIP3    H277343   1.499   3.372  13.965 -1.3351 -1.3929 -0.1065
18618TIP3   OH277344   3.918   4.834   0.879  0.2004 -0.1770 -0.0542
18618TIP3    H177345   3.902   4.894   0.807 -0.9316  0.0698  0.3939
18618TIP3    H277346   4.013   4.827   0.884  0.4052  2.4782  0.6217
18619TIP3   OH277347   5.390   1.792   0.816  0.6981  0.0262  0.7285
18619TIP3    H177348   5.480   1.765   0.832  0.5885  0.2278  1.7478
18619TIP3    H277349   5.342   1.710   0.808  0.9050 -0.0826  0.6091
18620TIP3   OH277350   6.280   3.381  15.079  0.0390 -0.0037 -0.3522
18620TIP3    H177351   6.232   3.298  15.076  0.3189 -0.1694 -0.2911
18620TIP3    H277352   6.360   3.361  15.128 -1.7054  1.2327  3.2215
18621TIP3   OH277353   6.249   0.257   5.435  0.4516 -0.0308 -0.2723
18621TIP3    H177354   6.279   0.302   5.355  0.0496 -0.6563 -0.7776
18621TIP3    H277355   6.154   0.249   5.423  0.3526  0.1581  0.4147
18622TIP3   OH277356   0.410   3.476  14.271  0.1102  0.2506  0.4178
18622TIP3    H177357   0.318   3.464  14.251  0.3652 -0.5444 -0.3177
18622TIP3    H277358   0.416   3.565  14.306 -0.8288  0.5381 -0.1435
18623TIP3   OH277359   5.126   3.587  13.368  0.8750  0.1517 -0.4380
18623TIP3    H177360   5.036   3.580  13.335  0.7908  0.1709 -0.2164
18623TIP3    H277361   5.138   3.509  13.422  1.7800 -1.0418 -2.3157
18624TIP3   OH277362   2.497   4.142   2.111  0.5164  0.7231  0.0115
18624TIP3    H177363   2.420   4.174   2.158  0.5979 -0.2866  0.8604
18624TIP3    H277364   2.477   4.159   2.019 -0.5305  0.8812  0.2521
18625TIP3   OH277365   5.717   1.700   3.909  0.2113 -0.0137 -0.6567
18625TIP3    H177366   5.712   1.626   3.847  2.0643  0.0313 -0.8681
18625TIP3    H277367   5.736   1.659   3.993 -1.0317  0.0424 -0.3342
18626TIP3   OH277368   3.491   0.590   3.739  0.4582  0.2926 -0.2167
18626TIP3    H177369   3.460   0.556   3.823 -0.7974  1.1470 -0.3205
18626TIP3    H277370   3.478   0.684   3.744 -0.9274  0.2200 -1.8725
18627TIP3   OH277371   3.038   6.632   0.315  0.4902 -0.1245  0.5643
18627TIP3    H177372   3.044   6.619   0.410  0.9121  0.9684  0.6885
18627TIP3    H277373   2.947   6.659   0.301  0.0883 -1.4698  0.5070
18628TIP3   OH277374   4.552   3.919   4.805 -0.2281 -0.3692  0.0804
18628TIP3    H177375   4.617   3.943   4.740 -0.7046  0.6271 -0.0404
18628TIP3    H277376   4.582   3.961   4.886  0.2997 -1.5039  0.4888
18629TIP3   OH277377   3.225   2.857  12.263 -0.3964 -0.1435 -0.2904
18629TIP3    H177378   3.236   2.762  12.270 -2.8766 -0.3765  0.8039
18629TIP3    H277379   3.209   2.886  12.352 -0.7088  1.1818 -0.7728
18630TIP3   OH277380   1.923   4.191  14.472 -0.1044 -0.1393 -0.1330
18630TIP3    H177381   1.912   4.285  14.484 -2.2769 -0.4075  0.2304
18630TIP3    H277382   1.969   4.162  14.551 -0.3303  0.4872  0.2354
18631TIP3   OH277383   0.098   2.232  14.120  0.1475 -0.2728 -0.5933
18631TIP3    H177384   0.139   2.304  14.170 -1.6585  1.1659 -1.1342
18631TIP3    H277385   0.169   2.170  14.106  1.8372  1.5442 -0.3375
18632TIP3   OH277386   0.126   0.963  14.779 -0.1423  0.3825  0.2542
18632TIP3    H177387   0.036   0.952  14.748  0.6692  2.2389 -2.9282
18632TIP3    H277388   0.164   0.876  14.772 -0.5989  0.3331 -2.0831
18633TIP3   OH277389   0.465   4.728  14.717 -0.1662  0.5735 -0.0506
18633TIP3    H177390   0.455   4.807  14.664  0.7404 -0.5732 -2.0125
18633TIP3    H277391   0.401   4.667  14.680 -0.1440  0.0469  0.7798
18634TIP3   OH277392   4.213   6.762   1.441  0.2411 -0.0095  0.2045
18634TIP3    H177393   4.223   6.674   1.479  1.8222  0.6475  1.3381
18634TIP3    H277394   4.128   6.792   1.472  0.9144 -0.0305  2.1045
18635TIP3   OH277395   6.457   6.367   4.236  0.4182 -0.1637 -0.3054
18635TIP3    H177396   6.431   6.276   4.220 -0.5092  0.0380  0.0294
18635TIP3    H277397   6.546   6.373   4.200 -0.0380 -0.8216 -1.5892
18636TIP3   OH277398   3.821   3.524  13.437  0.3858 -0.3339 -0.3566
18636TIP3    H177399   3.810   3.588  13.366 -1.8634 -2.0039 -1.5736
18636TIP3    H277400   3.735   3.519  13.478  0.9416 -1.4965  0.6956
18637TIP3   OH277401   4.629   4.045  12.341 -0.2850 -0.1654 -0.0116
18637TIP3    H177402   4.711   4.040  12.391  1.0924 -0.2733 -2.1935
18637TIP3    H277403   4.586   3.961  12.357 -0.0627 -0.0429  1.2892
18638TIP3   OH277404   0.161   0.574   5.919 -0.4549 -0.0206 -0.1655
18638TIP3    H177405   0.083   0.569   5.863  0.4897 -0.0524 -1.4941
18638TIP3    H277406   0.162   0.664   5.950 -1.4615 -0.2328  0.4918
18639TIP3   OH277407   6.090   3.254  14.208  0.3902  0.2851  0.7510
18639TIP3    H177408   6.109   3.162  14.221  1.6016  0.3423 -0.4155
18639TIP3    H277409   6.144   3.299  14.273 -1.2562  0.1218  2.2532
18640TIP3   OH277410   6.609   2.816  15.959 -0.4478 -0.8860 -0.4389
18640TIP3    H177411   6.668   2.889  15.939 -1.8424  0.8714  1.6313
18640TIP3    H277412   6.663   2.738  15.947  1.0070  0.4421 -2.9454
18641TIP3   OH277413   0.910   4.425   4.588  0.1107  0.4964  0.0582
18641TIP3    H177414   0.939   4.339   4.618 -1.0917  0.5124  1.2768
18641TIP3    H277415   0.828   4.441   4.634  0.3664  2.3506 -0.0843
18642TIP3   OH277416   2.539   1.559  14.297  0.3151  0.2121 -0.2844
18642TIP3    H177417   2.523   1.471  14.332  0.8718 -0.1689 -0.9740
18642TIP3    H277418   2.571   1.609  14.372 -0.0826 -0.1499  0.1322
18643TIP3   OH277419   1.368   3.326   0.124  0.0862  0.1861  0.0507
18643TIP3    H177420   1.363   3.396   0.059  1.5795  0.0861 -0.1929
18643TIP3    H277421   1.452   3.283   0.106  0.2038 -0.2623  1.6122
18644TIP3   OH277422   3.443   5.216  11.313  0.7451 -0.0980  0.0268
18644TIP3    H177423   3.384   5.257  11.376  1.3274  2.0518 -0.7714
18644TIP3    H277424   3.462   5.286  11.250  1.7162 -1.6454 -1.4221
18645TIP3   OH277425   0.862   5.913   6.213  0.0403  0.1305  0.0869
18645TIP3    H177426   0.872   5.834   6.267 -1.1577 -1.0811 -1.4010
18645TIP3    H277427   0.781   5.953   6.244  0.1058  0.2213  0.1423
18646TIP3   OH277428   3.917   5.571   0.053  0.2446  0.0660 -0.0640
18646TIP3    H177429   3.851   5.517   0.009  1.8895 -0.7879 -1.5691
18646TIP3    H277430   3.883   5.661   0.046 -0.7160 -0.3452 -0.8563
18647TIP3   OH277431   6.501   6.407  13.664 -0.0326 -0.1894  0.6740
18647TIP3    H177432   6.485   6.344  13.733 -0.8622  1.1527  1.7234
18647TIP3    H277433   6.426   6.399  13.606  0.9011 -1.6682 -0.3813
18648TIP3   OH277434   0.948   5.653   3.472  0.3099 -0.3300 -0.4384
18648TIP3    H177435   0.908   5.734   3.501 -0.1345 -0.6050 -0.2783
18648TIP3    H277436   0.881   5.610   3.418  0.4909 -0.6511 -0.4123
18649TIP3   OH277437   1.100   5.965   5.851  0.2194 -0.5167 -0.0728
18649TIP3    H177438   1.098   6.058   5.826 -0.3730 -1.3044 -3.0947
18649TIP3    H277439   1.054   5.962   5.935 -2.4084  1.5255 -1.3690
18650TIP3   OH277440   2.389   2.555  15.064 -0.5000 -0.3432 -0.0343
18650TIP3    H177441   2.348   2.593  15.141  0.8517 -1.2313  1.1557
18650TIP3    H277442   2.425   2.630  15.016  2.2538 -0.0533  2.3457
18651TIP3   OH277443   6.701   0.940   0.287 -0.7542 -0.1185  0.1726
18651TIP3    H177444   6.734   0.851   0.287  0.1425  0.2014 -1.2305
18651TIP3    H277445   6.607   0.932   0.272 -0.6582 -0.8133 -0.0420
18652TIP3   OH277446   5.457   4.742   1.240  0.1713  0.1336  0.0135
18652TIP3    H177447   5.536   4.688   1.238 -0.7488 -1.2471  0.5921
18652TIP3    H277448   5.483   4.823   1.197  1.4942 -0.8804 -1.1643
18653TIP3   OH277449   3.236   1.431   2.019 -0.0805 -0.2648 -0.3864
18653TIP3    H177450   3.327   1.418   2.046 -0.3259 -0.3318  0.4043
18653TIP3    H277451   3.187   1.363   2.065 -0.5621 -0.1092 -0.6659
18654TIP3   OH277452   4.227   0.706  16.799  0.5165 -0.0823 -0.2511
18654TIP3    H177453   4.190   0.644  16.736 -3.5076 -0.3291  2.1905
18654TIP3    H277454   4.256   0.652  16.872  0.2930  0.6172  0.3666
18655TIP3   OH277455   5.468   1.703  16.985 -0.5486 -0.4158 -0.1220
18655TIP3    H177456   5.539   1.675  17.043 -0.5561  0.0368  0.1066
18655TIP3    H277457   5.388   1.677  17.031 -0.5870  0.8800  0.5737
18656TIP3   OH277458   2.815   5.822  12.539 -0.0885  0.1133 -0.6372
18656TIP3    H177459   2.741   5.870  12.501  0.5743  1.6457 -0.0407
18656TIP3    H277460   2.775   5.753  12.591 -1.1612  1.9107  0.9873
18657TIP3   OH277461   2.856   1.562   3.602  0.1773 -0.5125 -0.3150
18657TIP3    H177462   2.904   1.509   3.666 -0.6036  0.0164  0.7242
18657TIP3    H277463   2.772   1.517   3.591 -0.2154  0.1183  0.0487
18658TIP3   OH277464   0.063   5.881  16.586  0.5639  0.1548 -0.2251
18658TIP3    H177465   0.048   5.880  16.491 -2.3361  0.6391  0.1572
18658TIP3    H277466  -0.009   5.828  16.621  1.6140 -0.0117  1.7056
18659TIP3   OH277467   1.184   4.365  12.259  0.1869 -0.0324  0.0563
18659TIP3    H177468   1.207   4.330  12.173  0.4206 -0.6971  0.3936
18659TIP3    H277469   1.251   4.331  12.318 -1.4656 -1.7172  0.9912
18660TIP3   OH277470   5.409   1.362   3.531 -0.9504 -0.0323 -0.6577
18660TIP3    H177471   5.454   1.439   3.496  1.1720 -0.8872  0.1142
18660TIP3    H277472   5.471   1.291   3.519 -2.0370 -1.2136  0.6060
18661TIP3   OH277473   5.790   1.183  17.080 -0.0442  0.7083  0.2393
18661TIP3    H177474   5.722   1.209  17.143  1.6634 -0.0408  2.4837
18661TIP3    H277475   5.866   1.235  17.106  1.0630 -0.5813 -0.3701
18662TIP3   OH277476   3.457   1.238   2.498  0.2000 -0.0527  0.0530
18662TIP3    H177477   3.373   1.210   2.461 -1.0325  1.6333  1.5251
18662TIP3    H277478   3.522   1.200   2.439 -1.4923 -3.2749  0.1552
18663TIP3   OH277479   4.476   2.195  11.795 -0.6095 -0.4381 -0.4416
18663TIP3    H177480   4.511   2.273  11.752  0.9692 -0.3357  1.0130
18663TIP3    H277481   4.381   2.205  11.788 -0.4161 -0.1643 -3.4462
18664TIP3   OH277482   5.190   0.231   5.445 -0.1258 -0.1836 -0.4901
18664TIP3    H177483   5.273   0.241   5.492 -0.0495 -0.8467 -0.4780
18664TIP3    H277484   5.204   0.157   5.385 -1.0293 -0.9697  0.2436
18665TIP3   OH277485   5.277   6.695   5.176 -0.5684 -0.3262  0.1367
18665TIP3    H177486   5.354   6.692   5.233 -0.3634 -0.2093 -0.1310
18665TIP3    H277487   5.234   6.611   5.188 -1.0129  0.0403  1.1310
18666TIP3   OH277488   5.306   2.079  17.011  0.7694  0.1701 -0.1490
18666TIP3    H177489   5.293   2.151  17.072  0.2406  0.8869 -1.1046
18666TIP3    H277490   5.402   2.071  17.004  0.8354  1.7437 -1.1712
18667TIP3   OH277491   0.691   5.160  14.733  0.3150 -0.5294  0.1558
18667TIP3    H177492   0.625   5.218  14.771  1.3689  0.9136 -0.1721
18667TIP3    H277493   0.640   5.097  14.681 -0.8885 -0.3568  1.1043
18668TIP3   OH277494   2.417   3.618  11.064  0.0132 -0.6489 -0.0852
18668TIP3    H177495   2.326   3.603  11.037 -0.0117 -2.9897  1.1697
18668TIP3    H277496   2.469   3.576  10.995  0.1537  0.6605 -0.7870
18669TIP3   OH277497   5.648   2.584   1.038 -0.2952 -0.3969 -0.4353
18669TIP3    H177498   5.743   2.590   1.032 -0.2981 -1.0935 -1.2443
18669TIP3    H277499   5.630   2.490   1.048 -0.9891 -0.4631 -2.1410
18670TIP3   OH277500   4.899   1.344  16.931 -0.1934 -0.0215  0.6021
18670TIP3    H177501   4.809   1.341  16.900 -0.1431  1.3430  0.3088
18670TIP3    H277502   4.893   1.376  17.020  0.0595  0.7572  0.3393
18671TIP3   OH277503   0.595   1.281   6.302 -0.3481 -0.6576 -0.2115
18671TIP3    H177504   0.595   1.234   6.219 -2.2814  1.7913 -1.6723
18671TIP3    H277505   0.597   1.212   6.369  0.5171 -2.6829 -2.2463
18672TIP3   OH277506   6.455   5.284  17.133  0.1648  0.4749  0.3951
18672TIP3    H177507   6.428   5.259  17.221  2.4143  1.6989  1.4643
18672TIP3    H277508   6.548   5.305  17.141 -0.1300  2.8787 -1.7837
18673TIP3   OH277509   3.433   5.104   1.273 -0.1950  0.0707 -0.0375
18673TIP3    H177510   3.365   5.162   1.308  0.8447  1.5410 -0.4241
18673TIP3    H277511   3.427   5.115   1.178  0.5713  0.2151 -0.0741
18674TIP3   OH277512   2.569   1.590  15.027 -0.6014 -0.0734  0.5322
18674TIP3    H177513   2.562   1.685  15.021 -0.5257 -0.0902  0.1658
18674TIP3    H277514   2.484   1.562  15.061 -1.6706 -0.1194 -2.0616
18675TIP3   OH277515   5.251   2.819   2.522 -0.5190 -0.1148  0.4757
18675TIP3    H177516   5.235   2.838   2.429 -1.9216  0.4580  0.8323
18675TIP3    H277517   5.336   2.773   2.522  0.0176  0.8258 -0.9757
18676TIP3   OH277518   0.135   4.903  15.135 -0.9195 -0.0217  0.4980
18676TIP3    H177519   0.179   4.981  15.170  0.6144 -0.7236  0.1579
18676TIP3    H277520   0.061   4.938  15.085 -0.5004  1.1857  0.7038
18677TIP3   OH277521   2.828   0.476  12.156  0.0256  0.5078 -0.2195
18677TIP3    H177522   2.754   0.447  12.209  0.0846  0.3784 -0.2093
18677TIP3    H277523   2.857   0.398  12.110 -0.5270  0.7760 -1.0422
18678TIP3   OH277524   2.512   4.434  11.577 -0.3645 -0.1446  0.6133
18678TIP3    H177525   2.513   4.524  11.609 -2.1934 -0.1894  0.8141
18678TIP3    H277526   2.502   4.442  11.482  0.9115 -0.1217  0.4659
18679TIP3   OH277527   6.099   6.281  14.951  0.0390  0.2233  0.1000
18679TIP3    H177528   6.052   6.347  15.001  0.4866  0.2393  0.5025
18679TIP3    H277529   6.037   6.253  14.883  0.0211  1.4221 -0.3984
18680TIP3   OH277530   2.171   4.058  16.625  0.0793 -0.1450  0.2394
18680TIP3    H177531   2.088   4.019  16.599 -0.3859  0.2538  1.1315
18680TIP3    H277532   2.164   4.072  16.719  0.6009  1.2079  0.0952
18681TIP3   OH277533   1.441   0.616  12.938  0.2680 -0.1376  0.7735
18681TIP3    H177534   1.535   0.634  12.943  0.2175  0.0044  1.2770
18681TIP3    H277535   1.410   0.632  13.027 -0.3381  0.4085  0.4672
18682TIP3   OH277536   2.989   6.093  15.384 -0.2025 -0.1045  0.0885
18682TIP3    H177537   2.989   6.069  15.477  0.7539 -0.6061 -0.0384
18682TIP3    H277538   3.067   6.050  15.348  0.6696  1.9273 -0.4906
18683TIP3   OH277539   0.319   4.649   2.322  0.2769 -0.5280 -0.0381
18683TIP3    H177540   0.274   4.669   2.239  0.5720 -1.8170 -0.5166
18683TIP3    H277541   0.283   4.564   2.348 -0.1524  0.0874  1.4016
18684TIP3   OH277542   1.933   0.852  16.500  0.8290  0.4692 -0.0648
18684TIP3    H177543   1.869   0.860  16.429  1.0445 -0.6557 -0.3973
18684TIP3    H277544   1.998   0.790  16.467  1.4851  0.7304  0.7208
18685TIP3   OH277545   3.878   0.877  13.213  0.0569 -0.0077 -0.0366
18685TIP3    H177546   3.791   0.847  13.185  0.0368  0.1017 -0.0918
18685TIP3    H277547   3.939   0.814  13.175 -0.0882 -0.8345  1.0835
18686TIP3   OH277548   5.367   3.077  16.357 -0.0601  0.2315 -0.0747
18686TIP3    H177549   5.454   3.085  16.397  1.4408 -0.4886 -3.0742
18686TIP3    H277550   5.340   2.987  16.379  0.4670  0.0528 -0.1407
18687TIP3   OH277551   5.864   1.368  15.443 -0.1411 -0.0558 -0.3376
18687TIP3    H177552   5.829   1.453  15.467 -0.9435 -0.1097 -1.2713
18687TIP3    H277553   5.810   1.340  15.369  0.8836 -0.8362 -0.8076
18688TIP3   OH277554   2.707   6.776  15.357  0.7480 -0.4082  0.2866
18688TIP3    H177555   2.747   6.745  15.438  2.2377  0.3669 -0.1397
18688TIP3    H277556   2.665   6.698  15.320  0.0457 -0.7608  1.8013
18689TIP3   OH277557   1.932   4.194  11.232  0.3143 -0.2547  0.5230
18689TIP3    H177558   1.928   4.255  11.158  0.3763  0.7114  1.2932
18689TIP3    H277559   1.925   4.107  11.193  0.2017  0.2524 -0.5982
18690TIP3   OH277560   6.690   5.444   6.418  0.0740 -0.5323  0.0284
18690TIP3    H177561   6.615   5.496   6.389 -0.6150 -0.8579  1.2019
18690TIP3    H277562   6.758   5.509   6.437  0.3681 -0.2839 -1.7688
18691TIP3   OH277563   5.057   0.356  11.082  0.1772 -0.5675  0.5347
18691TIP3    H177564   5.033   0.341  11.174 -1.4330  0.4391  0.3014
18691TIP3    H277565   5.092   0.445  11.081 -0.9154 -0.1368 -0.0174
18692TIP3   OH277566   4.617   1.812   4.735 -0.1854  0.2877  0.1610
18692TIP3    H177567   4.675   1.801   4.810 -0.4673  2.9097  0.7929
18692TIP3    H277568   4.610   1.724   4.697  0.9213 -0.8358  2.4754
18693TIP3   OH277569   6.803   6.072  17.074 -0.8992 -0.2638 -0.0827
18693TIP3    H177570   6.842   5.990  17.102  0.0066  0.3644  0.5339
18693TIP3    H277571   6.808   6.071  16.978 -1.2422 -1.0927 -0.0908
18694TIP3   OH277572   3.854   1.691  16.545  0.5706  0.1664  0.3735
18694TIP3    H177573   3.760   1.705  16.543  0.2855 -1.6412  0.8147
18694TIP3    H277574   3.875   1.655  16.459  0.6239 -0.7970  0.7805
18695TIP3   OH277575   3.701   0.199  13.835 -0.3431  0.0856  0.3705
18695TIP3    H177576   3.634   0.216  13.902  1.7583 -1.0484  2.8602
18695TIP3    H277577   3.671   0.119  13.791 -1.9016  1.0053 -0.2400
18696TIP3   OH277578   1.911   3.032  16.979 -0.6173 -0.4628 -0.0631
18696TIP3    H177579   1.891   3.039  17.073 -0.7944 -0.0084 -0.1311
18696TIP3    H277580   1.938   3.120  16.954  2.3572 -1.2348  0.2250
18697TIP3   OH277581   5.497   4.348  11.882  0.0014  0.2107 -0.4428
18697TIP3    H177582   5.503   4.320  11.791  1.3707 -0.4318 -0.1732
18697TIP3    H277583   5.555   4.425  11.887 -0.3393  0.4518 -0.1936
18698TIP3   OH277584   5.395   5.706  14.246 -0.4134 -0.0849 -0.5949
18698TIP3    H177585   5.444   5.653  14.183  1.4860 -0.9975  1.6212
18698TIP3    H277586   5.429   5.795  14.234 -0.3222 -0.1810 -1.0819
18699TIP3   OH277587   2.763   1.534   3.046 -0.2297  0.5664  0.3238
18699TIP3    H177588   2.782   1.625   3.020 -1.0766  0.2667 -1.3948
18699TIP3    H277589   2.848   1.497   3.066  0.1475  1.6916  0.8499
18700TIP3   OH277590   6.079   0.817   0.447 -0.2524  0.3592 -0.2315
18700TIP3    H177591   6.048   0.760   0.376 -0.4937  0.4666 -0.2109
18700TIP3    H277592   6.048   0.774   0.527  0.3339  0.0414 -0.1712
18701TIP3   OH277593   0.722   1.211  14.529 -0.5136 -0.9394  0.2207
18701TIP3    H177594   0.777   1.264  14.588  0.2127 -2.5063  0.9952
18701TIP3    H277595   0.657   1.171  14.587 -0.4652 -1.6425 -0.2042
18702TIP3   OH277596   2.154   6.220  14.685  0.0156 -0.2180  0.4364
18702TIP3    H177597   2.185   6.271  14.760 -0.0577 -0.6286  0.7464
18702TIP3    H277598   2.146   6.131  14.718 -1.0012 -0.2188  0.2252
18703TIP3   OH277599   6.155   5.645  12.655 -0.2357 -0.0351 -0.3686
18703TIP3    H177600   6.118   5.571  12.704  0.0643 -0.6418 -1.0459
18703TIP3    H277601   6.104   5.648  12.574 -1.1793  1.3883  0.2641
18704TIP3   OH277602   5.038   6.642  11.702  0.5016 -0.2355  0.0157
18704TIP3    H177603   4.960   6.605  11.742 -0.4251  0.9947 -0.6137
18704TIP3    H277604   5.107   6.629  11.767 -0.1476 -1.6257  0.4325
18705TIP3   OH277605   0.189   4.902  16.095 -0.0630 -0.0306 -0.2820
18705TIP3    H177606   0.221   4.895  16.005 -1.0293  0.5049 -0.6836
18705TIP3    H277607   0.141   4.820  16.109 -0.5632  0.2181 -0.5263
18706TIP3   OH277608   1.721   2.531   3.717 -0.2779 -0.8270 -0.0247
18706TIP3    H177609   1.799   2.491   3.755  0.4878  0.8182  0.1906
18706TIP3    H277610   1.660   2.540   3.791  0.2399  0.0495  0.3010
18707TIP3   OH277611   5.126   0.110   0.839  0.0216 -0.2828 -0.6103
18707TIP3    H177612   5.042   0.128   0.882  0.1914 -0.6358 -0.1164
18707TIP3    H277613   5.191   0.126   0.907  0.4911  1.8777 -1.5596
18708TIP3   OH277614   3.708   2.105  10.714  0.2602 -0.0720  0.0974
18708TIP3    H177615   3.739   2.192  10.687 -0.5537  1.1301  2.7786
18708TIP3    H277616   3.618   2.121  10.744 -1.3179 -2.5950 -3.0575
18709TIP3   OH277617   0.082   2.003  16.477  0.3972 -0.7337 -0.4350
18709TIP3    H177618   0.137   1.946  16.531 -0.3183  0.6200  1.7865
18709TIP3    H277619   0.089   2.089  16.517 -0.4750  0.2449 -2.2994
18710TIP3   OH277620   1.133   0.364   1.514  0.2620  0.1317 -0.5918
18710TIP3    H177621   1.204   0.299   1.504 -0.3637 -0.5598 -0.5727
18710TIP3    H277622   1.156   0.434   1.454  0.9661 -0.0960 -0.5961
18711TIP3   OH277623   3.081   1.622   1.252 -0.0559 -0.3550  0.0358
18711TIP3    H177624   3.172   1.650   1.258  0.3634 -1.2945 -1.6191
18711TIP3    H277625   3.085   1.535   1.211 -1.6596 -0.6044  0.3634
18712TIP3   OH277626   2.049   1.715  17.110  0.2089 -0.0501 -0.1433
18712TIP3    H177627   2.066   1.621  17.098  1.0971  0.1940 -0.8825
18712TIP3    H277628   2.059   1.730  17.204  1.6259 -0.4044 -0.2252
18713TIP3   OH277629   5.207   2.623   0.826 -0.7234 -0.2093  0.2375
18713TIP3    H177630   5.119   2.661   0.814 -0.0237  0.8461 -1.7372
18713TIP3    H277631   5.258   2.694   0.864 -1.0101 -1.2261  2.6221
18714TIP3   OH277632   1.909   5.417  16.797  0.4832  0.5321 -0.0962
18714TIP3    H177633   1.974   5.464  16.850  0.8064 -0.4024  0.3456
18714TIP3    H277634   1.825   5.441  16.835  0.7126 -0.1120  0.8191
18715TIP3   OH277635   3.983   1.663   4.842  0.0026 -0.0353 -0.4388
18715TIP3    H177636   4.061   1.718   4.839 -0.8337  1.1577 -0.4890
18715TIP3    H277637   3.986   1.623   4.930  0.3674  0.4341 -0.2369
18716TIP3   OH277638   1.140   6.284   4.393 -0.0818  0.5504 -0.5508
18716TIP3    H177639   1.192   6.300   4.315  0.2516 -1.2236 -0.7063
18716TIP3    H277640   1.053   6.260   4.360 -0.7820  2.6289 -0.3062
18717TIP3   OH277641   6.077   3.765   1.017 -0.0272 -0.1609 -0.2705
18717TIP3    H177642   5.982   3.757   1.007  0.1985  0.8811 -4.0683
18717TIP3    H277643   6.089   3.830   1.086 -2.1837  1.7686 -1.6276
18718TIP3   OH277644   2.977   0.096   5.639  0.4298 -0.2760 -0.1817
18718TIP3    H177645   3.065   0.127   5.662  1.0042 -2.1198  0.2170
18718TIP3    H277646   2.991   0.041   5.561 -0.3336 -0.7731  0.0270
18719TIP3   OH277647   5.374   6.538   3.039  0.1507 -0.2905 -0.1724
18719TIP3    H177648   5.359   6.619   2.991  1.6417  0.9124  1.3500
18719TIP3    H277649   5.399   6.475   2.971  1.2350  1.1147 -1.1251
18720TIP3   OH277650   6.167   1.775   0.239  0.3320  0.2381 -0.1180
18720TIP3    H177651   6.176   1.864   0.274  1.0668  1.1100 -2.4296
18720TIP3    H277652   6.197   1.718   0.311  0.2304  1.8629  1.2491
18721TIP3   OH277653   0.947   2.111   2.242  0.0865 -0.4009 -0.1582
18721TIP3    H177654   1.008   2.040   2.222 -0.3267 -0.4766 -1.2031
18721TIP3    H277655   0.934   2.106   2.336  1.1918 -0.7942 -0.0204
18722TIP3   OH277656   1.212   2.529   2.792 -0.2862 -0.6933 -0.1505
18722TIP3    H177657   1.142   2.593   2.804  0.9400  0.5100  0.7924
18722TIP3    H277658   1.167   2.449   2.766 -1.8838  0.4576 -1.0690
18723TIP3   OH277659   5.115   5.418  10.344  0.0276  0.4198  0.3484
18723TIP3    H177660   5.079   5.423  10.432 -0.4259  2.2516  0.0773
18723TIP3    H277661   5.209   5.401  10.357  0.3206  2.5862  1.2540
18724TIP3   OH277662   2.714   3.659  13.762 -0.1379  0.2560  0.0322
18724TIP3    H177663   2.658   3.599  13.714 -0.9491  2.6510 -2.1137
18724TIP3    H277664   2.803   3.631  13.741 -0.5042 -0.8688 -0.0351
18725TIP3   OH277665   0.764   1.561   3.433 -0.2595 -0.3263 -0.0192
18725TIP3    H177666   0.796   1.520   3.352 -0.7412 -2.4808  0.8423
18725TIP3    H277667   0.771   1.655   3.417  1.8892 -0.7310 -1.6839
18726TIP3   OH277668   2.162   5.352   6.048 -0.3146 -0.2589  0.3274
18726TIP3    H177669   2.194   5.271   6.010 -0.7958  0.7368 -2.2765
18726TIP3    H277670   2.186   5.346   6.141  1.5570 -2.3956 -0.2587
18727TIP3   OH277671   6.533   2.984  17.101  0.6667  0.0114 -0.6998
18727TIP3    H177672   6.476   2.944  17.036  0.7660  0.0137 -0.7861
18727TIP3    H277673   6.472   3.025  17.163  0.5956  3.8065 -3.1475
18728TIP3   OH277674   5.644   4.836   3.691  0.0522  0.4215 -0.1521
18728TIP3    H177675   5.578   4.820   3.624  0.3164 -0.7667 -0.1491
18728TIP3    H277676   5.614   4.913   3.737 -0.5869  0.7366 -1.0824
18729TIP3   OH277677   2.796   5.613  10.876 -0.2817 -0.0919  0.1310
18729TIP3    H177678   2.814   5.615  10.970  0.0900 -1.2511  0.0928
18729TIP3    H277679   2.865   5.559  10.840 -0.4855  0.2719 -0.8055
18730TIP3   OH277680   2.339   0.382  14.748  0.3642 -0.0347 -0.6887
18730TIP3    H177681   2.285   0.326  14.692 -1.5814 -0.1906  1.2797
18730TIP3    H277682   2.291   0.464  14.753  1.4219  0.5975 -0.6522
18731TIP3   OH277683   0.208   0.717   2.347  0.2993  0.1842  0.0504
18731TIP3    H177684   0.266   0.690   2.419  0.2186 -0.3270 -0.0706
18731TIP3    H277685   0.250   0.793   2.309  0.7871 -0.0604  0.0964
18732TIP3   OH277686   4.197   0.672   5.016 -0.4728  0.1328 -0.2616
18732TIP3    H177687   4.135   0.725   4.966  1.8077  2.5502 -0.6221
18732TIP3    H277688   4.245   0.623   4.950 -0.4631 -0.0048 -0.1506
18733TIP3   OH277689   3.732   2.574   1.432  0.0869  0.0645 -0.5647
18733TIP3    H177690   3.711   2.656   1.477 -0.7211 -0.6525  0.3986
18733TIP3    H277691   3.783   2.601   1.356  1.4183  1.3178  0.7292
18734TIP3   OH277692   5.843   2.254  11.582 -0.3296  1.0079 -0.1839
18734TIP3    H177693   5.892   2.304  11.517 -0.4249 -0.3765 -1.3437
18734TIP3    H277694   5.752   2.282  11.571 -0.7953 -1.2321 -2.6180
18735TIP3   OH277695   4.512   3.194  10.876 -0.1484 -0.1111  0.0625
18735TIP3    H177696   4.592   3.213  10.925 -0.4017  0.2949  0.3296
18735TIP3    H277697   4.469   3.125  10.927  0.2667 -0.6666 -0.3437
18736TIP3   OH277698   4.603   3.695   3.459 -0.2655  0.2436 -0.0927
18736TIP3    H177699   4.512   3.701   3.488 -1.0924 -1.9361 -2.0958
18736TIP3    H277700   4.621   3.601   3.455  0.9572  0.5430 -3.0183
18737TIP3   OH277701   5.763   4.658  16.262 -0.0586 -0.4664 -0.0296
18737TIP3    H177702   5.747   4.621  16.175 -0.6433  0.4421 -0.3170
18737TIP3    H277703   5.696   4.617  16.318  0.4701 -1.2335  0.0550
18738TIP3   OH277704   6.085   3.536   5.686  0.3211 -0.5730 -0.4773
18738TIP3    H177705   6.179   3.544   5.703 -0.2363  0.8536  2.1686
18738TIP3    H277706   6.054   3.473   5.751 -0.7782  0.0308 -0.4028
18739TIP3   OH277707   2.969   0.442   0.313  0.3123  0.5204  0.0744
18739TIP3    H177708   2.983   0.459   0.406  0.3907 -1.5585  0.4732
18739TIP3    H277709   2.982   0.348   0.304 -1.4938  0.4031 -1.7244
18740TIP3   OH277710   0.908   5.915   5.114 -0.0166 -0.2242 -0.4065
18740TIP3    H177711   0.914   5.980   5.044  2.1747  0.8875  0.7466
18740TIP3    H277712   0.997   5.881   5.122 -0.9957 -2.8880 -0.5108
18741TIP3   OH277713   3.566   6.573   1.915  0.5515 -0.0512 -0.4925
18741TIP3    H177714   3.556   6.486   1.877 -0.0917 -0.6014  0.9134
18741TIP3    H277715   3.606   6.558   2.000 -1.5912  0.8119  0.7142
18742TIP3   OH277716   4.344   0.331   4.783 -0.3726 -0.4915  0.8006
18742TIP3    H177717   4.299   0.368   4.707 -0.3759 -1.5981  0.2530
18742TIP3    H277718   4.376   0.407   4.831  0.9792  0.1993 -1.1213
18743TIP3   OH277719   1.091   1.467   0.938 -0.4169 -0.0455  0.7293
18743TIP3    H177720   1.126   1.465   0.849 -2.6730  3.9769 -0.3272
18743TIP3    H277721   1.025   1.397   0.939  0.5903 -1.0481 -0.2646
18744TIP3   OH277722   5.892   5.040   1.624  0.0372 -0.4244  0.2275
18744TIP3    H177723   5.856   5.036   1.535 -0.2171  1.7521  0.1889
18744TIP3    H277724   5.815   5.043   1.680  0.1829 -0.6421  0.4354
18745TIP3   OH277725   0.551   1.135  14.833  0.0605  0.1386  0.3650
18745TIP3    H177726   0.458   1.159  14.832  0.6238  2.4650 -2.5851
18745TIP3    H277727   0.590   1.196  14.896 -0.1070  0.3429  0.2712
18746TIP3   OH277728   2.631   1.663  14.600  0.9270  0.5463  0.4846
18746TIP3    H177729   2.634   1.748  14.644  2.2806 -0.3153  2.0900
18746TIP3    H277730   2.553   1.621  14.634  1.7699  0.0312  1.8293
18747TIP3   OH277731   4.350   2.051   4.513  0.1757 -0.1218  0.3057
18747TIP3    H177732   4.368   1.964   4.478  0.4934  0.2598 -0.4904
18747TIP3    H277733   4.365   2.043   4.607 -0.0131 -0.9831  0.2620
18748TIP3   OH277734   3.374   0.010  15.014 -0.5640 -0.5723  0.6394
18748TIP3    H177735   3.395  -0.014  15.104  1.2926 -2.8885 -0.3682
18748TIP3    H277736   3.426  -0.050  14.960 -1.0873  1.2514 -1.9823
18749TIP3   OH277737   4.325   4.225  13.438  0.2762  0.6040  0.1250
18749TIP3    H177738   4.405   4.183  13.470 -0.7489 -0.6378  1.1267
18749TIP3    H277739   4.333   4.316  13.464  0.4498  0.0607  2.0655
18750TIP3   OH277740   4.760   6.345  14.981 -0.1253 -0.2637  0.5074
18750TIP3    H177741   4.713   6.355  15.064 -1.6780 -1.9482 -0.1075
18750TIP3    H277742   4.830   6.409  14.985  0.8165 -1.3775  3.7997
18751TIP3   OH277743   5.467   0.029   3.234 -0.1597 -0.2285 -0.0374
18751TIP3    H177744   5.458   0.111   3.186  1.4359  0.7266  1.2342
18751TIP3    H277745   5.377   0.005   3.259 -0.7336  0.5671 -1.3106
18752TIP3   OH277746   5.914   4.559   4.758 -0.0150  0.5630  0.0871
18752TIP3    H177747   5.988   4.530   4.812 -0.3599 -1.8888 -0.7090
18752TIP3    H277748   5.836   4.534   4.808 -0.3248 -0.5225 -0.9131
18753TIP3   OH277749   6.001   6.261   4.990  0.0895  0.6748 -0.3644
18753TIP3    H177750   6.072   6.250   5.054 -0.2706 -0.9324 -0.2156
18753TIP3    H277751   5.995   6.356   4.978  1.7645  0.8799  0.1732
18754TIP3   OH277752   1.964   4.836  10.891  0.2710 -0.3566  0.2287
18754TIP3    H177753   1.923   4.908  10.842 -0.7983 -0.0287  1.6009
18754TIP3    H277754   2.028   4.880  10.948 -0.5761 -0.4568  1.2666
18755TIP3   OH277755   6.340   5.515  15.799  0.7351  0.2259 -0.4721
18755TIP3    H177756   6.259   5.471  15.826  1.1089  0.0635  0.3981
18755TIP3    H277757   6.387   5.531  15.881  2.2123 -0.9066 -1.0767
18756TIP3   OH277758   3.548   2.314   1.682 -0.1031 -0.2217  0.3319
18756TIP3    H177759   3.621   2.277   1.633 -1.0912 -0.5134 -0.9414
18756TIP3    H277760   3.474   2.255   1.663 -0.9305  0.6706  0.7485
18757TIP3   OH277761   4.625   0.119   3.405 -0.1530 -0.2647 -0.6615
18757TIP3    H177762   4.623   0.207   3.443  1.7745 -0.6528  0.3879
18757TIP3    H277763   4.597   0.062   3.477 -3.7756 -0.3290 -2.0284
18758TIP3   OH277764   2.869   0.936   4.535  0.3355  0.2082 -0.5967
18758TIP3    H177765   2.832   0.848   4.539 -0.1849  0.4829  0.8556
18758TIP3    H277766   2.823   0.978   4.461 -2.1709  0.4842  1.0567
18759TIP3   OH277767   4.413   0.707  16.573  0.3530  0.2924  0.3205
18759TIP3    H177768   4.371   0.746  16.650  1.0005  0.0734  0.7875
18759TIP3    H277769   4.431   0.781  16.516  1.5479  0.6921  1.1924
18760TIP3   OH277770   6.390   3.304  10.639  0.3534  0.3778  0.0871
18760TIP3    H177771   6.332   3.230  10.624 -1.5035  1.6536  0.7915
18760TIP3    H277772   6.361   3.341  10.723  1.4551  1.7007 -0.0880
18761TIP3   OH277773   4.201   4.693  15.423 -0.0829 -0.4348  0.9134
18761TIP3    H177774   4.105   4.690  15.419 -0.0832  0.4866 -0.2071
18761TIP3    H277775   4.229   4.622  15.365 -0.0911 -1.1882  1.8373
18762TIP3   OH277776   4.843   3.228  12.889  0.3843  0.2561  0.3238
18762TIP3    H177777   4.887   3.247  12.972  1.0081 -2.9589  0.7886
18762TIP3    H277778   4.756   3.198  12.915 -0.2490  1.4683 -0.3372
18763TIP3   OH277779   3.922   2.355   5.528  0.1724  0.3876 -0.1238
18763TIP3    H177780   3.826   2.359   5.525  0.2436  3.7529  0.2129
18763TIP3    H277781   3.948   2.435   5.574  3.2047  0.4781 -1.8424
18764TIP3   OH277782   2.812   5.475   1.679 -0.2008 -0.0919  0.5231
18764TIP3    H177783   2.769   5.516   1.604 -0.0538 -0.5508  0.1888
18764TIP3    H277784   2.763   5.507   1.755  0.5379  1.5027  0.3531
18765TIP3   OH277785   6.404   3.618  16.311 -0.1276  0.7020 -0.2147
18765TIP3    H177786   6.345   3.689  16.337 -2.7254 -0.2523 -3.1999
18765TIP3    H277787   6.412   3.563  16.389 -2.1931  1.5384  0.6009
18766TIP3   OH277788   1.586   1.481   4.603  0.2051  0.1765  0.2192
18766TIP3    H177789   1.539   1.474   4.686  1.4702 -0.6372  0.8929
18766TIP3    H277790   1.538   1.546   4.553 -0.0749  1.3246  1.9398
18767TIP3   OH277791   1.733   6.428  14.177  0.1173 -0.3391 -0.1855
18767TIP3    H177792   1.820   6.387  14.184  0.1884  0.1348  2.1817
18767TIP3    H277793   1.752   6.521  14.163 -0.0280 -0.3833 -0.6961
18768TIP3   OH277794   3.135   1.640   0.499 -0.4860 -0.2871  0.7438
18768TIP3    H177795   3.087   1.683   0.428 -2.8362 -2.3612  1.0186
18768TIP3    H277796   3.186   1.710   0.539  0.2841  1.0626 -2.4966
18769TIP3   OH277797   0.797   4.169  15.420 -0.6740  0.2943  0.2202
18769TIP3    H177798   0.741   4.094  15.441 -0.9599 -0.1793 -2.0563
18769TIP3    H277799   0.736   4.239  15.397 -0.3881 -0.0112 -1.5681
18770TIP3   OH277800   0.695   4.446  11.771  0.3996 -0.5129 -0.2367
18770TIP3    H177801   0.624   4.382  11.766  0.5597 -0.5957 -1.5378
18770TIP3    H277802   0.689   4.495  11.689  0.3008  1.1257  0.7168
18771TIP3   OH277803   2.547   2.483  13.154  0.6550  0.0171  0.0809
18771TIP3    H177804   2.523   2.576  13.162 -0.1634 -0.2696  1.0454
18771TIP3    H277805   2.469   2.442  13.116  1.9468  0.1415 -2.8535
18772TIP3   OH277806   6.688   4.017  11.568 -0.0671 -0.1200  0.1146
18772TIP3    H177807   6.670   3.984  11.479  0.1331  0.7162 -0.2392
18772TIP3    H277808   6.656   4.107  11.567 -0.7210 -0.3404  1.1267
18773TIP3   OH277809   0.704   5.889   0.760 -0.5244 -0.4723  0.3826
18773TIP3    H177810   0.731   5.814   0.706 -2.4909 -1.6274  0.9848
18773TIP3    H277811   0.787   5.930   0.786  0.4969 -0.4482 -2.7132
18774TIP3   OH277812   2.083   0.845   3.349  0.0947  0.2583  0.1068
18774TIP3    H177813   1.997   0.885   3.331  1.0105  1.3697 -1.9967
18774TIP3    H277814   2.131   0.913   3.396  0.5096  0.4278 -0.5455
18775TIP3   OH277815   5.514   4.107  16.204 -0.2427  0.3780  0.2196
18775TIP3    H177816   5.420   4.112  16.220 -0.4047 -2.3831  0.2372
18775TIP3    H277817   5.523   4.052  16.126  1.3811  0.5180  0.2820
18776TIP3   OH277818   4.674   0.232  17.169  0.7440  0.3893  0.0135
18776TIP3    H177819   4.600   0.183  17.134  0.6913  1.0848 -0.8675
18776TIP3    H277820   4.662   0.229  17.264  1.5075 -2.4716  0.0773
18777TIP3   OH277821   2.948   3.069   1.482 -0.4858  0.4467 -0.6682
18777TIP3    H177822   2.881   3.006   1.507  1.6091 -1.8818 -0.6977
18777TIP3    H277823   2.992   3.029   1.407  2.4333  0.7616  0.7972
18778TIP3   OH277824   6.390   1.821  15.218  0.4132 -0.2016  0.3990
18778TIP3    H177825   6.337   1.842  15.296 -1.2295  1.1865 -1.0445
18778TIP3    H277826   6.325   1.800  15.150  1.7822 -0.1311 -0.9506
18779TIP3   OH277827   4.150   0.169   4.863  0.7907 -0.3800  0.2859
18779TIP3    H177828   4.218   0.223   4.823 -1.4107  3.0263  0.9697
18779TIP3    H277829   4.157   0.186   4.957 -1.8239  1.1696  0.2700
18780TIP3   OH277830   2.215   3.199   5.550 -0.2890  0.0280 -0.5799
18780TIP3    H177831   2.197   3.162   5.636 -2.8017 -0.3996 -1.2436
18780TIP3    H277832   2.265   3.132   5.504 -1.3061 -0.8796 -0.3785
18781TIP3   OH277833   3.341   5.635  16.206 -0.8205  0.0759 -0.3117
18781TIP3    H177834   3.363   5.546  16.234 -0.3364  0.3130  0.0543
18781TIP3    H277835   3.333   5.685  16.287  1.6562  1.0120 -0.6023
18782TIP3   OH277836   3.443   2.924  14.316 -0.1786  0.1290  0.4919
18782TIP3    H177837   3.398   2.919  14.400 -1.8535 -0.5983 -0.4335
18782TIP3    H277838   3.461   3.017  14.303 -3.5259  0.7214 -0.2159
18783TIP3   OH277839   0.375   5.990  14.022  0.7097  0.8837 -0.1178
18783TIP3    H177840   0.364   6.070  14.073  1.7981  0.8775  0.1419
18783TIP3    H277841   0.470   5.973  14.024  0.4554 -0.5880  0.1138
18784TIP3   OH277842   3.020   6.276  11.447  0.0331  0.4176  0.3508
18784TIP3    H177843   2.947   6.224  11.411  0.3879  0.1882 -0.0409
18784TIP3    H277844   3.090   6.212  11.459  0.7697  0.9528 -0.9499
18785TIP3   OH277845   4.416   3.629   1.132 -0.7640  0.2071  0.5693
18785TIP3    H177846   4.502   3.654   1.167 -0.7117 -0.2952  0.8111
18785TIP3    H277847   4.368   3.711   1.124  0.5496  0.7683 -1.7852
18786TIP3   OH277848   2.878   3.819  15.968  0.6057  0.1078  0.3703
18786TIP3    H177849   2.886   3.734  15.924  2.1274 -0.3704  1.5378
18786TIP3    H277850   2.788   3.820  16.001 -0.3021  0.1243 -1.9814
18787TIP3   OH277851   5.770   3.671  16.891  0.4095 -0.3013 -0.0121
18787TIP3    H177852   5.784   3.595  16.948  1.4884 -0.4267 -0.4227
18787TIP3    H277853   5.812   3.743  16.936 -1.3019  0.2434  0.7572
18788TIP3   OH277854   3.507   2.696  14.161  0.2823  0.5304 -0.2857
18788TIP3    H177855   3.448   2.747  14.217  1.7871  1.4360  0.5105
18788TIP3    H277856   3.567   2.760  14.124  1.5443 -0.5208 -0.1057
18789TIP3   OH277857   2.487   6.764   0.701 -0.4264  0.1955 -0.5586
18789TIP3    H177858   2.442   6.772   0.785 -0.3526 -0.1218 -0.4893
18789TIP3    H277859   2.528   6.850   0.688  0.2749 -0.0165  0.1377
18790TIP3   OH277860   6.434   1.508  12.715  0.0688 -0.9269 -0.3384
18790TIP3    H177861   6.373   1.435  12.729 -1.2622  0.6433  2.5106
18790TIP3    H277862   6.512   1.484  12.765  0.8503 -1.7537 -1.9019
18791TIP3   OH277863   6.060   0.435  10.689  0.5862 -0.1072 -0.2195
18791TIP3    H177864   5.966   0.422  10.690  0.2127  2.2649  1.7499
18791TIP3    H277865   6.092   0.386  10.765  0.8898 -0.6234 -0.6794
18792TIP3   OH277866   6.550   4.206  11.351  0.1023  0.1097  0.5756
18792TIP3    H177867   6.543   4.159  11.268 -1.2280 -0.4368  0.9749
18792TIP3    H277868   6.469   4.183  11.398  0.9226  0.2794  2.0877
18793TIP3   OH277869   1.416   3.950  12.049  0.0576 -0.0912 -0.4112
18793TIP3    H177870   1.432   3.868  12.002 -0.4490  0.3460 -1.3722
18793TIP3    H277871   1.360   3.925  12.123  1.0398 -0.8211  0.0985
18794TIP3   OH277872   4.229   5.204  13.242 -0.3993  0.1353 -0.3279
18794TIP3    H177873   4.278   5.203  13.324 -2.6083 -0.5856  1.0269
18794TIP3    H277874   4.222   5.297  13.219 -1.5590  0.5120  1.4408
18795TIP3   OH277875   1.791   0.061  12.871  0.6355 -0.7375 -0.1638
18795TIP3    H177876   1.734   0.076  12.796 -0.1121  1.2943  0.7862
18795TIP3    H277877   1.879   0.057  12.834  0.3389  0.8676 -1.0966
18796TIP3   OH277878   1.881   0.693  15.891 -0.3036  0.2694 -0.0575
18796TIP3    H177879   1.831   0.746  15.954 -1.2495  0.1506 -0.6962
18796TIP3    H277880   1.946   0.754  15.856 -0.7390  0.7426 -0.0523
18797TIP3   OH277881   5.926   5.787   2.277  0.4512  0.0273  0.3015
18797TIP3    H177882   5.914   5.808   2.185  0.4674  0.1959  0.3379
18797TIP3    H277883   5.928   5.692   2.280 -0.8297 -0.0010  0.2892
18798TIP3   OH277884   4.286   0.571  15.752  0.3368  0.0732 -0.2641
18798TIP3    H177885   4.240   0.487  15.753  1.8520 -0.7910  1.4053
18798TIP3    H277886   4.353   0.560  15.685  2.4480 -1.1919  1.9673
18799TIP3   OH277887   4.892   1.287   3.418 -0.2599  0.1231 -0.0504
18799TIP3    H177888   4.975   1.273   3.372 -0.8331 -0.2295 -0.9724
18799TIP3    H277889   4.825   1.265   3.354 -1.0585 -1.0292  1.1543
18800TIP3   OH277890   6.720   6.641  14.554 -0.7730  0.1568 -0.1929
18800TIP3    H177891   6.698   6.552  14.581  1.7362 -0.5128 -0.2920
18800TIP3    H277892   6.707   6.641  14.459  1.6621 -0.8610 -0.5524
18801TIP3   OH277893   3.587   5.417  11.186  0.0230 -0.2464 -0.9553
18801TIP3    H177894   3.660   5.451  11.237 -0.7843 -0.8655  0.6551
18801TIP3    H277895   3.608   5.439  11.095  0.3843  2.9829 -0.1601
18802TIP3   OH277896   0.479   3.316  15.721 -0.0981 -0.1895  0.0578
18802TIP3    H177897   0.474   3.411  15.715  1.6836 -0.1458 -1.0667
18802TIP3    H277898   0.516   3.298  15.807 -1.8327  0.0611  0.8803
18803TIP3   OH277899   2.523   0.593   5.720 -0.4480 -0.8688 -0.1669
18803TIP3    H177900   2.614   0.602   5.693 -0.3083 -1.9271 -0.0399
18803TIP3    H277901   2.507   0.499   5.721 -1.3400 -0.7127  0.4986
18804TIP3   OH277902   2.198   6.122  13.604 -0.3475  0.8270  0.0497
18804TIP3    H177903   2.273   6.178  13.622 -0.5362  0.7849  1.0126
18804TIP3    H277904   2.123   6.181  13.601 -0.1983  0.9548 -1.5779
18805TIP3   OH277905   4.943   1.850   2.027  0.3547  0.2786 -0.8624
18805TIP3    H177906   5.021   1.796   2.040  0.6217  0.7342 -0.5731
18805TIP3    H277907   4.977   1.937   2.003 -0.0280  0.8541  0.6416
18806TIP3   OH277908   6.096   6.308   0.129  0.8759 -0.3582  0.3035
18806TIP3    H177909   6.160   6.327   0.060  0.2223  2.0063  0.3299
18806TIP3    H277910   6.022   6.365   0.110 -0.7090 -2.1156  1.0548
18807TIP3   OH277911   0.459   1.960  11.583 -0.4856  0.8056  0.5451
18807TIP3    H177912   0.436   1.970  11.491 -0.9171  0.9177  0.6652
18807TIP3    H277913   0.382   1.921  11.624  0.7547 -2.0576  0.2978
18808TIP3   OH277914   2.801   2.278  11.281  0.1973 -0.1339 -0.6088
18808TIP3    H177915   2.851   2.282  11.199  0.7053  0.1705 -0.2853
18808TIP3    H277916   2.717   2.319  11.259  0.6589  0.7609 -0.7453
18809TIP3   OH277917   3.996   6.075  11.402  0.4238 -0.1582  0.1891
18809TIP3    H177918   4.088   6.095  11.383 -0.1721  1.2222 -1.3139
18809TIP3    H277919   3.957   6.057  11.317 -0.5473 -1.4953  0.8977
18810TIP3   OH277920   1.776   1.919   0.689 -1.0585  0.4729 -0.1071
18810TIP3    H177921   1.765   1.886   0.600  0.5980  1.0052 -0.5226
18810TIP3    H277922   1.712   1.991   0.696 -1.3232  0.3030 -0.7901
18811TIP3   OH277923   2.823   2.370  16.717  0.4775 -0.1177  0.3976
18811TIP3    H177924   2.868   2.302  16.666  1.4836  0.9380 -0.1543
18811TIP3    H277925   2.771   2.321  16.781  2.4912 -1.3945  1.1284
18812TIP3   OH277926   6.172   5.891  14.958  0.0160 -0.1467  0.3668
18812TIP3    H177927   6.265   5.868  14.951  0.1878  0.7465 -0.3875
18812TIP3    H277928   6.172   5.973  15.007 -0.4909 -0.9767  1.7830
18813TIP3   OH277929   5.283   4.180  16.469 -0.6331  0.1083  0.1141
18813TIP3    H177930   5.303   4.273  16.477 -1.6355  0.3039  0.3944
18813TIP3    H277931   5.194   4.178  16.433  0.0332 -0.7343 -1.5313
18814TIP3   OH277932   4.600   5.221   3.565  0.3367 -0.5128 -0.3258
18814TIP3    H177933   4.596   5.254   3.476 -0.4967  0.6249  0.1178
18814TIP3    H277934   4.522   5.165   3.574  0.2252 -0.3422 -0.2111
18815TIP3   OH277935   5.824   1.764  10.950  0.1027 -0.1762  0.0917
18815TIP3    H177936   5.903   1.715  10.931  0.8557  0.0877  2.4117
18815TIP3    H277937   5.758   1.729  10.890  2.0736 -0.0485 -2.2196
18816TIP3   OH277938   5.813   0.889   0.599 -0.3048  0.0921 -0.5922
18816TIP3    H177939   5.807   0.795   0.580 -1.3548 -0.3321  1.6863
18816TIP3    H277940   5.726   0.913   0.630  0.7744  1.1648  1.6774
18817TIP3   OH277941   3.016   3.379   2.729 -0.7760 -0.3364 -0.1915
18817TIP3    H177942   2.957   3.449   2.759 -2.1941 -1.0531 -1.2720
18817TIP3    H277943   3.063   3.417   2.656 -1.0010 -0.2517 -0.2941
18818TIP3   OH277944   2.481   6.241  12.759 -0.4154 -0.1298 -0.1955
18818TIP3    H177945   2.465   6.312  12.698 -1.5489  0.3723  0.6717
18818TIP3    H277946   2.575   6.246  12.777 -0.5327  1.3312  0.0645
18819TIP3   OH277947   5.346   0.425   6.589 -0.7820  0.9444 -0.6430
18819TIP3    H177948   5.424   0.416   6.533 -0.2817  0.8647  0.0595
18819TIP3    H277949   5.294   0.347   6.571  1.5132 -1.3820  2.2807
18820TIP3   OH277950   5.886   2.054  16.472  0.4702 -0.0966  0.3216
18820TIP3    H177951   5.797   2.030  16.498 -0.3730  1.3745 -1.1030
18820TIP3    H277952   5.934   2.062  16.555 -1.1139  0.5543  1.1997
18821TIP3   OH277953   5.672   5.489   4.801 -0.0445 -0.2055  0.0475
18821TIP3    H177954   5.650   5.442   4.720  0.0881  1.4391 -0.9686
18821TIP3    H277955   5.763   5.466   4.818 -0.4229 -1.5039  0.4107
18822TIP3   OH277956   3.701   3.966   0.919  1.1490  0.0638 -0.3269
18822TIP3    H177957   3.625   4.021   0.905  0.9090 -0.2015 -0.0810
18822TIP3    H277958   3.681   3.917   0.999  2.3233  1.3029  0.7791
18823TIP3   OH277959   2.265   4.286  12.827 -0.7708 -0.1058 -0.1738
18823TIP3    H177960   2.337   4.228  12.802  0.1754  1.3436 -0.8645
18823TIP3    H277961   2.213   4.294  12.747  0.0876  1.3926 -0.6094
18824TIP3   OH277962   1.017   1.259   3.741 -0.0600 -0.5526 -0.1337
18824TIP3    H177963   1.002   1.287   3.832  1.3504  0.9480 -0.3394
18824TIP3    H277964   0.935   1.278   3.697  0.3432  1.9788  0.0816
18825TIP3   OH277965   1.269   1.162  12.787 -0.1643  0.7280 -0.4262
18825TIP3    H177966   1.333   1.164  12.858  0.9202  2.1386 -1.4172
18825TIP3    H277967   1.262   1.253  12.758 -0.7152  0.1914 -2.0213
18826TIP3   OH277968   0.976   6.684   3.241  0.5299  0.3734 -0.3742
18826TIP3    H177969   0.993   6.642   3.325  0.0522 -0.8359 -0.8761
18826TIP3    H277970   0.983   6.778   3.260 -1.5523  0.2013  1.4532
18827TIP3   OH277971   5.957   4.905   2.967  0.0380  0.0419  0.3753
18827TIP3    H177972   5.944   4.814   2.941 -0.2640  0.0153  0.6133
18827TIP3    H277973   5.967   4.901   3.063 -0.3318  0.2960  0.4240
18828TIP3   OH277974   5.900   3.583  11.595  0.1215  0.4103  0.2488
18828TIP3    H177975   5.870   3.652  11.653  0.3513 -0.3025  1.2381
18828TIP3    H277976   5.833   3.577  11.527  1.3489  3.3286 -1.3387
18829TIP3   OH277977   4.038   2.003   2.246 -0.0165  0.4163  0.4170
18829TIP3    H177978   4.125   1.983   2.212 -0.1554 -0.9582  0.8228
18829TIP3    H277979   4.055   2.045   2.331  0.2370 -2.6180  1.9291
18830TIP3   OH277980   2.627   5.328   1.469  0.1312  0.0591 -0.1326
18830TIP3    H177981   2.563   5.272   1.513  0.3784  1.1018  1.5911
18830TIP3    H277982   2.631   5.295   1.379 -1.1518 -1.4400  0.3578
18831TIP3   OH277983   0.077   2.191  12.502 -0.1396 -0.2807 -0.1356
18831TIP3    H177984   0.029   2.159  12.426  0.6924  1.6644 -1.5055
18831TIP3    H277985   0.140   2.122  12.523  1.4047  0.2589 -2.8299
18832TIP3   OH277986   3.630   2.882  10.786  0.1109 -0.3514  0.6062
18832TIP3    H177987   3.562   2.817  10.805 -1.0222  0.2782 -1.1830
18832TIP3    H277988   3.703   2.831  10.751 -0.1707 -0.8343  0.7079
18833TIP3   OH277989   0.832   2.697   1.967 -0.2359  0.2232  0.0519
18833TIP3    H177990   0.924   2.721   1.960  0.5299 -2.3349  0.5159
18833TIP3    H277991   0.805   2.727   2.054  0.3352  0.4285  0.1583
18834TIP3   OH277992   4.070   3.003  13.984 -0.2034  0.4770 -0.5227
18834TIP3    H177993   4.030   2.954  14.055  0.5330 -0.6400 -0.8602
18834TIP3    H277994   4.056   2.949  13.906  0.5541  0.8312 -0.9151
18835TIP3   OH277995   0.800   3.217   4.411 -0.1112 -0.4406 -0.2979
18835TIP3    H177996   0.854   3.198   4.334 -0.9470 -1.1058 -0.7222
18835TIP3    H277997   0.748   3.293   4.385  0.4306  0.0470  0.0233
18836TIP3   OH277998   2.829   6.168   6.377  0.2109 -0.2489 -0.1871
18836TIP3    H177999   2.900   6.204   6.431 -1.5689  2.4018  0.4524
18836TIP3    H278000   2.791   6.099   6.431  0.6927  0.0085  0.4978
18837TIP3   OH278001   0.309   5.477  16.185  0.0124 -0.6845 -0.0589
18837TIP3    H178002   0.342   5.450  16.099  2.1980  0.0740  0.5077
18837TIP3    H278003   0.321   5.572  16.186  2.8268 -1.0140  2.1975
18838TIP3   OH278004   4.389   3.522   1.591  0.5258  1.0252 -0.2701
18838TIP3    H178005   4.398   3.469   1.512 -0.8254  2.1218 -1.1882
18838TIP3    H278006   4.476   3.524   1.629  1.1959  0.5093 -1.7500
18839TIP3   OH278007   5.186   2.739  15.740 -0.0688 -0.2070  0.4125
18839TIP3    H178008   5.144   2.656  15.762 -1.0710  0.5832  1.5466
18839TIP3    H278009   5.157   2.799  15.808  0.5859  1.1009 -0.4421
18840TIP3   OH278010   6.656   3.214  15.435  0.2252 -0.1890  0.2430
18840TIP3    H178011   6.601   3.279  15.478  1.3967  1.0818 -0.1421
18840TIP3    H278012   6.742   3.256  15.430  1.1559 -2.0335  0.5894
18841TIP3   OH278013   0.898   1.577  15.349  0.1651 -0.6357  0.1960
18841TIP3    H178014   0.989   1.601  15.370  0.4958 -0.7164 -1.1120
18841TIP3    H278015   0.867   1.530  15.426  1.5479 -1.4504  0.2598
18842TIP3   OH278016   0.423   5.279  16.622  0.3548 -0.3293 -0.0953
18842TIP3    H178017   0.377   5.259  16.703 -2.9680 -0.9089 -1.9875
18842TIP3    H278018   0.468   5.197  16.599 -0.5612 -0.8889  0.0540
18843TIP3   OH278019   3.570   2.616   1.741  0.2982 -0.0803  0.2546
18843TIP3    H178020   3.616   2.533   1.733 -1.6409 -1.2407  0.7682
18843TIP3    H278021   3.477   2.593   1.731 -0.1611  2.2567 -1.4397
18844TIP3   OH278022   1.147   2.089   2.900  0.1114 -0.2096 -0.2351
18844TIP3    H178023   1.087   2.016   2.887 -0.1934  0.0384 -0.2428
18844TIP3    H278024   1.096   2.154   2.947 -0.4894  1.0982 -2.5835
18845TIP3   OH278025   5.134   6.172   4.243  0.2453 -0.4167 -0.2720
18845TIP3    H178026   5.150   6.094   4.296 -0.4793  0.3799  1.1302
18845TIP3    H278027   5.055   6.211   4.280  0.0158  0.4396 -1.6070
18846TIP3   OH278028   4.263   4.828  17.190  0.1343 -1.1362  0.9802
18846TIP3    H178029   4.233   4.833  17.281 -0.0673 -0.2591  0.8649
18846TIP3    H278030   4.358   4.838  17.196  0.1004 -0.8672  1.0779
18847TIP3   OH278031   2.754   4.372  16.719  0.1909 -0.0418  0.4923
18847TIP3    H178032   2.845   4.400  16.713  0.5892 -0.7970  2.5815
18847TIP3    H278033   2.758   4.277  16.729 -0.7675  0.0162  1.5662
18848TIP3   OH278034   1.460   1.363  17.175 -0.4885  0.4722 -0.1913
18848TIP3    H178035   1.533   1.360  17.237 -0.7689 -1.1479  0.0690
18848TIP3    H278036   1.385   1.393  17.227 -0.2483  1.1549 -0.2327
18849TIP3   OH278037   5.657   3.840   5.975 -0.0964  0.2765  0.2803
18849TIP3    H178038   5.595   3.903   6.013 -0.7471  0.4037 -0.9690
18849TIP3    H278039   5.604   3.764   5.952  0.3266  0.1101 -0.1685
18850TIP3   OH278040   4.416   5.509  12.909 -0.4918  0.3667  0.0876
18850TIP3    H178041   4.329   5.547  12.921 -0.3748  0.4360  0.7426
18850TIP3    H278042   4.476   5.580  12.933 -0.2701 -0.2372  1.3839
18851TIP3   OH278043   2.547   0.095  15.931 -0.1103 -0.1783  0.3347
18851TIP3    H178044   2.517   0.062  16.016  0.5905  0.3999  0.8193
18851TIP3    H278045   2.501   0.179  15.920 -0.2369 -0.2762  0.1259
18852TIP3   OH278046   0.511   4.501   0.347  0.1957 -0.4676  0.0770
18852TIP3    H178047   0.535   4.593   0.359 -1.1736  0.0219 -0.7578
18852TIP3    H278048   0.435   4.488   0.404  0.0717 -0.9318 -0.1852
18853TIP3   OH278049   4.354   3.807   1.783 -0.2438  0.6922  0.1123
18853TIP3    H178050   4.398   3.723   1.798 -0.9560  0.2766 -0.1179
18853TIP3    H278051   4.321   3.832   1.869  1.8837  1.8489  0.6516
18854TIP3   OH278052   4.368   6.024   2.836  0.1892  0.3492 -0.0457
18854TIP3    H178053   4.387   6.084   2.764  1.5039  0.7161  0.5797
18854TIP3    H278054   4.442   6.036   2.897 -0.0322 -1.1936  0.5461
18855TIP3   OH278055   1.031   6.523   2.060 -0.4256  0.4365 -0.0401
18855TIP3    H178056   0.959   6.523   2.123 -0.3123 -0.7338  0.1106
18855TIP3    H278057   1.043   6.615   2.037 -1.3992  0.7323  0.5824
18856TIP3   OH278058   2.233   0.196   2.025 -0.3054  0.2727 -0.7477
18856TIP3    H178059   2.242   0.130   1.957 -3.8448 -0.2974 -0.7621
18856TIP3    H278060   2.230   0.279   1.977  1.3300  0.2234 -0.9467
18857TIP3   OH278061   2.780   6.027   4.393 -0.0323  0.2592  0.1552
18857TIP3    H178062   2.813   6.103   4.440 -1.6860 -0.2991  2.3182
18857TIP3    H278063   2.849   6.004   4.331  0.1438  4.0325 -1.1535
18858TIP3   OH278064   4.190   5.554   0.088  0.1285  0.0480  0.5500
18858TIP3    H178065   4.216   5.645   0.097 -1.1387  0.3789  1.0411
18858TIP3    H278066   4.115   5.556   0.028 -0.1678 -0.6117  0.8922
18859TIP3   OH278067   3.505   6.202   4.645  0.1068  0.5894 -0.5796
18859TIP3    H178068   3.431   6.150   4.615  1.1311 -1.2915  0.0197
18859TIP3    H278069   3.577   6.177   4.586  0.9838  0.1899  0.6371
18860TIP3   OH278070   3.128   4.194   0.260  0.0977 -0.3606 -0.1334
18860TIP3    H178071   3.057   4.137   0.231 -0.4708  0.1747  0.1911
18860TIP3    H278072   3.084   4.267   0.303  0.8778 -0.4233  0.7828
18861TIP3   OH278073   5.216   0.383  10.498 -0.4101 -0.3619 -0.7177
18861TIP3    H178074   5.301   0.346  10.524 -0.7131 -0.8165 -0.3699
18861TIP3    H278075   5.229   0.410  10.407  0.1509 -0.2961 -0.6198
18862TIP3   OH278076   1.591   2.488   5.130  0.2246 -0.2800 -0.0668
18862TIP3    H178077   1.586   2.464   5.223 -0.1891  0.9733  0.2461
18862TIP3    H278078   1.577   2.406   5.083  1.0981 -1.0506  0.9801
18863TIP3   OH278079   5.380   0.772   3.549 -0.2444  0.0783  0.0487
18863TIP3    H178080   5.351   0.774   3.640  0.1209  3.2581  0.1395
18863TIP3    H278081   5.306   0.808   3.500  0.1825 -0.1207 -0.7413
18864TIP3   OH278082   5.988   6.024   3.728  0.5847 -0.3406  0.1052
18864TIP3    H178083   6.030   6.067   3.654  2.5526 -0.3130  1.1870
18864TIP3    H278084   5.975   6.094   3.793 -1.9272 -0.1899 -0.5226
18865TIP3   OH278085   4.368   1.510  16.174 -0.3447  0.0862 -0.0371
18865TIP3    H178086   4.457   1.486  16.201  0.0343  0.2928 -1.1015
18865TIP3    H278087   4.375   1.602  16.148 -0.9581  0.2216  0.2648
18866TIP3   OH278088   1.632   3.045  16.476  0.1069 -0.0618 -0.0698
18866TIP3    H178089   1.600   3.121  16.525 -0.8504 -0.3019 -0.3159
18866TIP3    H278090   1.613   2.970  16.534 -0.4033 -0.2748 -0.5092
18867TIP3   OH278091   3.903   5.611  10.970  0.1377 -0.1312  0.1697
18867TIP3    H178092   3.816   5.605  10.931 -0.4521  0.0303  1.4553
18867TIP3    H278093   3.904   5.696  11.014  1.2419  0.2336 -0.5361
18868TIP3   OH278094   5.670   5.453  12.788  0.2632  0.2848  0.2212
18868TIP3    H178095   5.732   5.492  12.849 -0.2623  1.4545  0.0199
18868TIP3    H278096   5.585   5.463  12.830  0.0015  0.2728 -0.3060
18869TIP3   OH278097   1.471   3.494   1.475 -1.0479 -0.3876  0.0248
18869TIP3    H178098   1.452   3.478   1.568 -1.0802 -0.6325 -0.0233
18869TIP3    H278099   1.387   3.484   1.431 -1.1590  0.3911  0.0546
18870TIP3   OH278100   4.270   4.317   0.549  0.0882  0.1805 -0.5201
18870TIP3    H178101   4.346   4.374   0.558  1.3325 -1.6937  1.1237
18870TIP3    H278102   4.305   4.234   0.519 -1.4532 -0.3698 -0.8622
18871TIP3   OH278103   3.387   3.178  13.410  0.0204 -0.0730 -0.1607
18871TIP3    H178104   3.356   3.195  13.322 -0.6884 -0.1338  0.0743
18871TIP3    H278105   3.482   3.175  13.402 -0.0658 -0.6820 -1.0305
18872TIP3   OH278106   5.882   3.620  12.121 -0.1257 -0.5287 -0.1208
18872TIP3    H178107   5.869   3.553  12.054 -3.6258 -1.7425  1.6943
18872TIP3    H278108   5.831   3.695  12.091 -1.1402 -0.8335  0.7948
18873TIP3   OH278109   3.182   0.857   0.126  0.5375 -0.3244  0.1183
18873TIP3    H178110   3.177   0.879   0.033 -0.2172 -0.8416  0.0293
18873TIP3    H278111   3.115   0.790   0.138 -0.4222  0.8143  1.3393
18874TIP3   OH278112   5.277   5.559   0.539 -0.0271  0.2090 -0.1376
18874TIP3    H178113   5.263   5.484   0.597 -0.6315 -0.2295 -0.8323
18874TIP3    H278114   5.351   5.606   0.577  2.2912 -2.3613 -1.3363
18875TIP3   OH278115   2.591   5.770  12.292  0.0022  0.2801 -0.1509
18875TIP3    H178116   2.604   5.712  12.217  1.5288  0.7145 -0.2502
18875TIP3    H278117   2.497   5.788  12.294 -0.1571 -0.4120 -1.4503
18876TIP3   OH278118   1.332   4.057  14.380 -0.3981  0.4235 -0.2040
18876TIP3    H178119   1.403   4.056  14.315  0.0378 -2.1157  0.2599
18876TIP3    H278120   1.372   4.093  14.459  0.0792  0.0021 -0.2537
18877TIP3   OH278121   4.379   1.735   6.590  0.3130 -0.1375 -0.1821
18877TIP3    H178122   4.421   1.741   6.676 -0.0340 -2.7341  0.1861
18877TIP3    H278123   4.290   1.769   6.604 -0.3453 -2.2618  0.9266
18878TIP3   OH278124   3.200   4.431  12.303 -0.9988 -0.1612  0.1351
18878TIP3    H178125   3.239   4.367  12.244  1.0978  0.8608  0.3867
18878TIP3    H278126   3.162   4.378  12.373  1.1869 -1.1500  0.6224
18879TIP3   OH278127   3.688   3.227  11.481  0.6125 -0.1109 -0.0628
18879TIP3    H178128   3.714   3.318  11.468  2.3538 -0.1791  2.5992
18879TIP3    H278129   3.616   3.232  11.544 -1.0735 -0.4117 -1.9490
18880TIP3   OH278130   5.981   1.553  11.964 -0.4039  0.2675 -0.3419
18880TIP3    H178131   5.980   1.541  12.059 -0.4593 -1.2370 -0.5332
18880TIP3    H278132   5.968   1.647  11.952  2.2758  0.9006  1.2322
18881TIP3   OH278133   2.402   5.815   0.263 -0.4348  0.1708 -0.0198
18881TIP3    H178134   2.484   5.806   0.214  0.7127  1.0971  1.6755
18881TIP3    H278135   2.382   5.909   0.258 -0.2730  0.2812  1.3211
18882TIP3   OH278136   1.195   3.092  11.063  0.5087 -0.3540 -0.1222
18882TIP3    H178137   1.138   3.168  11.050  2.9693  1.3591 -1.3712
18882TIP3    H278138   1.210   3.058  10.975  1.9610 -0.3596  0.1156
18883TIP3   OH278139   2.650   1.310   6.117  0.3938 -0.4012  0.5688
18883TIP3    H178140   2.725   1.328   6.173 -0.3605 -0.9764  1.7731
18883TIP3    H278141   2.665   1.222   6.083 -0.7943 -1.3889  2.5430
18884TIP3   OH278142   3.502   0.841  11.854  0.1310 -0.3825 -0.5484
18884TIP3    H178143   3.554   0.886  11.920  0.2458  2.2320 -2.3434
18884TIP3    H278144   3.540   0.754  11.848  1.7911  0.2135  0.9232
18885TIP3   OH278145   6.000   2.465  11.437 -0.6176  0.1221 -0.4418
18885TIP3    H178146   5.949   2.531  11.391 -0.5143 -0.0027 -0.7378
18885TIP3    H278147   6.033   2.408  11.367  2.7742  2.1645 -0.5862
18886TIP3   OH278148   3.039   2.785  14.844 -0.1013 -0.4721  0.2471
18886TIP3    H178149   3.049   2.770  14.749 -1.2387  0.6062 -0.0426
18886TIP3    H278150   3.112   2.842  14.867  0.0348 -0.5397 -0.0127
18887TIP3   OH278151   1.827   3.319   3.645 -0.5369 -0.3298 -0.1979
18887TIP3    H178152   1.878   3.239   3.654  0.9276  0.5044 -0.8056
18887TIP3    H278153   1.807   3.325   3.551 -0.1558  0.2988 -0.2435
18888TIP3   OH278154   1.219   2.348   3.296 -0.9356 -0.2887  0.1251
18888TIP3    H178155   1.213   2.370   3.203 -0.6056 -0.8907 -0.0421
18888TIP3    H278156   1.254   2.427   3.336 -0.5242 -0.2180 -0.3543
18889TIP3   OH278157   3.508   6.592   4.377  0.6746  0.3783  0.9315
18889TIP3    H178158   3.511   6.637   4.462 -1.2590  0.2235  1.0874
18889TIP3    H278159   3.597   6.600   4.343  1.7274 -0.3892  3.3976
18890TIP3   OH278160   0.100   3.265  15.404  0.1370  0.1426  0.2577
18890TIP3    H178161   0.111   3.244  15.497 -0.0602  0.0279  0.2549
18890TIP3    H278162   0.181   3.311  15.381  0.9693 -1.4173  0.0226
18891TIP3   OH278163   4.018   6.586  13.405  0.2010  0.0038  0.6389
18891TIP3    H178164   4.052   6.557  13.490 -0.3593 -0.3092  0.7575
18891TIP3    H278165   3.979   6.671  13.423  1.1410  0.4859  0.4495
18892TIP3   OH278166   1.179   6.426   3.784  0.8683  0.5073 -0.2083
18892TIP3    H178167   1.219   6.509   3.810  1.6237  0.1368 -0.1618
18892TIP3    H278168   1.253   6.373   3.753  0.5310 -0.4614  0.6072
18893TIP3   OH278169   5.491   6.186   2.123  0.5711 -0.1125  0.6999
18893TIP3    H178170   5.431   6.135   2.070 -0.9061 -1.4234  3.5097
18893TIP3    H278171   5.523   6.255   2.064  0.4649 -2.5845 -2.3598
18894TIP3   OH278172   1.114   2.785   1.923  0.8362 -0.3326  0.5920
18894TIP3    H178173   1.075   2.855   1.871 -0.4338 -0.0844  1.8652
18894TIP3    H278174   1.175   2.830   1.981  2.8841 -0.6922 -1.2089
18895TIP3   OH278175   6.540   1.732   1.939 -0.5249 -0.1549 -0.1909
18895TIP3    H178176   6.454   1.691   1.927 -0.5168 -0.5426  0.9636
18895TIP3    H278177   6.544   1.750   2.033  0.6073 -0.0086 -0.2666
18896TIP3   OH278178   1.623   0.351   2.940  0.4287 -0.4456  0.0320
18896TIP3    H178179   1.620   0.286   2.870 -1.5871 -0.3469  0.0171
18896TIP3    H278180   1.575   0.311   3.012 -1.5549  1.3387 -0.2600
18897TIP3   OH278181   2.429   6.426  16.092  0.0508  0.5882 -0.1221
18897TIP3    H178182   2.401   6.481  16.165  1.5966  0.8589  0.2768
18897TIP3    H278183   2.446   6.340  16.131  0.4638  0.6119 -0.2546
18898TIP3   OH278184   3.430   5.087   0.994 -0.8273 -0.4460 -0.1708
18898TIP3    H178185   3.482   5.013   0.963 -0.2196 -0.6529  1.3008
18898TIP3    H278186   3.452   5.158   0.933 -0.5732 -1.1593 -0.9272
18899TIP3   OH278187   6.178   2.887   2.208  0.1820  0.1015 -0.5093
18899TIP3    H178188   6.135   2.972   2.210 -0.3067 -0.1470  0.3320
18899TIP3    H278189   6.257   2.900   2.156 -1.4916  0.3011 -3.0578
18900TIP3   OH278190   4.261   6.031   1.508  0.5338  0.1583  0.5906
18900TIP3    H178191   4.313   6.062   1.582  1.6022  0.0471 -0.1094
18900TIP3    H278192   4.220   5.950   1.539  1.2328 -0.0533  0.9481
18901TIP3   OH278193   2.293   4.404  16.029  0.3335 -0.3192  0.4047
18901TIP3    H178194   2.221   4.465  16.014  0.9016  0.5685  1.1824
18901TIP3    H278195   2.267   4.324  15.984 -0.3468  0.5521 -0.7677
18902TIP3   OH278196   1.813   1.136  15.269  0.5224  0.6532  0.4144
18902TIP3    H178197   1.785   1.140  15.360 -1.2732 -1.8960  0.0298
18902TIP3    H278198   1.732   1.118  15.220  2.0012 -1.7033 -1.2717
18903TIP3   OH278199   4.499   5.968  16.217 -1.0190 -0.2932 -0.1433
18903TIP3    H178200   4.440   5.893  16.217  1.3455 -2.1868 -0.5452
18903TIP3    H278201   4.530   5.975  16.307 -0.9920  0.0273 -0.1745
18904TIP3   OH278202   3.168   4.551   2.718  0.3402 -0.0726  0.2404
18904TIP3    H178203   3.213   4.467   2.712  1.6302  0.7156 -1.6817
18904TIP3    H278204   3.078   4.532   2.692  0.0890 -1.2218  1.8439
18905TIP3   OH278205   3.009   1.922  10.472  0.5411 -0.2808  0.5914
18905TIP3    H178206   2.977   2.004  10.434  0.4240 -0.6073 -0.0342
18905TIP3    H278207   2.935   1.889  10.523  0.7074  0.1756  1.1229
18906TIP3   OH278208   2.246   6.628   2.773  0.4725 -0.4196  0.1173
18906TIP3    H178209   2.248   6.539   2.739  0.1260 -0.0258 -0.9429
18906TIP3    H278210   2.281   6.682   2.702 -1.5169  0.5781 -0.1208
18907TIP3   OH278211   2.675   6.688   1.328 -0.1112  0.3153 -0.2288
18907TIP3    H178212   2.737   6.753   1.360 -1.8968  1.5805  0.7605
18907TIP3    H278213   2.701   6.607   1.372 -2.1740  1.9060  4.2673
18908TIP3   OH278214   6.403   5.288  12.776  0.4199  0.6985 -0.2641
18908TIP3    H178215   6.325   5.263  12.825  1.0104  0.1898  0.4303
18908TIP3    H278216   6.466   5.312  12.843  1.3683 -0.3804 -0.7527
18909TIP3   OH278217   4.106   6.754  16.406  0.1359  0.5748 -0.0271
18909TIP3    H178218   4.056   6.835  16.397 -1.4659 -0.4419 -0.5675
18909TIP3    H278219   4.149   6.744  16.321  0.3595  0.8895  0.0519
18910TIP3   OH278220   6.329   1.112   2.578 -0.1869 -0.0657 -0.1827
18910TIP3    H178221   6.261   1.139   2.516 -1.3858 -1.7748  0.3291
18910TIP3    H278222   6.408   1.104   2.526 -1.1295 -1.2486 -1.4563
18911TIP3   OH278223   1.608   4.300  14.996  0.1366  0.2207 -0.6521
18911TIP3    H178224   1.656   4.303  15.078 -0.0226  1.1373 -0.5851
18911TIP3    H278225   1.607   4.391  14.965 -0.3975 -0.0028 -1.3144
18912TIP3   OH278226   5.870   4.109   3.447 -0.6396  0.5173 -0.6092
18912TIP3    H178227   5.837   4.186   3.401  1.3286  1.0016 -1.2498
18912TIP3    H278228   5.879   4.042   3.380  0.7333  0.7380 -0.6597
18913TIP3   OH278229   5.323   3.003  13.427 -0.1774  0.1727  0.5457
18913TIP3    H178230   5.383   3.050  13.370 -0.9068 -0.0053 -0.3834
18913TIP3    H278231   5.342   2.910  13.412 -0.7758  0.1134  0.1412
18914TIP3   OH278232   1.807   2.053  14.262 -0.1155  0.0536  0.0304
18914TIP3    H178233   1.892   2.010  14.257 -0.3451 -0.6424  1.6855
18914TIP3    H278234   1.750   1.998  14.208 -0.1603 -1.1538  1.2750
18915TIP3   OH278235   0.979   4.347   4.203  0.4820  0.2687 -0.4630
18915TIP3    H178236   0.889   4.380   4.215 -0.6138 -2.4850 -0.8796
18915TIP3    H278237   0.998   4.364   4.110  0.7594  1.6894 -0.1579
18916TIP3   OH278238   6.318   3.603   4.423  0.1308 -0.7053 -0.5313
18916TIP3    H178239   6.233   3.563   4.404 -0.0658 -0.3001 -0.5180
18916TIP3    H278240   6.333   3.664   4.351  1.9540 -3.1481 -2.3048
18917TIP3   OH278241   0.904   3.766  14.403  0.6941  0.1708  0.4001
18917TIP3    H178242   0.953   3.848  14.405  0.1686  0.5412 -1.1270
18917TIP3    H278243   0.815   3.790  14.430 -0.1330  0.6275 -2.5588
18918TIP3   OH278244   2.867   3.398  14.987  0.5808  0.0947  0.0488
18918TIP3    H178245   2.942   3.346  15.015  0.0851 -0.9068 -0.4518
18918TIP3    H278246   2.816   3.338  14.932  0.4860  1.3931 -1.3099
18919TIP3   OH278247   1.867   1.270  11.073  0.5109 -0.0509  0.1417
18919TIP3    H178248   1.808   1.318  11.014  0.1612  1.0984  1.4016
18919TIP3    H278249   1.813   1.249  11.149  1.5329  0.3893  1.0041
18920TIP3   OH278250   1.122   3.969  13.656 -0.0894 -0.4198 -0.4417
18920TIP3    H178251   1.113   4.063  13.638 -0.6414 -0.9130 -2.8492
18920TIP3    H278252   1.209   3.961  13.696 -0.6767  1.2957  1.3029
18921TIP3   OH278253   1.639   0.916   0.804 -0.6744  0.0215 -0.3815
18921TIP3    H178254   1.596   0.930   0.720  0.2904  0.7462 -0.7701
18921TIP3    H278255   1.624   0.997   0.853  0.5753  0.4446 -0.6786
18922TIP3   OH278256   3.065   1.422  15.450 -0.8304  0.0428  0.0098
18922TIP3    H178257   2.996   1.360  15.473  0.1752 -0.7969  0.8226
18922TIP3    H278258   3.118   1.430  15.530  0.5475 -0.0518 -0.8764
18923TIP3   OH278259   6.538   5.001  14.540 -0.2261  0.6078  0.0403
18923TIP3    H178260   6.514   5.092  14.522 -2.7054  0.0716  0.4680
18923TIP3    H278261   6.506   4.984  14.628  1.6173 -0.2509  0.5902
18924TIP3   OH278262   3.590   2.625  14.879  0.5300  0.2721  0.5247
18924TIP3    H178263   3.629   2.541  14.902 -0.9810 -0.4486  0.4642
18924TIP3    H278264   3.636   2.652  14.799  3.1329  0.9832  2.2022
18925TIP3   OH278265   4.092   5.373   1.199 -0.6572 -0.1374  0.1747
18925TIP3    H178266   4.087   5.404   1.108  0.2370 -1.7354 -0.4551
18925TIP3    H278267   4.001   5.373   1.229 -1.0039  0.1148 -0.8389
18926TIP3   OH278268   0.251   2.071  11.375  0.2486 -0.4055 -0.3162
18926TIP3    H178269   0.230   2.000  11.313 -1.2698 -2.1813  2.1335
18926TIP3    H278270   0.182   2.065  11.441  1.2561  2.1207  0.9999
18927TIP3   OH278271   5.626   1.590  15.936 -0.3330 -0.2090 -0.5024
18927TIP3    H178272   5.701   1.549  15.979 -0.0874  1.5325  0.8098
18927TIP3    H278273   5.550   1.557  15.983 -0.1146  1.0296  0.7824
18928TIP3   OH278274   6.131   3.917   1.777  0.6603 -0.2795 -0.6508
18928TIP3    H178275   6.075   3.970   1.721  1.4256  0.1320 -1.0363
18928TIP3    H278276   6.134   3.832   1.733  0.2283 -0.3475 -0.5528
18929TIP3   OH278277   3.694   0.081   3.711 -0.1599  0.2473 -0.4611
18929TIP3    H178278   3.622   0.029   3.677 -0.6613 -0.5158  1.7139
18929TIP3    H278279   3.653   0.160   3.746  0.4225  1.3317 -2.1478
18930TIP3   OH278280   2.364   3.926   3.643  0.2851  0.5976 -1.2303
18930TIP3    H178281   2.418   3.847   3.649 -0.7311 -0.0923 -0.9657
18930TIP3    H278282   2.315   3.928   3.726 -1.1681  0.4170 -2.0753
18931TIP3   OH278283   3.902   5.532   2.310 -0.3793  0.8577  0.6061
18931TIP3    H178284   3.878   5.536   2.402  3.4463 -0.5123  1.7647
18931TIP3    H278285   3.910   5.438   2.291  3.4899  1.1929  0.2569
18932TIP3   OH278286   5.444   6.045   5.349 -0.4331  0.7183  0.7221
18932TIP3    H178287   5.431   6.108   5.278 -0.5855 -0.2836 -0.1516
18932TIP3    H278288   5.382   6.073   5.417 -0.1531  1.7972  0.5449
18933TIP3   OH278289   0.875   2.188   5.792 -0.2759 -0.1864  0.0800
18933TIP3    H178290   0.875   2.228   5.705  0.2346 -3.4472 -1.5323
18933TIP3    H278291   0.892   2.260   5.852  0.0644  2.0503 -2.5959
18934TIP3   OH278292   4.687   1.193   0.538  0.3217 -0.4377  0.0279
18934TIP3    H178293   4.635   1.154   0.608 -0.0802 -0.5531 -0.3333
18934TIP3    H278294   4.637   1.176   0.458 -0.1103  1.2185 -0.0899
18935TIP3   OH278295   0.618   2.366  10.140  0.8826  0.3056  0.3326
18935TIP3    H178296   0.541   2.385  10.192  0.6215  0.8573 -0.2414
18935TIP3    H278297   0.625   2.271  10.139  1.2137  0.3143  1.8321
18936TIP3   OH278298   2.886   5.631   3.063 -0.3332 -0.4320 -0.1618
18936TIP3    H178299   2.920   5.720   3.047 -0.4189 -0.5825 -1.2186
18936TIP3    H278300   2.964   5.575   3.057 -0.0414 -0.2931  1.8896
18937TIP3   OH278301   3.610   5.556  12.584 -0.0093  0.0304  0.6289
18937TIP3    H178302   3.611   5.471  12.540 -1.3228  0.2824  0.0942
18937TIP3    H278303   3.517   5.582  12.584  0.4074  1.5419  0.6411
18938TIP3   OH278304   4.464   4.948   3.194 -0.1815 -0.7869  0.5050
18938TIP3    H178305   4.515   5.011   3.245  0.4291 -2.0231  1.4717
18938TIP3    H278306   4.373   4.966   3.218  0.0292 -0.6605  1.2355
18939TIP3   OH278307   1.507   1.726   2.370  0.1028 -0.1277 -0.4920
18939TIP3    H178308   1.470   1.694   2.452  0.1378 -0.4763 -0.6109
18939TIP3    H278309   1.586   1.673   2.358 -0.3814 -0.6900 -1.2062
18940TIP3   OH278310   4.752   1.069   4.560  0.6171 -0.0180 -0.1409
18940TIP3    H178311   4.697   0.992   4.542  0.9715 -0.5301  0.9690
18940TIP3    H278312   4.692   1.132   4.600  0.7474 -0.4188  0.6814
18941TIP3   OH278313   2.853   1.790   0.565  0.1360  0.6077 -0.6728
18941TIP3    H178314   2.822   1.826   0.648  0.8275 -1.1978  0.3906
18941TIP3    H278315   2.948   1.785   0.574  0.2750  1.0020 -1.8237
18942TIP3   OH278316   4.227   5.472   1.655 -0.2730 -0.1019  0.2826
18942TIP3    H178317   4.204   5.380   1.665  2.1463 -0.7251  0.5803
18942TIP3    H278318   4.192   5.515   1.733 -1.8472 -0.6546 -0.1076
18943TIP3   OH278319   3.174   2.607   5.857 -0.4299 -0.0465  0.1793
18943TIP3    H178320   3.079   2.599   5.851 -0.4909  0.6411  0.0847
18943TIP3    H278321   3.201   2.629   5.768 -0.4634  2.2408  0.6840
18944TIP3   OH278322   3.551   0.951  12.387  0.2484 -0.0136  0.2218
18944TIP3    H178323   3.457   0.943  12.406  0.0505  0.0675 -0.7116
18944TIP3    H278324   3.577   0.864  12.356  0.5115 -0.0683  0.5903
18945TIP3   OH278325   0.138   1.968  16.222  0.1764 -0.5288  0.0641
18945TIP3    H178326   0.128   1.955  16.317  0.3993  0.3593  0.2108
18945TIP3    H278327   0.192   2.046  16.214  2.6753 -2.2692 -0.7877
18946TIP3   OH278328   6.355   6.149  10.783  0.0983 -0.0651  0.1241
18946TIP3    H178329   6.417   6.221  10.789  0.0781 -0.0061 -0.3218
18946TIP3    H278330   6.330   6.130  10.874  1.5137 -0.7506  0.3832
18947TIP3   OH278331   0.182   4.442   3.974  0.0271 -0.0887 -0.3857
18947TIP3    H178332   0.149   4.520   3.929 -1.6149 -0.2060  0.5848
18947TIP3    H278333   0.109   4.380   3.971  0.8070 -1.0456  0.1586
18948TIP3   OH278334   3.133   2.153   0.054  0.3025 -0.5429 -0.4816
18948TIP3    H178335   3.064   2.128   0.116 -2.1171  1.5217 -2.2692
18948TIP3    H278336   3.166   2.069   0.020 -0.3105 -1.5891  1.4384
18949TIP3   OH278337   3.147   3.963  11.412 -0.7411 -0.7606  0.1592
18949TIP3    H178338   3.077   4.009  11.365  2.4156  2.9493 -1.2204
18949TIP3    H278339   3.182   4.027  11.473  3.0158 -1.6301 -0.9143
18950TIP3   OH278340   3.445   5.524  12.148  0.5073 -0.2490  0.7014
18950TIP3    H178341   3.380   5.484  12.091  1.2319 -0.3875 -0.0365
18950TIP3    H278342   3.414   5.613  12.164 -0.1212 -0.4831  0.7769
18951TIP3   OH278343   3.295   0.523  12.123 -0.5369  0.6323 -0.1803
18951TIP3    H178344   3.274   0.605  12.168 -1.0598  0.9720 -1.0229
18951TIP3    H278345   3.390   0.519  12.124 -0.5078  1.2403 -0.0961
18952TIP3   OH278346   3.009   6.174  16.859 -0.2633 -0.4837 -0.5707
18952TIP3    H178347   2.981   6.136  16.943  0.6274 -1.3807 -0.6653
18952TIP3    H278348   2.982   6.109  16.794  1.1474 -0.9107 -0.7477
18953TIP3   OH278349   5.115   6.655   3.117  0.0579 -0.2528  0.1925
18953TIP3    H178350   5.205   6.623   3.110  0.9032  2.1250 -0.2108
18953TIP3    H278351   5.088   6.671   3.027  0.0188  1.1122  0.4394
18954TIP3   OH278352   5.590   5.955  16.407 -0.0309 -0.2046  0.1816
18954TIP3    H178353   5.645   5.879  16.387 -0.8430 -0.6275 -0.4868
18954TIP3    H278354   5.506   5.917  16.431 -0.7874  0.5058 -1.2684
18955TIP3   OH278355   1.893   6.347  15.889 -0.1638  0.1230  0.3789
18955TIP3    H178356   1.816   6.290  15.893  0.6821 -1.1348 -0.8619
18955TIP3    H278357   1.876   6.405  15.815 -0.0637  0.0855  0.3274
18956TIP3   OH278358   5.119   4.253   4.419  0.5302  0.0024  0.3238
18956TIP3    H178359   5.184   4.320   4.441 -0.6158  0.7824  1.4878
18956TIP3    H278360   5.053   4.300   4.368 -0.0882 -0.3288  0.8129
18957TIP3   OH278361   5.015   0.822   0.596 -0.0053 -0.2740 -0.5821
18957TIP3    H178362   4.957   0.898   0.602  0.9342  0.6359 -2.3832
18957TIP3    H278363   5.079   0.835   0.666 -1.2269 -0.6500  0.6267
18958TIP3   OH278364   2.980   4.130  16.815 -0.3131 -0.4359 -0.0970
18958TIP3    H178365   2.988   4.075  16.893  1.1546 -0.1604 -0.0218
18958TIP3    H278366   3.042   4.202  16.831  0.5577 -0.7817 -1.8310
18959TIP3   OH278367   4.157   2.096  13.986 -0.0731 -0.6708  0.0500
18959TIP3    H178368   4.237   2.043  13.980  0.0896 -0.3513 -0.6639
18959TIP3    H278369   4.091   2.045  13.939  0.4352  0.4023 -1.8864
18960TIP3   OH278370   4.632   0.062   4.715  0.2535 -0.2928  0.5467
18960TIP3    H178371   4.606   0.114   4.791 -0.4797  0.9739 -0.5521
18960TIP3    H278372   4.728   0.064   4.716  0.2300  0.9187  0.6294
18961TIP3   OH278373   1.090   3.663  11.488  0.4853  0.1340 -0.8318
18961TIP3    H178374   1.172   3.637  11.447  0.4195 -0.1992 -0.7519
18961TIP3    H278375   1.052   3.727  11.428  0.6884  0.1071 -0.9875
18962TIP3   OH278376   3.297   5.568  12.492 -0.3262 -0.4559  0.4599
18962TIP3    H178377   3.358   5.562  12.418 -0.1566  0.3042  0.5357
18962TIP3    H278378   3.215   5.532  12.458  0.1048 -1.3021  0.2966
18963TIP3   OH278379   1.085   4.223   1.145  0.3490 -0.0781  0.4490
18963TIP3    H178380   1.032   4.255   1.218  0.6281 -1.2814  1.1770
18963TIP3    H278381   1.172   4.209   1.182  1.2518  2.0371 -0.7729
18964TIP3   OH278382   5.734   5.003  16.909 -0.0196 -0.5049  0.1086
18964TIP3    H178383   5.781   4.925  16.876  0.5918 -0.6595  1.3000
18964TIP3    H278384   5.761   5.073  16.850  1.0070 -0.7926  0.2105
18965TIP3   OH278385   2.212   5.077   4.920  0.5055 -0.6276 -0.3637
18965TIP3    H178386   2.288   5.019   4.927 -0.1884 -1.4684  0.2700
18965TIP3    H278387   2.231   5.148   4.981  0.9811 -0.6190 -0.5216
18966TIP3   OH278388   6.547   3.139  11.369 -0.4839  0.0630  0.6487
18966TIP3    H178389   6.563   3.233  11.370  0.1880 -0.0191 -0.7322
18966TIP3    H278390   6.600   3.107  11.296 -0.8366 -1.3640  1.0054
18967TIP3   OH278391   1.457   2.923   1.885 -0.1064  0.9879 -0.4643
18967TIP3    H178392   1.411   2.864   1.944  2.0529 -1.1514 -0.8346
18967TIP3    H278393   1.469   2.872   1.805  2.6278  1.5595 -0.4759
18968TIP3   OH278394   2.314   6.064   4.932 -0.3523 -0.0140  0.3920
18968TIP3    H178395   2.280   5.995   4.989 -1.7526  0.4670  0.1611
18968TIP3    H278396   2.285   6.145   4.973 -1.2129  0.3422 -0.9023
18969TIP3   OH278397   2.117   3.498  13.849 -0.7170 -0.5496 -0.5976
18969TIP3    H178398   2.117   3.532  13.759  0.2305 -0.7552 -0.6823
18969TIP3    H278399   2.042   3.439  13.853 -0.7647 -0.5355 -1.2555
18970TIP3   OH278400   1.051   4.249   2.507 -0.6927  0.3920 -0.3304
18970TIP3    H178401   1.028   4.223   2.596 -0.4048 -1.6148 -0.8192
18970TIP3    H278402   1.117   4.317   2.519 -0.6651  0.1546  0.9997
18971TIP3   OH278403   0.086   6.513  12.597  0.2312 -0.3730 -0.1451
18971TIP3    H178404   0.014   6.489  12.538 -0.6120  1.4704  0.0955
18971TIP3    H278405   0.083   6.609  12.600  2.2572 -0.3144  0.4381
18972TIP3   OH278406   4.133   0.851   3.017  0.2653  0.3638 -0.1928
18972TIP3    H178407   4.112   0.910   2.944 -1.0694  1.4881  1.0560
18972TIP3    H278408   4.156   0.909   3.089  1.8539 -0.7451  0.2103
18973TIP3   OH278409   5.044   6.522  15.835 -0.1917  0.2481 -0.1289
18973TIP3    H178410   5.011   6.499  15.922  0.6537  1.5970  0.5806
18973TIP3    H278411   5.065   6.438  15.794 -0.5830 -0.4009  0.9795
18974TIP3   OH278412   4.090   6.142  10.865 -0.3350 -0.3264 -0.0051
18974TIP3    H178413   4.140   6.101  10.936  1.2888 -1.9956 -2.0365
18974TIP3    H278414   4.115   6.234  10.868 -1.4646 -0.0532  2.5147
18975TIP3   OH278415   0.583   3.706   0.698  0.2492  0.0143 -0.2744
18975TIP3    H178416   0.648   3.769   0.666  1.1174 -0.4546  0.5218
18975TIP3    H278417   0.509   3.759   0.725  0.2414  0.5532 -1.3300
18976TIP3   OH278418   1.734   6.236   1.477 -0.0113 -0.0127  0.3258
18976TIP3    H178419   1.807   6.177   1.456 -0.0588  0.3835 -1.0283
18976TIP3    H278420   1.661   6.202   1.424 -0.4313  0.4004  0.6452
18977TIP3   OH278421   3.305   1.107  14.664 -0.1122  0.0887 -0.2175
18977TIP3    H178422   3.375   1.067  14.716 -1.8368 -2.7262  0.0595
18977TIP3    H278423   3.345   1.128  14.580  1.3358 -0.4653  0.3248
18978TIP3   OH278424   4.396   1.417   5.794  0.2616  0.3154 -0.8063
18978TIP3    H178425   4.468   1.481   5.799 -1.2720  2.0671 -0.6923
18978TIP3    H278426   4.381   1.390   5.884 -0.6223  1.5642 -0.5648
18979TIP3   OH278427   4.321   2.828   4.914 -0.3809 -0.4028  0.5868
18979TIP3    H178428   4.395   2.767   4.905  0.4851  0.6993  0.0294
18979TIP3    H278429   4.352   2.894   4.977 -0.8752  0.0821  0.3239
18980TIP3   OH278430   3.012   1.700  13.096  0.5161  0.0132 -0.6489
18980TIP3    H178431   3.042   1.750  13.020 -1.3589 -0.0433 -1.4742
18980TIP3    H278432   2.986   1.615  13.059 -0.6217  0.0641  0.0213
18981TIP3   OH278433   5.671   4.355  15.928 -0.0619 -0.6217 -0.5459
18981TIP3    H178434   5.645   4.423  15.991 -2.4656  1.4099 -3.5401
18981TIP3    H278435   5.757   4.382  15.897 -0.2589  0.1521 -0.4342
18982TIP3   OH278436   2.965   3.868  15.258  0.2378  0.6210  0.3993
18982TIP3    H178437   3.014   3.786  15.268  0.7493  0.8798  0.0141
18982TIP3    H278438   2.996   3.905  15.175 -1.6583  0.0529 -0.6132
18983TIP3   OH278439   1.927   5.129   1.532 -0.7545 -0.4868 -0.1664
18983TIP3    H178440   1.860   5.066   1.507 -1.7083 -0.3528  1.8966
18983TIP3    H278441   1.990   5.079   1.584 -0.9977  0.0414  0.6577
18984TIP3   OH278442   5.927   0.777  12.622  0.3405 -0.1684  0.1850
18984TIP3    H178443   5.997   0.717  12.592  0.3967 -0.8530  1.6346
18984TIP3    H278444   5.955   0.804  12.709 -0.2771  1.0701  0.0028
18985TIP3   OH278445   0.111   1.161  11.873  0.5662 -0.3142 -0.8751
18985TIP3    H178446   0.163   1.229  11.832 -0.3061  0.2027 -1.1402
18985TIP3    H278447   0.155   1.143  11.956 -0.4176  2.1197  0.1998
18986TIP3   OH278448   3.389   6.781   3.152 -0.0040 -1.0070 -0.2437
18986TIP3    H178449   3.457   6.714   3.145  0.4967 -0.5206 -0.0581
18986TIP3    H278450   3.389   6.805   3.245  1.1865  0.6607 -0.6504
18987TIP3   OH278451   4.103   2.237  12.234  0.4619 -0.0044 -0.0813
18987TIP3    H178452   4.074   2.218  12.323  0.0121 -0.0927 -0.2440
18987TIP3    H278453   4.063   2.169  12.180  1.1709 -0.2629 -0.2794
18988TIP3   OH278454   4.281   6.519   1.199 -0.2669  0.4609  0.7115
18988TIP3    H178455   4.216   6.586   1.220  0.0173  0.5681  1.2576
18988TIP3    H278456   4.243   6.438   1.233 -0.8067  0.2668 -0.3328
18989TIP3   OH278457   6.155   2.509  10.868  0.0792  0.4583  0.6897
18989TIP3    H178458   6.244   2.527  10.836  0.6985 -0.9617  1.5804
18989TIP3    H278459   6.148   2.414  10.867 -0.8151  0.4953  2.2736
18990TIP3   OH278460   1.281   4.131   1.472 -0.3912 -0.0503 -0.0277
18990TIP3    H178461   1.325   4.129   1.557 -0.5919  3.6376  0.2396
18990TIP3    H278462   1.198   4.085   1.487  0.0316 -0.3497  1.4818
18991TIP3   OH278463   0.151   1.498   0.688  0.7995 -0.2030  0.5784
18991TIP3    H178464   0.231   1.475   0.736  1.4445 -0.2926 -0.5422
18991TIP3    H278465   0.097   1.418   0.692  0.3676  0.1500  2.1147
18992TIP3   OH278466   3.530   6.576  12.581  0.4932 -0.1644  0.1060
18992TIP3    H178467   3.497   6.656  12.540 -0.0258 -0.4299 -0.0051
18992TIP3    H278468   3.563   6.524  12.507 -0.0399 -0.4565  0.0750
18993TIP3   OH278469   3.305   5.725   4.664  0.2156  0.4993  0.0873
18993TIP3    H178470   3.359   5.647   4.678 -0.7368  0.0181  1.2313
18993TIP3    H278471   3.242   5.723   4.736 -2.1802  0.3366 -1.9984
18994TIP3   OH278472   3.338   3.996   4.713 -0.3989  0.3146  0.3190
18994TIP3    H178473   3.260   4.052   4.712 -1.2819 -0.8603 -1.6941
18994TIP3    H278474   3.406   4.049   4.672 -0.6417  0.7210  0.4369
18995TIP3   OH278475   4.247   1.963   3.809  0.4309  0.2492  0.1604
18995TIP3    H178476   4.251   2.050   3.848 -0.0296 -0.3322  1.5355
18995TIP3    H278477   4.332   1.951   3.767 -0.8812  2.9206 -3.4737
18996TIP3   OH278478   0.650   4.013   5.194  0.1432  0.7881  0.0661
18996TIP3    H178479   0.600   3.932   5.183 -0.4785  1.0468  0.8684
18996TIP3    H278480   0.600   4.063   5.259 -0.0898  2.3054 -1.2354
18997TIP3   OH278481   6.753   6.265   2.259  0.1781 -0.2992 -0.2411
18997TIP3    H178482   6.706   6.246   2.178 -0.7045  1.0895 -0.0807
18997TIP3    H278483   6.765   6.360   2.258 -0.3409 -0.1876  1.4978
18998TIP3   OH278484   4.723   2.591   5.501 -0.1782 -0.1288 -0.3377
18998TIP3    H178485   4.657   2.654   5.531 -1.5335 -1.2441 -0.9070
18998TIP3    H278486   4.707   2.513   5.554 -0.9520 -1.2505 -2.1768
18999TIP3   OH278487   1.397   4.377   1.430 -0.0705  0.3091 -0.2469
18999TIP3    H178488   1.336   4.392   1.358 -0.0681  0.6332 -0.1820
18999TIP3    H278489   1.371   4.293   1.466 -0.9305  0.7803  0.2316
19000TIP3   OH278490   3.084   5.214   0.469  0.3655  0.2898 -0.0704
19000TIP3    H178491   3.143   5.203   0.544  0.7854 -0.4479 -0.5083
19000TIP3    H278492   3.045   5.301   0.482  2.7203  1.4602 -0.6007
19001TIP3   OH278493   3.920   2.992   5.989  0.7144  0.5017  0.3647
19001TIP3    H178494   3.942   2.958   6.076 -0.1765 -2.4184 -0.4813
19001TIP3    H278495   3.989   2.958   5.932 -0.2657 -0.0286 -0.5269
19002TIP3   OH278496   2.525   2.020  12.662 -0.0484 -0.1045  0.0941
19002TIP3    H178497   2.433   1.997  12.652 -0.1892  1.3235 -2.3976
19002TIP3    H278498   2.524   2.108  12.699  0.2748  0.2257 -0.6571
19003TIP3   OH278499   0.634   1.644   4.687 -0.1097 -0.4593 -0.1290
19003TIP3    H178500   0.555   1.602   4.722 -1.6365  1.7658 -0.8014
19003TIP3    H278501   0.691   1.656   4.763 -0.8425 -1.1684  0.5432
19004TIP3   OH278502   4.276   3.295   5.629  0.0224 -0.8822  0.5273
19004TIP3    H178503   4.232   3.378   5.649  1.1281 -0.2926  0.5342
19004TIP3    H278504   4.358   3.320   5.587  0.8696 -1.9431  1.5082
19005TIP3   OH278505   6.258   3.477  16.616  0.2500 -0.3647  0.9194
19005TIP3    H178506   6.256   3.455  16.709  0.6441  1.9585  1.5176
19005TIP3    H278507   6.326   3.543  16.608 -0.5387  0.2846 -0.8352
19006TIP3   OH278508   5.920   4.151  11.491 -0.1720  0.0974  0.0359
19006TIP3    H178509   5.935   4.190  11.404  2.2526 -0.6081  0.1216
19006TIP3    H278510   5.899   4.226  11.547 -1.9404  0.5424 -1.1756
19007TIP3   OH278511   2.350   3.117  17.133 -0.0737 -0.3802  0.2512
19007TIP3    H178512   2.295   3.128  17.211 -0.3541 -2.6273  0.3950
19007TIP3    H278513   2.379   3.026  17.136  0.1405 -0.4363 -2.1205
19008TIP3   OH278514   4.869   2.522  12.108  0.3437 -0.3395  0.1078
19008TIP3    H178515   4.834   2.490  12.191 -1.6813 -2.0554 -1.3813
19008TIP3    H278516   4.837   2.612  12.103  1.1513  0.0544  1.5361
19009TIP3   OH278517   5.734   0.830   4.085  0.5966  0.8473 -0.6961
19009TIP3    H178518   5.823   0.855   4.112  0.6110  0.2639 -0.2093
19009TIP3    H278519   5.684   0.911   4.091  0.8641  0.9627 -0.0091
19010TIP3   OH278520   4.897   4.543   6.220  0.6516  0.2098  0.4321
19010TIP3    H178521   4.879   4.557   6.313  0.9414  0.4685  0.4500
19010TIP3    H278522   4.875   4.626   6.178  0.6445  0.1357  0.2881
19011TIP3   OH278523   6.145   4.862  14.627  0.1501 -0.5036 -0.1683
19011TIP3    H178524   6.142   4.846  14.533  1.0572  0.7242 -0.4243
19011TIP3    H278525   6.094   4.791  14.666 -0.1210 -1.0839 -1.5762
19012TIP3   OH278526   0.534   0.339  15.432  0.1189 -0.2031 -0.0814
19012TIP3    H178527   0.586   0.311  15.507  0.2331 -0.4642 -0.2535
19012TIP3    H278528   0.445   0.311  15.453  0.3152 -1.1433 -0.4654
19013TIP3   OH278529   4.493   4.180   0.450 -0.0116  0.5521 -0.3920
19013TIP3    H178530   4.570   4.129   0.475 -0.9653 -0.6989  0.0340
19013TIP3    H278531   4.522   4.231   0.374  1.1065 -0.2493 -0.5151
19014TIP3   OH278532   6.792   4.539   5.274  0.0314  0.1046 -0.0326
19014TIP3    H178533   6.815   4.529   5.182 -1.0005 -1.0927 -0.1870
19014TIP3    H278534   6.856   4.600   5.309 -1.6960  3.4167 -2.3625
19015TIP3   OH278535   5.292   1.680   2.554 -0.5109  0.3227 -0.0762
19015TIP3    H178536   5.333   1.622   2.490 -1.0333  1.4312 -1.4463
19015TIP3    H278537   5.230   1.732   2.503 -0.9555  1.2163  1.3385
19016TIP3   OH278538   5.703   1.078   1.397  0.6903  1.1398  0.4033
19016TIP3    H178539   5.660   1.062   1.313  0.1221  1.0656  0.7066
19016TIP3    H278540   5.666   1.161   1.427  0.4183  0.8477  0.8815
19017TIP3   OH278541   0.327   1.294  12.998  0.0040 -0.2283  0.1692
19017TIP3    H178542   0.310   1.224  12.936 -0.2819  0.2905 -0.3411
19017TIP3    H278543   0.398   1.344  12.959 -0.5922  0.4627 -0.0467
19018TIP3   OH278544   5.936   3.472  13.808 -0.1833  0.7512  0.5557
19018TIP3    H178545   5.950   3.566  13.820  0.0040  0.7480  0.3619
19018TIP3    H278546   5.910   3.441  13.895 -2.0324  1.2904  0.2047
19019TIP3   OH278547   0.889   0.467  16.536 -0.2098 -0.0093  0.2563
19019TIP3    H178548   0.825   0.538  16.533 -0.6609 -0.4319 -0.1289
19019TIP3    H278549   0.876   0.425  16.621 -0.2524  0.0800  0.2941
19020TIP3   OH278550   5.499   4.812   4.427  0.3648 -0.4946 -0.4985
19020TIP3    H178551   5.484   4.871   4.501 -0.2215 -0.5389 -0.5829
19020TIP3    H278552   5.523   4.729   4.468 -0.0667 -0.5479 -0.3563
19021TIP3   OH278553   4.189   2.435  13.042 -0.0742 -0.4347  0.4797
19021TIP3    H178554   4.159   2.462  12.955  1.1072  1.7658  0.7242
19021TIP3    H278555   4.164   2.342  13.048 -3.2824  0.2930 -0.8118
19022TIP3   OH278556   3.308   4.259   1.991 -0.3165 -0.1471  0.2834
19022TIP3    H178557   3.301   4.252   2.086  1.7476 -0.0557  0.4636
19022TIP3    H278558   3.217   4.264   1.961 -1.0426 -1.2655  2.1538
19023TIP3   OH278559   1.321   4.808   6.019 -0.0188 -0.2047 -0.0796
19023TIP3    H178560   1.304   4.898   6.047 -0.1387 -0.3309  0.2542
19023TIP3    H278561   1.338   4.761   6.100  0.5525 -0.3741 -0.2935
19024TIP3   OH278562   3.567   0.815   1.626 -0.1675  0.0931  0.4959
19024TIP3    H178563   3.521   0.771   1.554  2.0104 -1.1163 -0.2173
19024TIP3    H278564   3.502   0.822   1.695 -1.8310 -0.2468 -0.9867
19025TIP3   OH278565   3.814   4.265   5.794  0.2827  0.3606 -0.4429
19025TIP3    H178566   3.733   4.285   5.747  0.0807  0.6940  0.0398
19025TIP3    H278567   3.853   4.351   5.811 -0.4204  0.3532  1.3573
19026TIP3   OH278568   2.375   0.252  15.282 -0.6278  0.4042 -0.1511
19026TIP3    H178569   2.414   0.329  15.321  2.1493 -0.6211 -0.8332
19026TIP3    H278570   2.359   0.276  15.191 -0.3932  0.3954 -0.1934
19027TIP3   OH278571   1.264   6.151   3.231  0.6417  0.0395 -0.4299
19027TIP3    H178572   1.230   6.194   3.153  0.9483  0.0732 -0.5462
19027TIP3    H278573   1.321   6.082   3.198 -1.4541 -1.7980 -0.2530
19028TIP3   OH278574   1.636   5.177  14.407 -0.4353  0.2632  0.0150
19028TIP3    H178575   1.590   5.261  14.414  1.6992  1.5037 -0.6269
19028TIP3    H278576   1.718   5.191  14.453  0.3751 -1.1820 -0.9581
19029TIP3   OH278577   3.863   3.891   4.274 -0.3744  0.3003 -0.0363
19029TIP3    H178578   3.942   3.852   4.310 -0.2720  0.1844 -0.3861
19029TIP3    H278579   3.793   3.864   4.334 -0.4689 -1.2647 -0.8217
19030TIP3   OH278580   3.498   6.306   1.896  0.3069 -0.2277 -0.2164
19030TIP3    H178581   3.571   6.245   1.910 -0.3382 -1.1933 -1.0623
19030TIP3    H278582   3.427   6.270   1.949  0.4032  0.6689  0.5403
19031TIP3   OH278583   1.886   4.382  15.627 -0.3607 -0.3616  0.2022
19031TIP3    H178584   1.827   4.310  15.605 -1.4171  1.1058 -1.9680
19031TIP3    H278585   1.865   4.403  15.718 -0.0453 -2.7557  0.8716
19032TIP3   OH278586   0.233   5.205  16.056 -0.1114 -0.4113 -0.3200
19032TIP3    H178587   0.251   5.235  16.145  0.1181 -1.1079 -0.1359
19032TIP3    H278588   0.242   5.110  16.060  3.1633 -0.2341 -1.8079
19033TIP3   OH278589   1.963   1.311  14.328 -0.0508 -0.2503  0.0270
19033TIP3    H178590   1.869   1.320  14.317  0.0324  0.6124  0.0325
19033TIP3    H278591   2.001   1.345  14.248  0.3263  1.1120  0.7688
19034TIP3   OH278592   5.147   2.591  14.307  0.1977 -0.2980  0.4969
19034TIP3    H178593   5.085   2.562  14.375 -1.8914 -0.9154 -1.6125
19034TIP3    H278594   5.181   2.675  14.340  0.0406 -1.1034  2.7883
19035TIP3   OH278595   1.857   1.993  15.872  0.2150  0.2219 -0.2012
19035TIP3    H178596   1.939   1.978  15.919  0.2140 -0.8962 -0.5589
19035TIP3    H278597   1.793   1.940  15.918 -0.0244  0.0092 -0.7824
19036TIP3   OH278598   3.224   4.070  12.885  0.0670  0.4839 -0.4174
19036TIP3    H178599   3.141   4.023  12.880  1.2595 -1.6704 -0.8940
19036TIP3    H278600   3.233   4.092  12.978 -0.3411 -0.6262 -0.0983
19037TIP3   OH278601   6.564   4.958  15.448 -0.1011  0.3037 -0.1825
19037TIP3    H178602   6.658   4.972  15.460  0.0398 -0.1255 -0.7542
19037TIP3    H278603   6.558   4.901  15.371 -1.0088  3.9713 -2.9491
19038TIP3   OH278604   1.375   0.994   5.664  0.3015 -0.0950 -0.2280
19038TIP3    H178605   1.462   0.993   5.704 -1.1166 -0.7582  3.0413
19038TIP3    H278606   1.364   1.084   5.633  1.7360  0.2815  0.3400
19039TIP3   OH278607   3.653   1.947   1.176  0.4675 -0.0244  0.1101
19039TIP3    H178608   3.633   2.023   1.231 -0.8825  0.0394 -0.4493
19039TIP3    H278609   3.695   1.984   1.098 -1.0379  0.2357 -0.5779
19040TIP3   OH278610   3.428   3.959   3.527  0.1621 -0.6612 -0.1835
19040TIP3    H178611   3.383   3.975   3.444 -0.1296 -0.3958  0.0235
19040TIP3    H278612   3.375   3.891   3.569  0.2719 -0.7472 -0.1845
19041TIP3   OH278613   0.947   5.476  16.784  0.7894 -0.3343  0.7188
19041TIP3    H178614   0.860   5.446  16.810  0.8241 -3.7569 -2.6593
19041TIP3    H278615   0.932   5.565  16.752 -1.5915 -1.0258 -0.2542
19042TIP3   OH278616   1.221   3.881   0.888  0.3334 -0.4667 -0.2322
19042TIP3    H178617   1.241   3.965   0.847 -0.5459 -0.1117  0.0489
19042TIP3    H278618   1.163   3.903   0.961  0.5471 -1.2627  0.1931
19043TIP3   OH278619   1.904   2.335   5.160 -0.1243 -0.3867 -0.3238
19043TIP3    H178620   1.994   2.349   5.191 -0.7094 -2.3964  2.4425
19043TIP3    H278621   1.864   2.422   5.163  0.8315  0.0226  1.3883
19044TIP3   OH278622   6.783   4.682  12.767  0.4497  0.5392  0.2112
19044TIP3    H178623   6.752   4.768  12.741 -1.9922 -0.7958 -1.4503
19044TIP3    H278624   6.741   4.665  12.851  2.7462  1.8735  1.6882
19045TIP3   OH278625   6.604   4.589  11.253  0.5501  0.1053 -0.1418
19045TIP3    H178626   6.533   4.652  11.269  0.6724  0.2900 -0.3402
19045TIP3    H278627   6.645   4.578  11.339 -0.2894 -0.6876  0.1621
19046TIP3   OH278628   0.068   2.114  11.593  0.2083  0.5439 -0.5383
19046TIP3    H178629   0.033   2.039  11.641  1.4234  1.2603  1.5312
19046TIP3    H278630   0.020   2.189  11.627  1.2153  1.0811 -0.2792
19047TIP3   OH278631   4.446   2.588   3.824 -0.2565 -0.8778  0.1828
19047TIP3    H178632   4.424   2.532   3.750  0.6916  1.0597 -1.6250
19047TIP3    H278633   4.531   2.626   3.801 -0.8438  1.2565  1.3594
19048TIP3   OH278634   1.512   5.557  15.287  0.6642 -1.1320  0.0254
19048TIP3    H178635   1.573   5.575  15.215  0.1396  1.4689  0.1861
19048TIP3    H278636   1.434   5.523  15.244  0.4060  0.2751 -0.6508
19049TIP3   OH278637   5.786   5.957  15.485  0.1786 -0.3494  0.4374
19049TIP3    H178638   5.881   5.950  15.497  0.0725 -1.3552  0.6936
19049TIP3    H278639   5.752   5.871  15.509 -0.9874  0.5432  2.0742
19050TIP3   OH278640   3.909   3.928  11.886 -0.2766  0.2301 -0.0500
19050TIP3    H178641   4.004   3.935  11.894 -0.2612 -0.0822  0.0306
19050TIP3    H278642   3.885   3.855  11.944 -0.3336 -1.1562 -1.7949
19051TIP3   OH278643   2.520   3.087   4.886  1.0449  0.0372  0.3149
19051TIP3    H178644   2.527   3.141   4.807  0.0713  0.3184  0.4187
19051TIP3    H278645   2.503   3.149   4.957  0.2916 -0.3724  0.4936
19052TIP3   OH278646   1.629   6.818  11.255 -0.2173 -0.1765 -0.2604
19052TIP3    H178647   1.581   6.806  11.173  0.7646  0.5369 -0.9510
19052TIP3    H278648   1.719   6.835  11.228 -0.3634  2.5919  0.8655
19053TIP3   OH278649   1.887   4.812   2.498  0.3877 -0.0713 -0.2369
19053TIP3    H178650   1.814   4.772   2.450  1.1779 -1.2517 -0.4901
19053TIP3    H278651   1.887   4.903   2.470  0.2697 -0.5262 -1.7840
19054TIP3   OH278652   1.684   5.268  10.587 -0.4473 -0.1087 -0.2911
19054TIP3    H178653   1.686   5.173  10.591  0.0769 -0.1614 -1.5889
19054TIP3    H278654   1.723   5.297  10.669  1.9571 -1.0267 -1.0842
19055TIP3   OH278655   1.430   3.750  10.727 -0.2475 -0.0079 -0.7910
19055TIP3    H178656   1.337   3.748  10.752  0.0979  0.4855  0.6105
19055TIP3    H278657   1.440   3.830  10.676 -0.4927  0.2196 -0.4878
19056TIP3   OH278658   4.588   1.361  16.273 -0.0357  0.0725  0.1015
19056TIP3    H178659   4.556   1.276  16.303 -1.5671 -0.1915 -2.1823
19056TIP3    H278660   4.660   1.382  16.333  1.3955 -3.5316 -0.2170
19057TIP3   OH278661   2.864   5.399  14.213 -0.2866 -0.4473  0.3306
19057TIP3    H178662   2.773   5.405  14.184 -0.0011  1.2969 -0.2779
19057TIP3    H278663   2.859   5.400  14.309 -0.8639  0.6837  0.2945
19058TIP3   OH278664   2.475   0.704   0.610  1.1808  0.3121  0.2451
19058TIP3    H178665   2.473   0.709   0.514  2.0486  1.2783  0.2774
19058TIP3    H278666   2.567   0.709   0.633  0.8912  1.5781  1.2124
19059TIP3   OH278667   3.842   1.723  12.486  0.0536 -0.2303  0.2734
19059TIP3    H178668   3.775   1.791  12.495 -1.1687 -1.4285  0.3962
19059TIP3    H278669   3.925   1.770  12.493 -0.7641  1.3899 -0.6679
19060TIP3   OH278670   2.911   4.376  10.311 -0.3013  0.0562  0.0358
19060TIP3    H178671   2.853   4.323  10.257  1.1929 -1.5867 -0.0005
19060TIP3    H278672   2.895   4.346  10.400  1.1625 -1.0945 -0.0702
19061TIP3   OH278673   3.979   0.262  14.434 -0.0770 -0.2481  0.4065
19061TIP3    H178674   4.013   0.217  14.357  1.9581 -0.3929  1.3446
19061TIP3    H278675   4.046   0.248  14.501 -0.8221  1.6356  1.5945
19062TIP3   OH278676   6.472   0.592  16.245  0.8308 -0.0932  0.3760
19062TIP3    H178677   6.457   0.586  16.340 -0.9731  0.9633  0.1880
19062TIP3    H278678   6.481   0.686  16.229  2.1081 -0.3335 -0.3852
19063TIP3   OH278679   4.837   0.586   0.211 -0.3196 -0.0224  0.1974
19063TIP3    H178680   4.755   0.537   0.216  1.6133 -3.6228 -1.5780
19063TIP3    H278681   4.856   0.609   0.302 -1.7694 -1.8238  1.0006
19064TIP3   OH278682   1.990   3.749   5.367 -0.7177 -0.2419  0.2990
19064TIP3    H178683   1.992   3.754   5.271 -0.1482 -1.3375  0.2426
19064TIP3    H278684   2.075   3.784   5.394  0.4118 -2.8205  0.2345
19065TIP3   OH278685   4.598   0.581   0.362 -0.2893  0.0898 -0.0089
19065TIP3    H178686   4.651   0.573   0.442 -1.4088 -1.8304  0.5762
19065TIP3    H278687   4.509   0.560   0.390 -0.6532 -0.8730 -1.8247
19066TIP3   OH278688   5.385   2.782  13.832 -0.3734  0.0950 -0.2091
19066TIP3    H178689   5.423   2.773  13.745 -1.8214 -0.3221 -0.8189
19066TIP3    H278690   5.450   2.744  13.891  1.0196  1.2120 -1.0014
19067TIP3   OH278691   2.199   3.516  10.863 -0.1346  0.0340  0.3679
19067TIP3    H178692   2.137   3.561  10.920 -0.2445 -1.1918  1.2470
19067TIP3    H278693   2.146   3.488  10.788 -0.5607 -0.6285  0.9099
19068TIP3   OH278694   0.881   2.982  17.037  0.6179 -0.1590 -0.1217
19068TIP3    H178695   0.853   2.918  17.103  1.6458  0.5328  0.9993
19068TIP3    H278696   0.801   3.005  16.990  0.1435 -1.8721 -0.1878
19069TIP3   OH278697   1.131   2.017   3.418  0.3408  0.1136 -0.0281
19069TIP3    H178698   1.148   1.965   3.497  2.2451  0.6495 -0.0505
19069TIP3    H278699   1.159   1.960   3.346  0.3035  0.3144 -0.1998
19070TIP3   OH278700   0.239   2.879   0.785 -0.2270 -0.1357  0.2765
19070TIP3    H178701   0.148   2.909   0.787 -0.2655 -0.2785  1.1207
19070TIP3    H278702   0.249   2.834   0.702 -0.5977  0.9072 -0.3365
19071TIP3   OH278703   6.431   0.179   5.651  0.6107  0.6555  0.4302
19071TIP3    H178704   6.515   0.221   5.634  0.4646  1.4028  1.5045
19071TIP3    H278705   6.370   0.218   5.589  0.5934  1.6556  1.0694
19072TIP3   OH278706   4.333   3.859  11.624 -0.0192 -0.1536  0.3800
19072TIP3    H178707   4.331   3.885  11.532  2.1269 -0.9727  0.0871
19072TIP3    H278708   4.278   3.924  11.668 -1.3021  0.0747 -1.4995
19073TIP3   OH278709   4.675   2.476  12.312 -0.4553  0.3750 -0.1492
19073TIP3    H178710   4.613   2.507  12.379 -1.2940  1.6453 -1.4800
19073TIP3    H278711   4.619   2.442  12.243  0.4335 -2.8341  0.6416
19074TIP3   OH278712   5.765   2.368   2.641  0.1876 -0.3204 -0.0549
19074TIP3    H178713   5.746   2.283   2.602  0.6839 -0.1297 -0.7183
19074TIP3    H278714   5.860   2.368   2.653  0.0247 -0.4286  1.2728
19075TIP3   OH278715   5.220   2.285  11.033 -0.1629 -0.2633 -0.4050
19075TIP3    H178716   5.212   2.379  11.051  0.4892  0.1822 -2.2850
19075TIP3    H278717   5.144   2.265  10.979 -2.1772 -1.6027  2.8087
19076TIP3   OH278718   5.163   2.671   1.284  0.0239  0.3023  0.2690
19076TIP3    H178719   5.098   2.653   1.351 -1.0824  0.2239 -0.7994
19076TIP3    H278720   5.119   2.732   1.224  0.5882 -0.4926 -0.9752
19077TIP3   OH278721   1.520   6.815   0.600  0.1974 -0.0461  0.2064
19077TIP3    H178722   1.446   6.767   0.636 -0.6928 -0.4012 -2.0074
19077TIP3    H278723   1.510   6.904   0.635 -1.0148 -0.2144  0.3121
19078TIP3   OH278724   2.695   1.095   4.706 -0.5139  0.2851 -0.3188
19078TIP3    H178725   2.753   1.163   4.740 -1.9665  1.4351 -0.0651
19078TIP3    H278726   2.746   1.050   4.639  0.4237  1.7161 -0.5694
19079TIP3   OH278727   3.835   4.012   4.043 -0.1044  0.5031  0.3811
19079TIP3    H178728   3.867   4.099   4.019  0.9516 -0.0120 -0.1008
19079TIP3    H278729   3.880   3.992   4.126 -0.3842  0.4341  0.5165
19080TIP3   OH278730   2.039   5.481   1.042  0.1522 -0.5541  0.2440
19080TIP3    H178731   1.959   5.496   1.093 -1.3179  0.1397 -2.2004
19080TIP3    H278732   2.059   5.566   1.003  1.9535 -0.7921  0.5814
19081TIP3   OH278733   5.013   5.101   1.472 -0.3930 -0.3720  0.1140
19081TIP3    H178734   4.958   5.094   1.550  0.2547 -1.9601  0.4553
19081TIP3    H278735   5.095   5.059   1.497  0.2809  0.2550 -1.0177
19082TIP3   OH278736   5.863   0.077  12.108  0.3376  0.5847  0.1445
19082TIP3    H178737   5.806   0.002  12.089 -0.6795  1.3903 -0.0192
19082TIP3    H278738   5.948   0.038  12.127 -0.5311 -0.7306  1.5071
19083TIP3   OH278739   3.692   1.124  15.432 -0.0194 -0.2201 -0.4835
19083TIP3    H178740   3.670   1.202  15.381  0.1944 -0.8895 -1.6278
19083TIP3    H278741   3.758   1.154  15.494 -0.6463  0.7240 -0.2606
19084TIP3   OH278742   6.489   1.491   1.652 -0.3091  0.0059 -0.4786
19084TIP3    H178743   6.446   1.498   1.737  1.9752  2.4756  0.5741
19084TIP3    H278744   6.498   1.397   1.637 -1.7917 -0.4708  1.4606
19085TIP3   OH278745   2.490   1.226  14.502 -0.1152  0.0581  0.9833
19085TIP3    H178746   2.438   1.162  14.551 -0.8899  0.7351  1.0431
19085TIP3    H278747   2.431   1.258  14.434  0.1189  1.0648  1.2488
19086TIP3   OH278748   1.535   0.673  15.842 -0.1471  0.6153  0.1673
19086TIP3    H178749   1.613   0.622  15.822 -0.5963  0.3103 -0.8283
19086TIP3    H278750   1.477   0.659  15.767 -0.1758  2.7731 -0.2472
19087TIP3   OH278751   5.721   0.864   3.679 -0.1662 -0.4118  0.3143
19087TIP3    H178752   5.665   0.906   3.614  0.2660  0.7172  0.6658
19087TIP3    H278753   5.667   0.793   3.715 -1.0437  0.1022  0.0187
19088TIP3   OH278754   4.883   0.178  13.215  0.2363 -0.4674 -0.4525
19088TIP3    H178755   4.802   0.184  13.164  0.2687 -2.6267 -0.8155
19088TIP3    H278756   4.953   0.187  13.150  0.3144  1.5742 -0.1146
19089TIP3   OH278757   4.016   1.644   6.431  0.3605 -0.1351  0.1505
19089TIP3    H178758   3.946   1.659   6.494  2.2565  2.7659  1.6918
19089TIP3    H278759   4.047   1.555   6.451 -1.0315 -0.3801  1.3146
19090TIP3   OH278760   1.297   1.432   0.267  0.1679  0.2026 -0.3220
19090TIP3    H178761   1.217   1.479   0.291 -0.7063 -1.1092 -0.6359
19090TIP3    H278762   1.365   1.499   0.270 -0.8964  1.2904  0.1707
19091TIP3   OH278763   4.777   5.811  15.319  0.6041 -0.2694 -0.4538
19091TIP3    H178764   4.766   5.904  15.341 -0.5372 -0.9843  2.2425
19091TIP3    H278765   4.804   5.811  15.228  0.6609  2.7256 -0.4937
19092TIP3   OH278766   6.539   6.155  13.350  0.0384 -0.0685 -0.4205
19092TIP3    H178767   6.564   6.144  13.442 -0.3294 -0.4987 -0.3668
19092TIP3    H278768   6.621   6.164  13.303  0.2896 -1.2576 -0.2223
19093TIP3   OH278769   0.549   0.235   4.996  1.4046  0.2445 -0.2521
19093TIP3    H178770   0.575   0.311   5.048  0.8335  1.1364 -1.2580
19093TIP3    H278771   0.490   0.187   5.054 -0.7132  2.2126 -0.6921
19094TIP3   OH278772   2.439   5.328  10.844 -0.2145  0.0524  0.3820
19094TIP3    H178773   2.520   5.283  10.818  0.2411  1.6554 -1.0472
19094TIP3    H278774   2.371   5.261  10.839  0.7176 -0.8531 -0.2169
19095TIP3   OH278775   1.076   5.918   0.285  0.2599 -0.2459  0.3074
19095TIP3    H178776   1.048   5.901   0.195 -0.2964  1.3059  0.1715
19095TIP3    H278777   1.139   5.848   0.304  1.9413  0.5917 -1.9866
19096TIP3   OH278778   3.324   1.462   3.314 -0.1023  0.0449 -0.3731
19096TIP3    H178779   3.232   1.482   3.333  0.2194  1.3659 -0.1476
19096TIP3    H278780   3.322   1.419   3.228 -1.0907 -1.5341  0.4223
19097TIP3   OH278781   4.225   2.096   1.297  0.2559 -0.2540 -0.1553
19097TIP3    H178782   4.243   2.002   1.306 -1.6257 -0.8683 -2.2954
19097TIP3    H278783   4.137   2.107   1.332  0.7328  0.8783  0.7403
19098TIP3   OH278784   3.567   0.759  15.464  0.5873 -0.4407  0.2918
19098TIP3    H178785   3.649   0.809  15.459  0.2625  0.0175 -0.6552
19098TIP3    H278786   3.590   0.680  15.512  1.0126  0.8378  2.2919
19099TIP3   OH278787   1.946   3.113   4.651  0.0503 -0.4424  0.0052
19099TIP3    H178788   1.864   3.082   4.689 -0.1283 -0.4110 -0.3548
19099TIP3    H278789   2.003   3.036   4.652 -1.0786 -1.3887 -2.8321
19100TIP3   OH278790   5.919   1.809  12.895  0.2203 -0.0079  0.6031
19100TIP3    H178791   5.860   1.884  12.889  0.0031 -0.3446 -1.6429
19100TIP3    H278792   5.865   1.734  12.873  1.6389 -0.2288 -2.3535
19101TIP3   OH278793   6.052   2.747   3.902 -0.0750  0.2149 -0.0395
19101TIP3    H178794   6.079   2.679   3.964 -0.1583 -0.5728 -0.8600
19101TIP3    H278795   6.134   2.782   3.868 -0.0460 -0.2218 -0.4209
19102TIP3   OH278796   4.444   3.256  16.964  0.0670  0.5791  0.6789
19102TIP3    H178797   4.512   3.235  16.900 -0.5889 -1.0200  0.4625
19102TIP3    H278798   4.411   3.170  16.992 -0.6808  1.2979  2.0433
19103TIP3   OH278799   6.422   6.800   0.045  0.1561 -0.2597  0.6342
19103TIP3    H178800   6.328   6.818   0.042  0.5030  1.3007 -0.9443
19103TIP3    H278801   6.440   6.751  -0.035  0.6781 -0.7376  1.0319
19104TIP3   OH278802   0.171   0.154  12.762 -0.7768  0.4826  0.0281
19104TIP3    H178803   0.242   0.197  12.810 -0.0734  0.1603 -0.6967
19104TIP3    H278804   0.094   0.209  12.778  0.6100  3.4899 -2.8872
19105TIP3   OH278805   4.241   1.944   2.764 -0.4403 -0.3610  0.0666
19105TIP3    H178806   4.169   1.885   2.784 -0.5075  0.1552  1.3898
19105TIP3    H278807   4.213   2.029   2.798  0.5364 -0.0196  0.0513
19106TIP3   OH278808   3.540   1.739  13.683  0.0758 -0.2143 -0.0376
19106TIP3    H178809   3.627   1.746  13.644 -0.1191  0.7299 -0.3030
19106TIP3    H278810   3.542   1.656  13.730  0.5465 -1.0685 -1.5143
19107TIP3   OH278811   5.291   6.135   0.538  0.5806 -0.2395 -0.0040
19107TIP3    H178812   5.309   6.112   0.447  1.5679 -2.6374  0.7489
19107TIP3    H278813   5.209   6.184   0.535  0.9311  0.2420 -2.2394
19108TIP3   OH278814   1.648   1.922   1.180  0.3464 -0.0125 -0.2388
19108TIP3    H178815   1.661   1.982   1.253 -0.7856  0.3632 -0.3376
19108TIP3    H278816   1.728   1.931   1.127  1.5869 -0.9952  1.4309
19109TIP3   OH278817   6.134   0.896   3.563  0.1996  0.6426 -0.0148
19109TIP3    H178818   6.078   0.845   3.622 -2.1771 -0.0481 -2.7899
19109TIP3    H278819   6.113   0.987   3.581 -1.4998  0.3943 -0.7060
19110TIP3   OH278820   0.923   4.530  13.606 -0.1997 -0.5434  0.4740
19110TIP3    H178821   0.974   4.610  13.622 -1.0601 -0.1005  1.0100
19110TIP3    H278822   0.902   4.533  13.513  0.7313 -0.7175  0.2514
19111TIP3   OH278823   0.939   4.200  13.370  0.1115 -0.5994 -0.0758
19111TIP3    H178824   0.908   4.206  13.461  0.1199  1.3154 -0.1653
19111TIP3    H278825   0.872   4.246  13.319  0.4519 -1.0672 -0.9485
19112TIP3   OH278826   2.881   6.419  11.668  0.2251 -0.1604 -0.2306
19112TIP3    H178827   2.918   6.357  11.604 -0.9320 -0.0924 -0.9922
19112TIP3    H278828   2.945   6.489  11.674  0.2499 -0.0654 -1.4989
19113TIP3   OH278829   3.040   2.569  10.511  0.6575  0.0119  0.4516
19113TIP3    H178830   3.020   2.506  10.581  0.1347  1.2874  1.4732
19113TIP3    H278831   3.120   2.613  10.541  0.8119  0.0980 -0.0851
19114TIP3   OH278832   0.479   5.386  11.861  0.2230 -0.4507 -0.6185
19114TIP3    H178833   0.479   5.299  11.822 -0.7373 -1.5466  1.7462
19114TIP3    H278834   0.456   5.372  11.953 -3.7523  2.6267 -1.0021
19115TIP3   OH278835   2.189   2.799  11.023 -0.4042 -0.4377 -0.0277
19115TIP3    H178836   2.114   2.769  10.971 -0.4553  1.7183 -1.2772
19115TIP3    H278837   2.151   2.824  11.107 -0.8459 -0.8369 -0.1054
19116TIP3   OH278838   5.230   5.276  14.239  0.0616  0.0123  0.9287
19116TIP3    H178839   5.260   5.296  14.151  2.0329  1.3688  1.8586
19116TIP3    H278840   5.150   5.225  14.227 -0.0519  0.7408 -1.6214
19117TIP3   OH278841   2.365   1.092  14.983  0.3995 -0.5586 -0.1773
19117TIP3    H178842   2.288   1.145  14.961 -0.9032 -1.5549  1.7886
19117TIP3    H278843   2.330   1.021  15.037  2.7788 -0.6747  1.2879
19118TIP3   OH278844   4.591   3.474  14.347 -1.2047 -0.2331 -0.2309
19118TIP3    H178845   4.639   3.524  14.281 -3.5251  1.6589 -0.5495
19118TIP3    H278846   4.657   3.451  14.412  0.1613  2.1709 -0.7102
19119TIP3   OH278847   4.108   0.161  16.202  0.3081 -0.3941  0.0375
19119TIP3    H178848   4.125   0.242  16.250 -1.8201  0.0080  0.1959
19119TIP3    H278849   4.163   0.166  16.125  0.7358  0.8717  0.4147
19120TIP3   OH278850   4.741   2.132  15.332  0.5631  0.1094 -0.1733
19120TIP3    H178851   4.679   2.142  15.405  1.5821 -0.7309  0.8362
19120TIP3    H278852   4.688   2.146  15.254 -0.5867  0.9177  0.7224
19121TIP3   OH278853   0.594   5.326   5.861  0.0910  0.0346  0.1541
19121TIP3    H178854   0.636   5.388   5.801  4.5366  0.9150  3.9553
19121TIP3    H278855   0.648   5.247   5.856 -1.4077 -1.0433  0.6213
19122TIP3   OH278856   2.353   4.960   1.170 -0.0557  0.2789  0.9618
19122TIP3    H178857   2.355   5.017   1.247 -1.1276  1.4348  0.1615
19122TIP3    H278858   2.314   4.878   1.202 -1.7967  1.2321  1.3613
19123TIP3   OH278859   0.824   3.059   0.660 -0.3478  0.5935  0.3951
19123TIP3    H178860   0.776   3.130   0.617  1.7225 -0.0432 -3.1539
19123TIP3    H278861   0.790   2.979   0.619  2.2392  0.0129 -0.7317
19124TIP3   OH278862   5.262   3.503  12.158 -0.1650  0.2492 -0.8586
19124TIP3    H178863   5.323   3.447  12.110  0.1537 -0.4260  0.3118
19124TIP3    H278864   5.183   3.450  12.169 -0.5703  0.7252 -1.4036
19125TIP3   OH278865   4.936   4.989   4.972 -1.0727 -0.0766  0.5268
19125TIP3    H178866   4.934   4.894   4.978  0.9749 -0.0736  2.0361
19125TIP3    H278867   4.954   5.018   5.062  0.6791  1.6060 -0.3226
19126TIP3   OH278868   0.909   3.474  16.271  0.4466  0.0283 -0.4434
19126TIP3    H178869   0.894   3.392  16.317 -0.1463  1.6275  2.3074
19126TIP3    H278870   0.845   3.473  16.199 -0.9769 -0.9552  0.8162
19127TIP3   OH278871   2.057   2.167   2.693 -0.1692  0.8415 -0.7883
19127TIP3    H178872   2.009   2.199   2.769  0.9246  0.1288  0.2245
19127TIP3    H278873   2.109   2.094   2.727 -0.5201 -0.2211 -2.4591
19128TIP3   OH278874   1.395   3.006   4.478 -0.0704 -0.0830  0.0245
19128TIP3    H178875   1.392   3.100   4.461 -0.4441 -0.5613 -2.7086
19128TIP3    H278876   1.308   2.986   4.513  1.0852  1.0995  3.8364
19129TIP3   OH278877   5.230   6.723   5.575  0.5307  0.0312 -0.4371
19129TIP3    H178878   5.257   6.772   5.652  0.1114 -0.3160 -0.0703
19129TIP3    H278879   5.286   6.757   5.505  0.7941  0.4669 -0.0219
19130TIP3   OH278880   5.411   5.089  16.731 -0.4766  0.6806  0.1693
19130TIP3    H178881   5.324   5.108  16.767  0.4645  0.9353  2.4003
19130TIP3    H278882   5.468   5.156  16.770  0.8644  0.0118 -0.6032
19131TIP3   OH278883   0.128   0.860   4.686  0.5272  0.2253  0.3660
19131TIP3    H178884   0.108   0.774   4.724  0.5800 -0.4137 -1.0126
19131TIP3    H278885   0.223   0.859   4.675  0.3927 -0.0523 -0.8293
19132TIP3   OH278886   4.678   4.974   3.709  0.1142  0.7597  0.4940
19132TIP3    H178887   4.655   5.058   3.671 -0.5102  1.3527  2.1565
19132TIP3    H278888   4.741   4.995   3.779 -1.0746  0.0003  1.8268
19133TIP3   OH278889   4.143   0.890   0.561  0.3181  0.1965 -0.2823
19133TIP3    H178890   4.146   0.855   0.650  1.2144 -0.4022 -0.5466
19133TIP3    H278891   4.055   0.869   0.530  1.0675 -2.5084 -0.7042
19134TIP3   OH278892   5.627   1.333   1.510  0.4281 -0.2619 -0.8254
19134TIP3    H178893   5.625   1.428   1.524  0.5308 -0.4565  0.6180
19134TIP3    H278894   5.691   1.301   1.575 -0.9484 -1.5033 -0.0612
19135TIP3   OH278895   0.036   2.144  12.219 -0.3380 -0.4058  0.2545
19135TIP3    H178896   0.074   2.232  12.216  2.8578 -1.6630  1.4948
19135TIP3    H278897  -0.025   2.142  12.146  0.4342  2.4410 -0.5500
19136TIP3   OH278898   4.519   2.466  11.940 -0.0557  0.5674 -0.2509
19136TIP3    H178899   4.488   2.554  11.963 -1.4783 -0.3640  1.4962
19136TIP3    H278900   4.467   2.407  11.995  1.6547 -1.3125 -0.5989
19137TIP3   OH278901   0.737   0.368  12.153  0.2621  0.7822 -0.1411
19137TIP3    H178902   0.717   0.305  12.084 -0.5277 -0.4825  1.2051
19137TIP3    H278903   0.822   0.341  12.187  0.5053  1.2067 -0.4237
19138TIP3   OH278904   1.601   5.328   3.703 -0.6815  0.1661  0.1857
19138TIP3    H178905   1.506   5.319   3.706 -0.7333  0.8255  0.5426
19138TIP3    H278906   1.634   5.238   3.702 -1.2394 -0.0973  2.5107
19139TIP3   OH278907   0.573   1.240  12.837 -0.2337 -0.1955 -0.1304
19139TIP3    H178908   0.628   1.263  12.912 -0.8517 -1.8570  0.8602
19139TIP3    H278909   0.632   1.249  12.762  0.8976 -0.1854  0.7288
19140TIP3   OH278910   6.585   2.352   0.884  0.3002  0.0443  0.2675
19140TIP3    H178911   6.662   2.396   0.849 -0.2425  1.2754  0.6089
19140TIP3    H278912   6.512   2.409   0.861 -0.2301  0.1435  2.1012
19141TIP3   OH278913   5.337   5.234  14.971  0.0134  0.2163 -0.3997
19141TIP3    H178914   5.282   5.212  14.896  0.4887 -0.1134 -0.6517
19141TIP3    H278915   5.275   5.259  15.040 -0.5029 -1.2332 -0.3196
19142TIP3   OH278916   3.626   3.604  16.771  0.4225 -0.3192 -0.2613
19142TIP3    H178917   3.617   3.537  16.703  0.1265 -0.0367 -0.5021
19142TIP3    H278918   3.682   3.670  16.732 -1.0710  0.6309 -0.8517
19143TIP3   OH278919   5.878   3.782   5.357  0.3763  0.0184  1.0775
19143TIP3    H178920   5.784   3.792   5.374  0.1321  2.1962 -1.2666
19143TIP3    H278921   5.914   3.753   5.440 -2.4267 -1.2193  1.9194
19144TIP3   OH278922   1.295   1.829   3.224 -0.8434  0.2166 -0.0315
19144TIP3    H178923   1.373   1.859   3.179  0.0114  1.6598  2.3195
19144TIP3    H278924   1.223   1.849   3.164  0.4886 -0.0866 -1.7319
19145TIP3   OH278925   1.790   3.109   0.461 -0.0246  0.2432 -0.0962
19145TIP3    H178926   1.720   3.158   0.503  0.3936  1.0793 -0.3708
19145TIP3    H278927   1.867   3.125   0.515  0.3466  0.7258 -0.7609
19146TIP3   OH278928   3.071   6.754   3.346 -0.3720 -0.1401 -0.0128
19146TIP3    H178929   2.977   6.752   3.364 -0.6858 -0.1021 -1.6269
19146TIP3    H278930   3.101   6.666   3.367 -0.9630 -0.4674 -0.5098
19147TIP3   OH278931   0.377   1.392   3.636 -0.1056 -0.2823 -0.0968
19147TIP3    H178932   0.420   1.476   3.622  0.1459 -0.2577  0.7499
19147TIP3    H278933   0.337   1.370   3.552 -0.1907  0.6904 -0.3131
19148TIP3   OH278934   0.211   2.736  15.683 -0.7062 -0.1022  0.1425
19148TIP3    H178935   0.277   2.709  15.619 -2.9166 -1.8630 -1.4798
19148TIP3    H278936   0.242   2.821  15.715  1.0859  0.2686 -2.3831
19149TIP3   OH278937   2.278   6.181   4.186 -0.5437  0.0691  0.3702
19149TIP3    H178938   2.295   6.266   4.227 -2.3545  0.4474  0.3648
19149TIP3    H278939   2.339   6.121   4.229  1.0118  1.4332  0.1138
19150TIP3   OH278940   1.192   3.532  11.046  0.4810  0.1496  0.2585
19150TIP3    H178941   1.117   3.590  11.033  1.5039  1.6443  0.8912
19150TIP3    H278942   1.233   3.527  10.959 -0.5160 -0.9597 -0.1754
19151TIP3   OH278943   2.254   0.890  15.131  0.0172  0.7852  0.4567
19151TIP3    H178944   2.292   0.845  15.207  0.1201 -1.1810 -0.7383
19151TIP3    H278945   2.162   0.901  15.153  0.3598  1.7034  1.5385
19152TIP3   OH278946   3.409   0.580   3.471 -0.0078 -0.3775  0.4381
19152TIP3    H178947   3.425   0.511   3.407  1.0351  0.7168 -0.5040
19152TIP3    H278948   3.401   0.534   3.555  0.1543 -1.6789 -0.2456
19153TIP3   OH278949   6.377   6.178   2.100  0.3118  0.3624  0.0038
19153TIP3    H178950   6.414   6.266   2.095 -0.3974  0.6702  0.0683
19153TIP3    H278951   6.358   6.155   2.009 -1.0903  0.9766  0.1190
19154TIP3   OH278952   1.268   5.938  14.872  0.0253 -0.2984  0.4075
19154TIP3    H178953   1.309   5.998  14.935 -1.0732  0.0678  0.7791
19154TIP3    H278954   1.287   5.978  14.787  1.5826 -0.8379  0.4740
19155TIP3   OH278955   1.797   1.082  14.669 -0.6154 -0.1597  0.3557
19155TIP3    H178956   1.722   1.140  14.655 -0.2032  0.5072  0.8988
19155TIP3    H278957   1.873   1.138  14.655 -0.2122 -0.3124  1.9472
19156TIP3   OH278958   2.465   1.737   0.336  0.1344  0.0851  0.0056
19156TIP3    H178959   2.413   1.689   0.400  1.2513  0.1315  0.9682
19156TIP3    H278960   2.548   1.690   0.331 -0.0496 -0.1080 -1.6669
19157TIP3   OH278961   1.743   5.721   2.856 -0.0789 -0.3352 -0.3313
19157TIP3    H178962   1.769   5.682   2.772  0.1789 -0.6972 -0.0819
19157TIP3    H278963   1.793   5.803   2.860 -0.0436 -0.3469 -0.5046
19158TIP3   OH278964   5.325   5.720   5.293 -0.0506 -0.0503  0.3925
19158TIP3    H178965   5.284   5.804   5.276 -1.4477 -0.5428  1.2009
19158TIP3    H278966   5.329   5.677   5.207  0.0231  0.5500  0.0931
19159TIP3   OH278967   1.124   2.593   3.621  0.3413 -0.1707  0.0357
19159TIP3    H178968   1.029   2.594   3.617  0.3141 -0.9939  0.4799
19159TIP3    H278969   1.147   2.502   3.640  1.2661 -0.2226 -1.2747
19160TIP3   OH278970   3.856   5.118  12.999 -0.3351  0.3786 -0.2250
19160TIP3    H178971   3.887   5.143  13.086  0.1013  0.6928 -0.4684
19160TIP3    H278972   3.761   5.124  13.004 -0.3001  0.5779  0.1773
19161TIP3   OH278973   4.138   0.541   5.262 -0.0722  0.5271  0.4010
19161TIP3    H178974   4.143   0.547   5.167  2.4072  1.8083  0.5572
19161TIP3    H278975   4.086   0.463   5.279 -0.6282  0.3360 -1.9940
19162TIP3   OH278976   3.034   1.573   2.541  0.4883  0.0768 -0.3634
19162TIP3    H178977   3.050   1.585   2.447  0.6878  2.0680 -0.0891
19162TIP3    H278978   2.944   1.541   2.546  0.1566  0.8673 -1.1876
19163TIP3   OH278979   1.504   3.511  13.339  0.3144 -0.0149 -0.5213
19163TIP3    H178980   1.486   3.592  13.386  1.0377  0.2699 -0.7235
19163TIP3    H278981   1.424   3.493  13.290  0.1694  0.6157 -0.5236
19164TIP3   OH278982   3.775   1.215   4.170  1.0280  0.4266  0.1300
19164TIP3    H178983   3.761   1.300   4.213  0.2866 -0.1649  1.0992
19164TIP3    H278984   3.725   1.154   4.223 -0.1572 -0.2933 -1.7573
19165TIP3   OH278985   0.329   3.719  13.943  0.1811 -0.6557  0.7060
19165TIP3    H178986   0.372   3.729  14.028  0.6190  1.5050  0.2549
19165TIP3    H278987   0.389   3.759  13.880 -0.4557 -1.6266 -0.5423
19166TIP3   OH278988   1.736   3.034  11.201 -0.2744 -0.1479  0.0285
19166TIP3    H178989   1.737   3.123  11.165  0.4746 -0.1651 -0.0045
19166TIP3    H278990   1.724   2.978  11.125 -0.0270 -0.1118 -0.0384
19167TIP3   OH278991   2.563   2.431   1.570 -0.1032  0.3168  0.1044
19167TIP3    H178992   2.604   2.499   1.624  0.3194  0.2376 -0.1132
19167TIP3    H278993   2.568   2.352   1.624  0.0929  0.2927  0.0523
19168TIP3   OH278994   6.041   5.136  15.163  0.1692  0.0008 -0.0372
19168TIP3    H178995   6.042   5.229  15.187 -2.2630 -0.5278  2.4279
19168TIP3    H278996   6.028   5.135  15.069  0.0856  2.1748 -0.0665
19169TIP3   OH278997   6.296   6.466   2.410 -0.4200  0.0710 -0.4853
19169TIP3    H178998   6.243   6.539   2.442 -0.6589 -1.1665  2.0878
19169TIP3    H278999   6.280   6.464   2.316 -3.3110  1.0540 -0.0643
19170TIP3   OH279000   0.603   1.628   5.981  0.0177 -0.2983 -0.3844
19170TIP3    H179001   0.604   1.640   6.076  1.6768  1.2108 -0.5748
19170TIP3    H279002   0.641   1.541   5.968 -1.1998 -0.9603  0.3754
19171TIP3   OH279003   4.686   3.166   3.210  0.1245 -0.7102  0.1701
19171TIP3    H179004   4.713   3.151   3.119  1.1323 -2.9790  0.8095
19171TIP3    H279005   4.591   3.153   3.209  0.3766 -2.6426 -0.2102
19172TIP3   OH279006   0.618   1.331  13.299 -0.0250 -0.0636 -0.1460
19172TIP3    H179007   0.627   1.379  13.382 -1.5528 -2.0839  1.2415
19172TIP3    H279008   0.525   1.335  13.279  0.2807  0.0863 -1.5976
19173TIP3   OH279009   4.156   4.812   0.671 -0.1484 -0.0227  0.2866
19173TIP3    H179010   4.107   4.741   0.628 -0.8079  0.7383 -0.2184
19173TIP3    H279011   4.130   4.891   0.625 -1.0575  0.8482  2.2574
19174TIP3   OH279012   2.538   2.421   1.296 -0.6355  0.1980  0.3280
19174TIP3    H179013   2.572   2.444   1.383  1.5673  0.6391 -0.6195
19174TIP3    H279014   2.574   2.334   1.278 -3.5254 -1.2029  1.0795
19175TIP3   OH279015   0.136   0.764  14.493  0.2177  0.2781  0.4040
19175TIP3    H179016   0.122   0.671  14.475  0.8771  0.1015  0.7927
19175TIP3    H279017   0.143   0.770  14.589 -1.1543  0.9193  0.4901
19176TIP3   OH279018   5.966   6.325   6.267  0.1819  0.0339 -0.5234
19176TIP3    H179019   5.940   6.256   6.329  0.3307  0.2318 -0.2366
19176TIP3    H279020   5.997   6.396   6.323  3.4208 -0.9983 -0.8974
19177TIP3   OH279021   0.396   0.159   4.737  0.5961 -0.1484  0.6081
19177TIP3    H179022   0.475   0.213   4.747 -0.2085  1.2162 -0.2025
19177TIP3    H279023   0.345   0.176   4.816  0.2989  0.3634  0.3090
19178TIP3   OH279024   1.966   3.850  15.451  0.4418  0.1684 -0.1431
19178TIP3    H179025   1.894   3.875  15.509  0.7071  1.4278 -0.3389
19178TIP3    H279026   1.978   3.926  15.394  1.8754 -0.0541 -0.1633
19179TIP3   OH279027   1.340   5.165   4.857 -0.3684  0.0205 -0.3152
19179TIP3    H179028   1.265   5.222   4.840 -0.2295  0.8614  1.7331
19179TIP3    H279029   1.377   5.148   4.771 -2.0371  0.7931 -1.2150
19180TIP3   OH279030   2.839   2.398  10.389  0.3669 -0.4234 -0.8904
19180TIP3    H179031   2.900   2.469  10.409 -1.2694  1.1473 -1.3343
19180TIP3    H279032   2.768   2.440  10.340 -1.5519 -2.0246  0.4248
19181TIP3   OH279033   3.212   5.848  14.497  0.1711  0.3082 -0.4710
19181TIP3    H179034   3.238   5.939  14.480 -0.5282  0.6632  0.3346
19181TIP3    H279035   3.138   5.833  14.439  0.0225  0.3848 -0.2991
19182TIP3   OH279036   6.370   2.860  14.004  0.2543  0.2951 -0.0796
19182TIP3    H179037   6.343   2.894  13.919  0.3123  0.8188  0.1049
19182TIP3    H279038   6.463   2.885  14.011  0.6208 -0.9348 -0.4439
19183TIP3   OH279039   2.451   4.396  11.285  0.2644  0.1869 -0.8128
19183TIP3    H179040   2.368   4.396  11.239 -0.1932 -1.4314 -0.0472
19183TIP3    H279041   2.516   4.372  11.219 -0.0166  0.4544 -1.1861
19184TIP3   OH279042   5.601   4.821  13.090 -0.7757  0.3276 -0.3626
19184TIP3    H179043   5.658   4.770  13.147 -1.9694 -0.0075  0.5644
19184TIP3    H279044   5.516   4.821  13.135 -1.1411  1.9975 -1.0140
19185TIP3   OH279045   4.323   1.269  15.694 -0.0127  0.2334 -0.0405
19185TIP3    H179046   4.371   1.313  15.763 -0.0616  1.4222 -0.7484
19185TIP3    H279047   4.389   1.245  15.629 -0.1716  0.5771 -0.3357
19186TIP3   OH279048   3.743   0.977   0.803  0.1536  0.0060 -0.1228
19186TIP3    H179049   3.824   0.960   0.851 -0.5052  2.1407  1.8212
19186TIP3    H279050   3.757   1.061   0.760 -0.9838  0.3252  0.1185
19187TIP3   OH279051   1.453   5.401  13.623  0.0708 -0.2481 -0.6240
19187TIP3    H179052   1.545   5.403  13.596  0.1525  0.1768 -0.3307
19187TIP3    H279053   1.411   5.467  13.568  0.4596  1.4401  1.0233
19188TIP3   OH279054   5.068   5.560   3.094 -0.2022  0.1247  0.1835
19188TIP3    H179055   5.163   5.572   3.091 -0.1406  0.0765  1.7549
19188TIP3    H279056   5.048   5.508   3.016  1.2434 -1.0867  0.6018
19189TIP3   OH279057   2.726   1.933   5.506  0.7988 -0.1189 -0.8615
19189TIP3    H179058   2.639   1.945   5.468 -0.2196 -2.5778  0.5396
19189TIP3    H279059   2.721   1.976   5.591  0.9458 -0.2272 -0.7973
19190TIP3   OH279060   0.576   4.008  12.135  0.1358 -0.1844 -0.2894
19190TIP3    H179061   0.575   3.929  12.189  0.0416 -0.8909 -1.3134
19190TIP3    H279062   0.490   4.047  12.150  0.1248 -0.3539  0.1050
19191TIP3   OH279063   2.087   0.167  11.879 -0.5176  0.3065  0.1615
19191TIP3    H179064   2.052   0.088  11.837 -1.5461  0.8310  0.0073
19191TIP3    H279065   2.130   0.135  11.959  0.7239 -0.6022 -0.8509
19192TIP3   OH279066   1.287   6.167   1.805 -0.0757 -0.0686 -0.3906
19192TIP3    H179067   1.338   6.238   1.767  0.7302 -0.2703  0.2951
19192TIP3    H279068   1.205   6.208   1.832  0.1140  0.4576 -0.6148
19193TIP3   OH279069   5.049   6.061   1.096  0.3156 -0.0328  0.3280
19193TIP3    H179070   5.127   6.016   1.063  0.2777  0.0572  0.1087
19193TIP3    H279071   5.003   5.995   1.147  0.8528  0.0866  0.9844
19194TIP3   OH279072   1.225   6.059   0.632 -0.0941  0.1390  0.2588
19194TIP3    H179073   1.295   6.097   0.684  1.7235 -0.9019 -1.3382
19194TIP3    H279074   1.220   5.968   0.662  0.5348 -0.2934 -0.9077
19195TIP3   OH279075   5.973   4.173   4.625 -0.1170  0.3186  0.0267
19195TIP3    H179076   5.885   4.182   4.663 -0.0123  1.6745 -0.0018
19195TIP3    H279077   5.992   4.261   4.590  1.5689  0.2475  0.7351
19196TIP3   OH279078   5.377   6.149  12.109  0.5677  0.1314  0.5417
19196TIP3    H179079   5.288   6.167  12.140  0.2734  0.5108 -0.5208
19196TIP3    H279080   5.392   6.212  12.038  1.9422  0.5392  1.1691
19197TIP3   OH279081   3.151   3.326  16.142 -0.3898  0.2854  0.3750
19197TIP3    H179082   3.198   3.273  16.207 -0.5395  0.2603  0.4607
19197TIP3    H279083   3.178   3.289  16.058 -2.0576 -1.2369  0.4822
19198TIP3   OH279084   6.312   0.801  13.297 -0.3298 -0.0644 -0.0154
19198TIP3    H179085   6.366   0.877  13.278 -1.5358  0.9249  0.4693
19198TIP3    H279086   6.223   0.827  13.273 -0.6827 -1.4882 -0.3244
19199TIP3   OH279087   0.615   0.732   1.827 -0.0429  0.3424  0.0787
19199TIP3    H179088   0.613   0.640   1.853  0.4844  0.9910  2.6141
19199TIP3    H279089   0.628   0.730   1.732  1.4327 -2.1881  0.2700
19200TIP3   OH279090   5.263   4.890  12.927  0.2014 -0.0335  0.1617
19200TIP3    H179091   5.244   4.812  12.874 -2.1907  0.0264  0.8724
19200TIP3    H279092   5.238   4.865  13.016  1.8676  0.7070  0.8570
19201TIP3   OH279093   1.222   0.331  15.398 -0.4170 -0.0756  0.4645
19201TIP3    H179094   1.232   0.339  15.303  0.5835  1.5438  0.6870
19201TIP3    H279095   1.137   0.369  15.417  0.7243  2.5533  0.5443
19202TIP3   OH279096   5.990   2.026  15.105 -0.6836  0.3318 -0.4852
19202TIP3    H179097   6.008   1.945  15.153 -0.9251  1.4221  1.5151
19202TIP3    H279098   6.023   2.010  15.017  1.3371 -1.1543  0.5000
19203TIP3   OH279099   2.270   5.032  13.869  0.2179  0.0060  0.4138
19203TIP3    H179100   2.258   5.106  13.928 -1.8903  0.8876 -1.0807
19203TIP3    H279101   2.188   4.983  13.876 -0.5263  0.7545 -2.6117
19204TIP3   OH279102   1.226   2.226   6.092  0.2483 -0.0848 -0.4729
19204TIP3    H179103   1.182   2.166   6.032  2.0623  0.7368 -2.6788
19204TIP3    H279104   1.318   2.224   6.065  0.8483  1.4791  1.3065
19205TIP3   OH279105   0.262   3.456  13.960  0.0509 -0.5214 -0.1256
19205TIP3    H179106   0.273   3.551  13.964  0.7871 -0.6278  0.3408
19205TIP3    H279107   0.342   3.424  13.918 -0.8362 -0.8083 -1.6784
19206TIP3   OH279108   2.693   5.524  16.239  0.6588 -0.1148  0.4861
19206TIP3    H179109   2.657   5.469  16.169  1.4644  0.9429 -0.7823
19206TIP3    H279110   2.634   5.599  16.242  2.2449  1.2118 -1.0100
19207TIP3   OH279111   5.321   5.565   4.962  0.2021  0.0345  0.2527
19207TIP3    H179112   5.323   5.627   4.890 -0.4875  0.8527  0.9197
19207TIP3    H279113   5.314   5.479   4.920 -1.3105  0.5766 -0.6468
19208TIP3   OH279114   4.835   6.034   2.389 -0.1435  0.0502  0.2002
19208TIP3    H179115   4.759   6.089   2.370 -1.3286 -1.6351 -0.0331
19208TIP3    H279116   4.854   6.050   2.481 -2.1461 -1.1431  0.8457
19209TIP3   OH279117   1.027   4.058  14.710  0.0261 -0.2600 -0.5169
19209TIP3    H179118   1.076   4.112  14.771  0.1495 -0.7370 -0.1899
19209TIP3    H279119   0.961   4.117  14.672  0.4577  0.2284 -0.5111
19210TIP3   OH279120   0.873   6.397   0.660  0.8694  0.1585  0.3090
19210TIP3    H179121   0.814   6.374   0.732 -0.2019  0.6082 -0.4142
19210TIP3    H279122   0.959   6.367   0.689  0.0963 -1.5752  0.8945
19211TIP3   OH279123   4.497   0.007  17.115 -0.1645  0.6549 -0.0701
19211TIP3    H179124   4.467  -0.013  17.026 -1.4954  0.9592  0.2997
19211TIP3    H279125   4.420  -0.004  17.170  0.7874 -0.1038  1.1519
19212TIP3   OH279126   6.008   3.612   0.167 -0.0020  0.1011  0.5613
19212TIP3    H179127   6.042   3.526   0.142  0.3597  0.1409  0.9266
19212TIP3    H279128   5.970   3.647   0.086 -1.4961 -1.0324  0.7439
19213TIP3   OH279129   6.595   5.849   3.789  0.4150 -0.4113 -0.3419
19213TIP3    H179130   6.528   5.798   3.833 -0.5877  1.1410 -0.0441
19213TIP3    H279131   6.614   5.921   3.849  0.9560  0.2420 -1.2806
19214TIP3   OH279132   4.617   5.180   2.515 -0.7063  0.4024  0.2227
19214TIP3    H179133   4.602   5.209   2.425  0.1174  0.6409  0.1575
19214TIP3    H279134   4.536   5.135   2.540 -1.2249  0.9980 -0.3726
19215TIP3   OH279135   5.495   3.166   4.574  0.2695  0.6743  0.2859
19215TIP3    H179136   5.470   3.176   4.483  0.0556  0.4689  0.3202
19215TIP3    H279137   5.508   3.255   4.606  1.4872  0.6961 -0.2578
19216TIP3   OH279138   3.591   2.002  16.946  0.2274 -0.0465 -0.0484
19216TIP3    H179139   3.640   1.960  17.016 -0.5447  1.0558  1.1866
19216TIP3    H279140   3.656   2.024  16.880  0.8006 -2.1126 -0.1966
19217TIP3   OH279141   6.235   1.655   4.887  0.2169 -0.3761 -0.4919
19217TIP3    H179142   6.212   1.586   4.949  3.9515 -0.7731  0.5879
19217TIP3    H279143   6.275   1.609   4.813 -0.3616  0.4149 -1.3148
19218TIP3   OH279144   6.384   4.515   6.000  0.0400  0.2170  0.9659
19218TIP3    H179145   6.410   4.486   6.087  0.8803 -1.6362  0.1409
19218TIP3    H279146   6.437   4.462   5.940 -0.5062  1.4521 -0.6809
19219TIP3   OH279147   4.252   4.840   0.201  0.3365  0.2551 -0.6656
19219TIP3    H179148   4.220   4.763   0.247 -0.1143  0.4715 -0.6157
19219TIP3    H279149   4.296   4.892   0.268  1.4087 -0.3748 -0.8701
19220TIP3   OH279150   1.484   4.902   0.998  1.3012  0.0890  0.7828
19220TIP3    H179151   1.512   4.992   1.017  0.2689  0.3317  1.1749
19220TIP3    H279152   1.420   4.883   1.066 -1.1971  0.3557 -1.4464
19221TIP3   OH279153   5.670   5.821   5.563 -0.0163 -0.9222  0.1745
19221TIP3    H179154   5.695   5.857   5.478 -0.1941 -1.0530  0.0672
19221TIP3    H279155   5.584   5.859   5.581 -0.0331 -0.9909  0.2377
19222TIP3   OH279156   4.606   5.508  12.669 -0.0383 -0.1650  0.3290
19222TIP3    H179157   4.537   5.475  12.612  0.1589 -1.2069  0.6878
19222TIP3    H279158   4.564   5.520  12.754  0.2998 -1.1354  0.6379
19223TIP3   OH279159   3.400   3.155   2.727  0.9010 -0.4340 -0.0463
19223TIP3    H179160   3.422   3.115   2.643  2.4372 -0.8718  0.5403
19223TIP3    H279161   3.482   3.151   2.777  0.6813  2.0869  0.5643
19224TIP3   OH279162   1.233   4.211  16.063  0.7480 -0.0042  0.8218
19224TIP3    H179163   1.139   4.193  16.064  0.3689  1.8066 -0.5845
19224TIP3    H279164   1.258   4.209  16.155 -0.5580 -0.9994  1.1748
19225TIP3   OH279165   3.320   4.473  10.930 -0.2967 -0.6917 -0.3335
19225TIP3    H179166   3.285   4.543  10.874 -0.2589  0.4309  1.0154
19225TIP3    H279167   3.402   4.448  10.889 -1.2264 -1.2482 -1.8666
19226TIP3   OH279168   1.452   1.635   3.050  0.5830 -0.0001  0.3673
19226TIP3    H179169   1.404   1.635   2.967 -1.4394  0.6921  1.4823
19226TIP3    H279170   1.383   1.635   3.117  2.1697 -0.1697  2.0414
19227TIP3   OH279171   3.167   4.296  13.930 -0.0458  0.1212 -0.2368
19227TIP3    H179172   3.120   4.215  13.912 -0.0008  0.1588 -0.5291
19227TIP3    H279173   3.103   4.352  13.974 -0.0207 -0.1441  0.1395
19228TIP3   OH279174   2.289   1.951   2.301 -0.0086  0.2145 -0.9862
19228TIP3    H179175   2.382   1.963   2.322 -0.2202  0.1030  0.0314
19228TIP3    H279176   2.256   1.894   2.370 -1.5037  2.5856  0.3008
19229TIP3   OH279177   5.090   1.614  15.615  0.7346  0.2256  0.3074
19229TIP3    H179178   5.000   1.596  15.641  0.6686 -1.5334 -1.0401
19229TIP3    H279179   5.136   1.531  15.629  1.7818  0.6588 -0.4900
19230TIP3   OH279180   4.895   0.865  13.402 -0.2373 -0.0179 -0.5675
19230TIP3    H179181   4.828   0.917  13.446 -1.3834  1.9120 -4.3341
19230TIP3    H279182   4.923   0.920  13.328  4.2769 -1.5086 -0.1254
19231TIP3   OH279183   1.963   6.365   0.878 -0.0607 -0.0924  0.4940
19231TIP3    H179184   2.035   6.305   0.897  0.2885 -0.1572 -0.9409
19231TIP3    H279185   1.941   6.347   0.786 -0.4002  1.4817  0.2552
19232TIP3   OH279186   4.420   0.251  16.801 -0.6543 -0.1764 -0.1420
19232TIP3    H179187   4.395   0.258  16.709 -2.5899  0.1169  0.3903
19232TIP3    H279188   4.451   0.339  16.824 -0.2493 -0.2272 -0.4900
19233TIP3   OH279189   4.526   5.588   2.832 -0.3018 -0.3392  0.1300
19233TIP3    H179190   4.443   5.635   2.846 -0.8835 -1.2025 -0.3541
19233TIP3    H279191   4.527   5.570   2.737  0.3195 -0.5443  0.1760
19234TIP3   OH279192   5.489   2.032   4.093  0.3892 -0.2958  0.0560
19234TIP3    H179193   5.583   2.015   4.095  0.7532  1.0698 -2.7711
19234TIP3    H279194   5.452   1.970   4.156  3.1601 -0.8579  1.2060
19235TIP3   OH279195   3.269   3.159  16.333 -0.8903 -0.4781  0.2335
19235TIP3    H179196   3.333   3.089  16.342 -0.5904 -0.0593  1.5062
19235TIP3    H279197   3.268   3.201  16.419 -0.3795  1.6681 -0.7861
19236TIP3   OH279198   0.427   2.080   2.088 -0.0377 -0.4376 -0.3080
19236TIP3    H179199   0.452   2.170   2.107 -3.6116  0.8436 -1.3061
19236TIP3    H279200   0.470   2.060   2.005  0.8514  0.2887 -0.0306
19237TIP3   OH279201   3.534   6.506  15.812  0.2899 -0.1103  0.0761
19237TIP3    H179202   3.497   6.576  15.866 -1.9225 -1.1717 -0.0192
19237TIP3    H279203   3.482   6.428  15.834 -0.9072 -0.4862 -3.8202
19238TIP3   OH279204   1.748   4.737   2.069 -0.0350 -0.0101 -0.1252
19238TIP3    H179205   1.676   4.778   2.021  0.3119 -0.0747 -0.7012
19238TIP3    H279206   1.815   4.805   2.075 -0.0334 -0.0369  0.1735
19239TIP3   OH279207   0.487   4.935   5.704 -0.9345 -0.4448  0.0693
19239TIP3    H179208   0.445   4.919   5.619  2.1949 -0.1756 -1.6384
19239TIP3    H279209   0.466   5.026   5.724 -0.5144 -0.0628 -1.1559
19240TIP3   OH279210   5.172   4.357  13.911  0.5552  0.1955 -0.0787
19240TIP3    H179211   5.173   4.264  13.932 -0.4399  0.1220 -0.3494
19240TIP3    H279212   5.193   4.361  13.818  2.4345  0.3658  0.3328
19241TIP3   OH279213   2.725   3.629   4.104  0.1581  0.1793  0.2838
19241TIP3    H179214   2.774   3.567   4.050 -0.9202 -0.0479 -0.4392
19241TIP3    H279215   2.636   3.595   4.106 -0.2517  1.2440  0.5869
19242TIP3   OH279216   2.402   3.367   5.697  0.1763 -0.7414 -0.6150
19242TIP3    H179217   2.317   3.324   5.699 -0.7797  1.1700  1.6069
19242TIP3    H279218   2.463   3.301   5.732 -0.7725 -1.3107 -0.0161
19243TIP3   OH279219   2.805   3.324   2.994  0.0363  0.3291 -0.8472
19243TIP3    H179220   2.861   3.399   3.015 -1.6717  1.5983 -0.7469
19243TIP3    H279221   2.820   3.263   3.066 -0.8581  1.8888  0.7015
19244TIP3   OH279222   6.757   3.652  13.523 -0.4683  0.0297 -0.8478
19244TIP3    H179223   6.694   3.705  13.571 -0.6402  0.0555 -1.1001
19244TIP3    H279224   6.749   3.682  13.432 -0.5111 -0.3764 -0.9774
19245TIP3   OH279225   1.951   2.738   0.645 -0.8682 -0.3506 -0.0982
19245TIP3    H179226   1.867   2.721   0.689 -0.5156 -0.0305  0.7051
19245TIP3    H279227   1.931   2.730   0.551 -2.0278  0.7560  0.0442
19246TIP3   OH279228   0.840   3.300  11.098  0.0964 -0.2090  0.2921
19246TIP3    H179229   0.928   3.298  11.061  0.7537  0.6117  1.7725
19246TIP3    H279230   0.798   3.376  11.057  1.1169  1.2232  1.8227
19247TIP3   OH279231   4.030   0.120  13.190  0.0952 -0.0129  0.0989
19247TIP3    H179232   3.942   0.153  13.206  0.2653  0.5767 -0.1597
19247TIP3    H279233   4.072   0.120  13.276 -0.2415 -0.5673  0.2683
19248TIP3   OH279234   0.035   5.223  16.974 -0.4310  0.2392  0.3535
19248TIP3    H179235   0.001   5.189  17.057 -1.2476 -0.5323 -0.2841
19248TIP3    H279236   0.052   5.315  16.991 -2.4421  0.5496  0.8295
19249TIP3   OH279237   4.870   6.430   6.295 -0.3768 -0.6608 -0.3952
19249TIP3    H179238   4.944   6.389   6.339  0.6877  0.7510 -0.8206
19249TIP3    H279239   4.854   6.510   6.345 -0.4492 -0.0622 -1.3579
19250TIP3   OH279240   0.803   3.022  12.755  0.2267 -0.2004  0.3376
19250TIP3    H179241   0.766   2.947  12.709  0.5870 -0.8610  1.1320
19250TIP3    H279242   0.750   3.031  12.834  0.3496  0.2282  0.3753
19251TIP3   OH279243   3.408   4.914   3.340 -0.4418 -0.6340  0.6374
19251TIP3    H179244   3.337   4.862   3.301 -0.2328  0.3169 -1.0438
19251TIP3    H279245   3.397   4.901   3.434 -1.2812 -2.5643  0.3162
19252TIP3   OH279246   0.684   3.952  14.461  0.1458  0.1255 -0.3449
19252TIP3    H179247   0.725   4.018  14.404  1.2728 -0.1117  0.1786
19252TIP3    H279248   0.710   3.978  14.549  3.6636 -3.0116 -0.3282
19253TIP3   OH279249   2.661   2.777   0.106 -0.5701  0.2770 -0.1547
19253TIP3    H179250   2.695   2.841   0.168  0.4121 -0.7086  0.3409
19253TIP3    H279251   2.566   2.785   0.112 -0.4532  1.8525 -0.2817
19254TIP3   OH279252   0.628   1.955   3.749  0.4241 -0.3791  0.0547
19254TIP3    H179253   0.564   2.007   3.701 -0.6712 -1.2823  0.5229
19254TIP3    H279254   0.698   2.017   3.771 -1.1340  1.0382  1.1326
19255TIP3   OH279255   0.332   5.778   5.241 -0.0739  0.0339  0.0415
19255TIP3    H179256   0.396   5.787   5.311  1.3070 -1.1345 -1.0384
19255TIP3    H279257   0.247   5.776   5.286  0.6690  1.1846  1.5127
19256TIP3   OH279258   3.705   0.985   1.177  0.0663 -0.0990 -0.0718
19256TIP3    H179259   3.760   1.026   1.111  0.0906 -0.0311 -0.0088
19256TIP3    H279260   3.737   1.019   1.260 -1.2554  1.3751 -0.1403
19257TIP3   OH279261   2.764   3.214   2.728 -0.5074  0.0804  0.3388
19257TIP3    H179262   2.851   3.235   2.694 -0.5019  0.3866  0.5402
19257TIP3    H279263   2.759   3.259   2.813 -2.1462  2.9504 -1.1938
19258TIP3   OH279264   0.982   3.628   0.502  0.2176  0.4317  0.4859
19258TIP3    H179265   1.074   3.634   0.475  0.1329  1.9119  0.4733
19258TIP3    H279266   0.982   3.656   0.594 -0.1460 -0.0423  0.6292
19259TIP3   OH279267   6.505   3.061  12.647 -0.3848 -0.1145 -0.2723
19259TIP3    H179268   6.561   3.099  12.715 -0.2903 -0.9236  0.1073
19259TIP3    H279269   6.565   3.035  12.578 -0.4496  0.4186 -0.5322
19260TIP3   OH279270   1.005   2.972  14.889 -0.6271 -0.2071 -0.5177
19260TIP3    H179271   1.025   2.996  14.799  0.3940 -2.2381 -0.8462
19260TIP3    H279272   0.911   2.954  14.889 -0.7315  0.3281 -1.0478
19261TIP3   OH279273   6.232   1.335   1.023 -0.1954  0.3500  0.2634
19261TIP3    H179274   6.182   1.417   1.024  1.7237  1.5475  0.0013
19261TIP3    H279275   6.291   1.342   1.098 -0.2823 -0.9879  0.4769
19262TIP3   OH279276   1.636   5.013  12.553 -0.5016  0.0879 -0.2459
19262TIP3    H179277   1.630   5.058  12.469  1.0372 -1.7793 -1.3941
19262TIP3    H279278   1.676   4.929  12.533 -0.9869 -0.7897  2.2291
19263TIP3   OH279279   2.489   5.731   2.019  0.6476 -0.6336  0.7985
19263TIP3    H179280   2.443   5.729   1.935  1.1113 -2.5089  0.5529
19263TIP3    H279281   2.515   5.822   2.030  2.0562 -0.6519 -1.9141
19264TIP3   OH279282   4.949   5.033  15.060  0.4692  0.2621 -0.6338
19264TIP3    H179283   5.028   5.024  15.007  1.0857  1.3235  0.0803
19264TIP3    H279284   4.943   5.127  15.078  0.1943 -0.0619  1.0394
19265TIP3   OH279285   6.483   1.011  15.056 -0.4937 -0.0172  0.3167
19265TIP3    H179286   6.504   1.055  15.138 -0.7744  2.4862 -0.8899
19265TIP3    H279287   6.539   1.054  14.991 -1.0955 -1.1742 -1.0065
19266TIP3   OH279288   3.650   2.933  16.978 -0.2324 -0.0334  0.3700
19266TIP3    H179289   3.668   3.011  16.925 -1.1381  0.4755  0.7992
19266TIP3    H279290   3.658   2.860  16.917 -1.8891  0.5993 -0.6393
19267TIP3   OH279291   6.524   6.441  16.813 -0.2749 -0.2641  0.1512
19267TIP3    H179292   6.498   6.532  16.827  2.5130  0.5994  0.0454
19267TIP3    H279293   6.610   6.434  16.854  0.7339 -2.1252 -2.1586
19268TIP3   OH279294   5.824   1.453   4.660  0.0941 -0.0736  0.7251
19268TIP3    H179295   5.859   1.470   4.747  2.9610 -2.7602  0.1810
19268TIP3    H279296   5.754   1.389   4.674  1.2438 -1.2923  0.9888
19269TIP3   OH279297   2.066   4.502   2.656 -0.5329  0.1296  0.0726
19269TIP3    H179298   2.009   4.555   2.712  0.2909  1.2129 -0.0818
19269TIP3    H279299   2.025   4.506   2.569 -1.6770 -1.3473  0.5390
19270TIP3   OH279300   2.436   4.486   3.912 -0.1401  0.5701  0.6246
19270TIP3    H179301   2.399   4.404   3.946  1.2402 -0.2408  0.1931
19270TIP3    H279302   2.375   4.513   3.844  0.0222 -0.7481 -0.0679
19271TIP3   OH279303   0.244   6.697  12.038  0.0035  0.1566 -0.2145
19271TIP3    H179304   0.335   6.680  12.061  0.4096 -0.5436 -2.2243
19271TIP3    H279305   0.194   6.661  12.111  1.3247  0.4467  0.8492
19272TIP3   OH279306   0.413   5.751  16.155 -0.2033  0.4140  0.4566
19272TIP3    H179307   0.367   5.779  16.076  1.2968 -0.2061 -0.6543
19272TIP3    H279308   0.404   5.826  16.215 -1.3548  0.8868 -0.2893
19273TIP3   OH279309   3.043   6.498  13.273 -0.2859  0.3280  0.2658
19273TIP3    H179310   2.962   6.473  13.319 -0.7047 -0.2093 -0.7432
19273TIP3    H279311   3.056   6.428  13.208 -0.5448  1.8286 -1.4449
19274TIP3   OH279312   5.698   6.661   6.191  0.0932  0.1451  0.0173
19274TIP3    H179313   5.700   6.565   6.185 -1.6406  0.1430 -1.2940
19274TIP3    H279314   5.649   6.679   6.271 -1.0900 -0.1102 -0.6248
19275TIP3   OH279315   4.863   2.433   3.161  0.2983  0.6648  0.5870
19275TIP3    H179316   4.938   2.422   3.219  0.0255 -0.8227  0.6809
19275TIP3    H279317   4.792   2.385   3.204 -0.3326  0.8886 -0.1886
19276TIP3   OH279318   2.899   6.434  10.521 -0.3739 -0.6869 -0.0076
19276TIP3    H179319   2.893   6.345  10.555  1.2500 -0.5301  0.7550
19276TIP3    H279320   2.983   6.436  10.475 -0.2903  0.5217  0.1871
19277TIP3   OH279321   1.370   1.903   4.220 -0.7436  0.2030  0.3706
19277TIP3    H179322   1.303   1.968   4.198 -1.2384  0.2761  2.0688
19277TIP3    H279323   1.331   1.850   4.289  0.8242  0.0417  1.1684
19278TIP3   OH279324   2.389   0.850   1.886 -0.6176  0.1045 -0.3949
19278TIP3    H179325   2.478   0.826   1.909 -0.4670  0.0418 -1.0298
19278TIP3    H279326   2.360   0.908   1.957  0.3654  1.1488 -0.8228
19279TIP3   OH279327   6.790   4.274   5.877 -0.0616 -0.3009 -0.2983
19279TIP3    H179328   6.860   4.330   5.910 -0.1265 -0.9898  1.0602
19279TIP3    H279329   6.719   4.334   5.855 -0.1309  0.1624  1.1563
19280TIP3   OH279330   4.000   4.259  17.085  0.0658 -0.0014  0.5421
19280TIP3    H179331   3.938   4.282  17.016 -0.0453  1.3398  1.0655
19280TIP3    H279332   4.086   4.281  17.048  0.1125 -0.4936  0.3554
19281TIP3   OH279333   3.903   5.668   0.794 -0.0742  0.4463  0.3239
19281TIP3    H179334   3.966   5.648   0.725 -0.9421 -1.1463 -0.0249
19281TIP3    H279335   3.820   5.678   0.748 -0.5915 -0.2588  1.1042
19282TIP3   OH279336   6.787   0.628   2.266  0.3060 -0.2669  0.2371
19282TIP3    H179337   6.869   0.671   2.292 -0.7220  0.3065  2.7227
19282TIP3    H279338   6.724   0.656   2.333 -1.7217 -1.3362 -1.1898
19283TIP3   OH279339   1.204   5.322  14.874  0.0568  0.0035  0.1134
19283TIP3    H179340   1.169   5.333  14.963 -0.6415 -0.9484 -0.0293
19283TIP3    H279341   1.296   5.301  14.887 -0.3491 -1.5553  0.7092
19284TIP3   OH279342   5.585   1.181  17.237 -0.3066 -0.3099 -0.3282
19284TIP3    H179343   5.555   1.090  17.241 -1.2404 -0.0598 -1.5103
19284TIP3    H279344   5.630   1.195  17.320 -2.6697 -0.9808  1.1197
19285TIP3   OH279345   6.602   1.043  17.080 -0.4868 -0.2094 -0.0931
19285TIP3    H179346   6.531   1.085  17.032 -1.4611 -0.0992  1.4270
19285TIP3    H279347   6.663   1.114  17.100 -1.0407  0.0997  0.5273
19286TIP3   OH279348   0.290   1.854   2.105  0.2726 -0.7545  0.7676
19286TIP3    H179349   0.352   1.926   2.092  0.6940 -1.2616 -0.1114
19286TIP3    H279350   0.218   1.892   2.155 -0.1847  0.6236 -0.9080
19287TIP3   OH279351   2.191   3.072  11.817 -0.4386 -0.3133  0.2397
19287TIP3    H179352   2.178   3.166  11.828 -0.8862 -0.3233 -0.1895
19287TIP3    H279353   2.218   3.041  11.903  2.3652  0.6458 -0.2391
19288TIP3   OH279354   0.660   2.459  16.855  0.1581  0.2502 -0.0721
19288TIP3    H179355   0.641   2.412  16.773 -0.2667  1.0619 -0.4435
19288TIP3    H279356   0.747   2.496  16.842  1.4458 -2.2425  1.0591
19289TIP3   OH279357   6.368   0.383   1.724  0.1963 -0.1878  0.1915
19289TIP3    H179358   6.316   0.348   1.796 -0.6367 -1.3414 -0.9582
19289TIP3    H279359   6.440   0.321   1.714 -0.5191 -0.8601 -0.9404
19290TIP3   OH279360   0.154   2.145  17.042 -0.1553  0.2301  0.4445
19290TIP3    H179361   0.181   2.112  16.956 -0.0832 -1.4846  1.1052
19290TIP3    H279362   0.236   2.161  17.088 -0.1850  1.7418 -0.0185
19291TIP3   OH279363   0.153   0.082   3.640  0.4240  0.6225 -0.0226
19291TIP3    H179364   0.093   0.068   3.713 -0.7201  0.6424 -0.9323
19291TIP3    H279365   0.188   0.170   3.654  2.8790 -0.6886  2.3595
19292TIP3   OH279366   0.458   4.727   5.974  0.5676 -0.2290  0.3042
19292TIP3    H179367   0.397   4.707   5.902  0.0907 -1.6741  1.0991
19292TIP3    H279368   0.512   4.649   5.982  0.7256 -0.0146  1.4091
19293TIP3   OH279369   1.100   4.327  13.624 -0.5844 -0.6852  0.2072
19293TIP3    H179370   1.029   4.391  13.633  0.9545  1.1414 -0.1656
19293TIP3    H279371   1.156   4.343  13.700 -0.3962 -1.8641  0.3142
19294TIP3   OH279372   0.472   1.013   6.398 -0.7788 -0.3849  0.4909
19294TIP3    H179373   0.429   0.985   6.480  0.5541 -2.5580  0.4954
19294TIP3    H279374   0.565   1.006   6.417 -0.4623 -0.4148 -1.0721
19295TIP3   OH279375   3.921   4.077  17.263 -0.3725 -0.2949 -0.0361
19295TIP3    H179376   3.952   4.137  17.194  2.1311 -1.1557  0.2817
19295TIP3    H279377   3.967   3.995  17.246 -1.9058 -1.3905  0.9963
19296TIP3   OH279378   4.883   5.593  16.494  0.1276 -0.2397 -0.2324
19296TIP3    H179379   4.807   5.632  16.451 -0.8113 -0.1920  1.4432
19296TIP3    H279380   4.849   5.514  16.536  0.8361  0.2234  1.2204
19297TIP3   OH279381   1.917   6.317   2.316  0.7569 -0.0076 -0.2361
19297TIP3    H179382   1.878   6.339   2.231  1.2444 -0.3757 -0.5565
19297TIP3    H279383   1.930   6.401   2.359 -0.6827  0.1124  0.0068
19298TIP3   OH279384   3.569   6.677   5.296  0.0011 -0.2054  0.2512
19298TIP3    H179385   3.632   6.700   5.364 -0.8554  1.7941  0.3993
19298TIP3    H279386   3.491   6.649   5.343  0.0663 -0.6766  0.0809
19299TIP3   OH279387   6.180   5.911   1.640  0.0441  0.4323  0.1249
19299TIP3    H179388   6.115   5.845   1.616  0.3634 -0.0771  0.6687
19299TIP3    H279389   6.256   5.861   1.670 -0.6074  1.0572  2.9314
19300TIP3   OH279390   4.717   3.992  12.091  0.3225 -0.5960 -0.1444
19300TIP3    H179391   4.683   4.021  12.176 -0.4807 -2.0292  0.0447
19300TIP3    H279392   4.810   3.978  12.106  0.3125 -0.1849  0.3225
19301TIP3   OH279393   6.244   5.095  16.498 -0.4584  0.1322  0.5335
19301TIP3    H179394   6.278   5.094  16.587  1.1169  0.4957 -0.0467
19301TIP3    H279395   6.242   5.002  16.472 -0.6690  0.0472  0.8567
19302TIP3   OH279396   4.433   2.647   1.027  0.1084  0.1715  0.2884
19302TIP3    H179397   4.523   2.653   1.059  0.1869  0.8366 -0.0649
19302TIP3    H279398   4.437   2.675   0.936 -0.4706  0.2898  0.2949
19303TIP3   OH279399   4.292   6.117  14.861 -0.0317 -0.6074  0.6412
19303TIP3    H179400   4.276   6.027  14.891 -2.6489 -0.0554  1.0092
19303TIP3    H279401   4.251   6.121  14.775  0.0404  0.2405  0.6445
19304TIP3   OH279402   5.086   2.910   5.307  0.2922  0.2217  0.1916
19304TIP3    H179403   5.180   2.898   5.296  0.3314  1.7996 -1.5573
19304TIP3    H279404   5.046   2.833   5.266  0.8075 -0.1665  0.4239
19305TIP3   OH279405   5.979   1.221  12.916 -0.0259  0.3964 -0.0803
19305TIP3    H179406   5.912   1.192  12.855  1.1857  1.0957 -1.7622
19305TIP3    H279407   6.016   1.299  12.877  0.8093  0.8394  1.5271
19306TIP3   OH279408   4.031   5.310  14.700 -0.6872  0.6999  0.4200
19306TIP3    H179409   3.958   5.315  14.762 -1.1227  0.0195 -0.0257
19306TIP3    H279410   4.094   5.250  14.741 -1.2981 -0.3251 -0.1026
19307TIP3   OH279411   4.322   5.152  11.657  0.1267  0.5549 -0.2526
19307TIP3    H179412   4.291   5.242  11.652 -0.3587  0.4145  0.1611
19307TIP3    H279413   4.383   5.152  11.732  1.8402  1.0341 -1.6223
19308TIP3   OH279414   5.331   2.573  12.952  0.1473 -0.0531 -0.0346
19308TIP3    H179415   5.292   2.615  13.029 -0.3716 -1.4066  0.4588
19308TIP3    H279416   5.261   2.576  12.886 -0.9725 -2.8136  0.9678
19309TIP3   OH279417   0.554   2.453   3.584  0.0905  0.2858 -0.1569
19309TIP3    H179418   0.481   2.427   3.528  2.1565 -2.0653 -1.8262
19309TIP3    H279419   0.589   2.371   3.618  0.1662  1.5491  2.9987
19310TIP3   OH279420   6.179   3.177   2.437  0.1439  0.2136  0.0038
19310TIP3    H179421   6.127   3.142   2.365 -0.6777 -0.7138  1.0296
19310TIP3    H279422   6.257   3.214   2.395  0.0236 -0.9843 -1.2972
19311TIP3   OH279423   4.115   1.573   2.315  0.1348 -0.0140 -0.2335
19311TIP3    H179424   4.186   1.627   2.348  1.3142 -0.1742 -2.4567
19311TIP3    H279425   4.058   1.635   2.268 -1.3772  0.1640  1.7693
19312TIP3   OH279426   4.754   5.289   5.305  0.1970  0.2903 -0.3564
19312TIP3    H179427   4.724   5.315   5.392 -2.0431 -0.8191 -0.7598
19312TIP3    H279428   4.783   5.370   5.264  0.9984  0.8671  1.2976
19313TIP3   OH279429   0.730   0.018   5.777  0.4207 -0.0976  0.1809
19313TIP3    H179430   0.643   0.007   5.816  0.8570 -1.0754  0.8821
19313TIP3    H279431   0.764   0.097   5.818 -0.5111  0.8279 -0.7971
19314TIP3   OH279432   4.316   4.659   5.816  0.2944 -0.4193 -0.0121
19314TIP3    H179433   4.324   4.608   5.736 -1.8883 -1.0134  0.1304
19314TIP3    H279434   4.338   4.749   5.789  0.7369 -0.8117 -0.9980
19315TIP3   OH279435   3.402   1.214  13.789  0.0285  0.1857  0.1217
19315TIP3    H179436   3.390   1.139  13.846 -0.4689  0.0109 -0.2053
19315TIP3    H279437   3.448   1.179  13.712  1.3620  0.5697  0.7434
19316TIP3   OH279438   1.607   4.582  16.526  0.1086  0.3580 -0.0667
19316TIP3    H179439   1.633   4.552  16.439  3.4802 -0.4602  1.1362
19316TIP3    H279440   1.690   4.598  16.571 -1.5535 -0.0735  3.2597
19317TIP3   OH279441   5.388   1.714   4.595  0.8225  0.4068 -0.0613
19317TIP3    H179442   5.303   1.689   4.630  1.0667  0.2807  0.4330
19317TIP3    H279443   5.440   1.634   4.595  0.4592  0.1402 -1.7855
19318TIP3   OH279444   6.420   4.897   3.048  0.0572  0.1241 -0.4411
19318TIP3    H179445   6.448   4.874   2.959 -0.1633 -0.5198 -0.3520
19318TIP3    H279446   6.498   4.932   3.090  0.0568  0.8215 -1.0228
19319TIP3   OH279447   4.086   0.665  15.517 -0.2560  0.2734 -0.6650
19319TIP3    H179448   3.993   0.657  15.495  0.0525 -1.5907 -1.4013
19319TIP3    H279449   4.088   0.726  15.591 -1.7970  2.5761 -2.4537
19320TIP3   OH279450   1.029   3.972   5.465  0.1353 -0.8445 -0.6011
19320TIP3    H179451   1.027   3.985   5.560  1.2595 -2.4429 -0.3490
19320TIP3    H279452   0.979   3.891   5.451 -0.8337 -0.1077 -1.4729
19321TIP3   OH279453   5.081   0.223  13.003  0.1496 -0.1240 -0.9215
19321TIP3    H179454   5.154   0.282  13.022  0.4783 -0.6841 -0.4371
19321TIP3    H279455   5.040   0.260  12.925  1.6562 -0.4487 -1.8935
19322TIP3   OH279456   2.689   3.211   3.944 -0.2843 -0.3928  0.1585
19322TIP3    H179457   2.624   3.199   4.013 -1.7332  1.4998 -0.8071
19322TIP3    H279458   2.656   3.286   3.894  2.0936 -0.0862 -1.0084
19323TIP3   OH279459   5.310   4.150  13.084  0.1041 -0.1777 -0.5083
19323TIP3    H179460   5.257   4.159  13.163  0.8399  1.8530 -0.2144
19323TIP3    H279461   5.400   4.149  13.117  0.4141  0.7589 -1.3222
19324TIP3   OH279462   4.895   2.121   2.832 -0.6324 -0.0921  0.1760
19324TIP3    H179463   4.948   2.142   2.755 -1.3047 -1.0232 -0.5678
19324TIP3    H279464   4.913   2.029   2.849 -0.1850  0.2177  1.3918
19325TIP3   OH279465   3.305   5.932   0.707 -0.6809  0.5502 -0.4178
19325TIP3    H179466   3.318   5.853   0.760  1.5323  1.0635 -0.1451
19325TIP3    H279467   3.379   5.932   0.646 -0.8624  2.2238 -0.6453
19326TIP3   OH279468   3.717   1.312  11.678  0.0760  0.0761  0.2794
19326TIP3    H179469   3.810   1.317  11.657 -0.2802  1.2157 -1.0469
19326TIP3    H279470   3.678   1.388  11.635 -2.0886 -2.4967 -2.4592
19327TIP3   OH279471   5.822   0.254  14.538  0.7196 -0.1797 -0.4590
19327TIP3    H179472   5.786   0.167  14.553  0.2807  0.0817  0.0226
19327TIP3    H279473   5.792   0.277  14.450  0.3237 -0.2675 -0.3489
19328TIP3   OH279474   2.574   1.639   4.186 -0.4994  0.0247  0.2681
19328TIP3    H179475   2.623   1.583   4.125  0.6264 -0.8659  1.9621
19328TIP3    H279476   2.501   1.673   4.134  1.0680  0.1768 -1.8957
19329TIP3   OH279477   1.081   1.064  13.641 -0.4785  0.1284  0.1437
19329TIP3    H179478   1.173   1.036  13.635 -0.3462  0.4491  0.6750
19329TIP3    H279479   1.034   0.986  13.668 -0.0325  0.5436  2.1790
19330TIP3   OH279480   0.583   1.930   2.321 -0.3737 -0.5358 -0.2005
19330TIP3    H179481   0.507   1.882   2.353 -0.3410 -0.2920  0.2546
19330TIP3    H279482   0.630   1.868   2.265 -0.8420 -0.7248 -0.3812
19331TIP3   OH279483   1.261   5.850  13.056 -0.0470  0.5014 -0.1312
19331TIP3    H179484   1.208   5.902  13.116 -0.9448 -0.9101  0.3368
19331TIP3    H279485   1.198   5.812  12.995  0.7449  1.0500 -1.3190
19332TIP3   OH279486   3.527   3.110  10.611  0.3817  0.1333 -0.4885
19332TIP3    H179487   3.601   3.056  10.641  0.4238  0.3910 -0.1228
19332TIP3    H279488   3.461   3.046  10.584  0.7446 -0.0984 -0.8366
19333TIP3   OH279489   6.674   4.655  10.897 -0.3827 -0.2744  0.0625
19333TIP3    H179490   6.755   4.688  10.858 -0.0546 -0.5831  0.4801
19333TIP3    H279491   6.681   4.677  10.990 -1.6088  1.3483 -0.2071
19334TIP3   OH279492   0.800   6.036   4.351 -0.4012  0.0228 -0.0814
19334TIP3    H179493   0.717   5.993   4.330  0.0302 -1.0157  0.3316
19334TIP3    H279494   0.833   5.990   4.427  0.6775  0.2755 -0.3862
19335TIP3   OH279495   0.889   2.949   0.905 -0.5109 -0.7490 -0.6271
19335TIP3    H179496   0.884   2.996   0.822 -0.8841  1.6697  0.7406
19335TIP3    H279497   0.919   2.861   0.881  1.0167  0.4205 -3.1336
19336TIP3   OH279498   5.890   2.357  12.473 -0.7824 -0.1952  0.3155
19336TIP3    H179499   5.954   2.328  12.539  2.0104  1.7112 -1.4242
19336TIP3    H279500   5.821   2.399  12.523 -0.1234 -1.2703  2.1844
19337TIP3   OH279501   2.396   4.776   4.711 -0.2303 -0.3390 -0.8398
19337TIP3    H179502   2.335   4.705   4.733  0.9847 -1.7951 -2.0490
19337TIP3    H279503   2.345   4.834   4.654 -1.1750 -0.3461 -0.0122
19338TIP3   OH279504   0.928   1.157  11.690 -0.1014 -0.6750 -0.2750
19338TIP3    H179505   0.939   1.126  11.780  0.3268 -1.4194 -0.5756
19338TIP3    H279506   0.929   1.077  11.637 -0.1005 -0.2214 -0.9631
19339TIP3   OH279507   0.363   3.502  12.486 -0.2398 -0.0274 -0.0674
19339TIP3    H179508   0.420   3.457  12.423  0.6229  2.6710 -1.2951
19339TIP3    H279509   0.405   3.488  12.570  1.3838  0.5440 -0.7540
19340TIP3   OH279510   1.467   1.885  13.794  0.3315  0.2556  0.1689
19340TIP3    H179511   1.528   1.877  13.867  0.2807  1.3421  0.3379
19340TIP3    H279512   1.417   1.803  13.796  0.8025 -0.0218  0.9193
19341TIP3   OH279513   2.870   0.377   4.960 -0.5607 -0.0861 -0.4886
19341TIP3    H179514   2.853   0.284   4.977 -0.5311  0.2109  1.2124
19341TIP3    H279515   2.942   0.400   5.018  0.0322  0.7922 -1.5536
19342TIP3   OH279516   5.135   1.871  16.511 -0.5769 -0.2079 -0.2920
19342TIP3    H179517   5.159   1.837  16.598  0.2171  2.0553  0.4058
19342TIP3    H279518   5.091   1.954  16.529 -1.4502 -0.2730 -2.0137
19343TIP3   OH279519   3.921   4.772   4.852  0.2056 -0.2295  0.2367
19343TIP3    H179520   4.006   4.814   4.841  0.5311 -1.2388 -1.3603
19343TIP3    H279521   3.938   4.696   4.908  0.6465 -1.2087 -1.1892
19344TIP3   OH279522   0.335   5.780   2.875  0.0495 -0.1310  0.2915
19344TIP3    H179523   0.256   5.801   2.824 -0.3553 -1.3025  0.4164
19344TIP3    H279524   0.322   5.690   2.903  1.5466 -0.4146  0.1285
19345TIP3   OH279525   0.410   1.544  15.802  0.0605  0.9496  0.0179
19345TIP3    H179526   0.360   1.546  15.884  0.1466 -0.2656  0.1050
19345TIP3    H279527   0.453   1.458  15.802 -0.2626  0.7775 -1.5079
19346TIP3   OH279528   3.075   3.156   4.836 -0.5425 -0.1112  0.1723
19346TIP3    H179529   3.051   3.077   4.788  0.4022 -0.2298 -0.1064
19346TIP3    H279530   3.125   3.124   4.912  0.1799  0.2367 -0.1529
19347TIP3   OH279531   1.496   0.241   0.696 -0.1622  0.0812  0.2114
19347TIP3    H179532   1.406   0.268   0.680 -0.4557  0.3439  2.1340
19347TIP3    H279533   1.513   0.268   0.786  1.4863 -0.9145  0.2201
19348TIP3   OH279534   5.991   0.231  13.170 -0.0133  0.2140 -0.2319
19348TIP3    H179535   5.917   0.188  13.214  0.1749 -0.9624 -1.0613
19348TIP3    H279536   6.066   0.213  13.227 -0.1900  0.6946  0.1670
19349TIP3   OH279537   4.096   3.373  16.620  0.6318  0.3678  0.4202
19349TIP3    H179538   4.122   3.419  16.540  0.6619 -1.0718 -0.4228
19349TIP3    H279539   4.179   3.357  16.666  0.7097  0.4565  0.3125
19350TIP3   OH279540   0.856   4.494  14.047  0.1280  0.3206 -0.0846
19350TIP3    H179541   0.911   4.415  14.051 -0.3637 -0.1011 -1.2244
19350TIP3    H279542   0.767   4.460  14.037  0.1586  0.9890 -3.3930
19351TIP3   OH279543   5.541   3.731   2.008  0.6416  0.8181 -0.0946
19351TIP3    H179544   5.478   3.767   1.945 -0.2240 -0.3803  0.0598
19351TIP3    H279545   5.624   3.731   1.961  0.0514  0.1497 -1.1792
19352TIP3   OH279546   4.699   4.709  15.487  0.3242  0.6256  0.0475
19352TIP3    H179547   4.665   4.624  15.516  0.5870  0.2690 -0.6591
19352TIP3    H279548   4.622   4.755  15.453  0.3029  0.3650 -0.2661
19353TIP3   OH279549   1.627   1.920  14.940  0.8922  0.5726 -0.7492
19353TIP3    H179550   1.567   1.849  14.918  1.0453 -0.2630  1.4340
19353TIP3    H279551   1.613   1.936  15.033  1.6595  2.6532 -0.9617
19354TIP3   OH279552   6.298   4.611   3.646  0.5348 -0.3943  0.3100
19354TIP3    H179553   6.244   4.661   3.708 -1.2175 -0.5859 -1.0550
19354TIP3    H279554   6.319   4.674   3.577  2.2248 -0.2739  0.9137
19355TIP3   OH279555   4.590   4.604  15.905 -0.2988 -0.0118 -0.0353
19355TIP3    H179556   4.655   4.651  15.852  0.4198 -0.0139  0.8411
19355TIP3    H279557   4.608   4.512  15.887  0.8765 -0.0540  1.2992
19356TIP3   OH279558   2.819   1.162  13.393  0.4280 -0.2326  0.2729
19356TIP3    H179559   2.743   1.197  13.440  1.1044  1.5463  0.0759
19356TIP3    H279560   2.811   1.198  13.305  0.7330 -1.2110 -0.1572
19357TIP3   OH279561   4.801   6.455   1.204 -0.1472 -0.5051  0.2778
19357TIP3    H179562   4.720   6.489   1.166  0.3652 -1.5330 -1.8086
19357TIP3    H279563   4.794   6.360   1.196  1.0206 -0.6269  0.5635
19358TIP3   OH279564   2.186   5.178   2.414  0.5236  0.3771  0.1357
19358TIP3    H179565   2.272   5.136   2.425  0.4762  0.5457  1.2172
19358TIP3    H279566   2.164   5.209   2.501  0.0654  1.7051 -0.4489
19359TIP3   OH279567   1.954   6.778  16.783  0.1510  0.0364 -0.7223
19359TIP3    H179568   2.019   6.741  16.843 -1.0315 -1.8716 -0.5746
19359TIP3    H279569   1.870   6.766  16.828 -0.4129  1.5351 -1.3595
19360TIP3   OH279570   3.672   5.219   5.413 -0.5108  0.5979 -0.2048
19360TIP3    H179571   3.650   5.179   5.496  1.5142  1.1679  0.6391
19360TIP3    H279572   3.631   5.306   5.416 -0.4013  0.6345  0.2131
19361TIP3   OH279573   2.519   1.842   3.551 -0.6001  0.8336  0.3024
19361TIP3    H179574   2.489   1.915   3.606 -1.7999 -0.0266  0.7982
19361TIP3    H279575   2.608   1.867   3.525 -0.0326  1.2908  2.5865
19362TIP3   OH279576   4.297   2.753  14.171  0.6124 -0.2027  0.1160
19362TIP3    H179577   4.299   2.825  14.108  1.4005  0.1650  0.5458
19362TIP3    H279578   4.205   2.725  14.173  0.3686  0.5484 -0.3285
19363TIP3   OH279579   6.678   3.722   0.485 -0.8008  0.5328 -0.6569
19363TIP3    H179580   6.591   3.693   0.459 -0.5221 -1.2932  0.3383
19363TIP3    H279581   6.734   3.645   0.473  0.1246  0.8435  1.3391
19364TIP3   OH279582   5.394   1.781  11.654 -0.2365  0.2166 -0.0995
19364TIP3    H179583   5.483   1.760  11.628 -0.0144 -0.7981  1.4490
19364TIP3    H279584   5.360   1.834  11.581  1.8773  1.3276 -0.3226
19365TIP3   OH279585   5.347   1.498  16.400  0.3722 -0.4102  0.6870
19365TIP3    H179586   5.397   1.556  16.458  0.4862 -0.2856  0.4660
19365TIP3    H279587   5.410   1.471  16.333  0.1290 -0.2016  0.3714
19366TIP3   OH279588   5.753   1.383   0.887  0.4837  0.1975  0.2612
19366TIP3    H179589   5.813   1.310   0.900  2.5318  1.7710 -0.0614
19366TIP3    H279590   5.765   1.438   0.965 -0.9867  0.2335  0.4786
19367TIP3   OH279591   6.802   5.699  16.900  0.0065  0.5592 -0.1853
19367TIP3    H179592   6.785   5.741  16.984 -2.3634  0.5385 -0.6307
19367TIP3    H279593   6.746   5.622  16.899 -1.6127  1.6726 -2.6102
19368TIP3   OH279594   0.725   6.021   3.048  0.1439 -0.3188  0.2244
19368TIP3    H179595   0.656   6.024   3.114 -0.0992 -0.9419 -0.0001
19368TIP3    H279596   0.729   6.110   3.013 -0.6659 -0.3281  0.1112
19369TIP3   OH279597   3.001   1.574   5.585 -0.0495 -0.4780  0.6783
19369TIP3    H179598   2.924   1.575   5.642 -1.6942  0.7944 -1.4739
19369TIP3    H279599   3.044   1.658   5.602 -2.2318  1.2903 -2.0659
19370TIP3   OH279600   3.669   5.189  12.180 -0.1383 -0.3989 -0.0339
19370TIP3    H179601   3.703   5.105  12.211  2.4867  0.5263 -0.3123
19370TIP3    H279602   3.729   5.254  12.215 -1.9545  1.3629 -0.1025
19371TIP3   OH279603   6.448   6.079   4.251 -0.9198 -0.8465 -0.1375
19371TIP3    H179604   6.405   6.089   4.336 -1.5773 -0.9727 -0.4484
19371TIP3    H279605   6.376   6.071   4.188 -0.4423 -1.1434 -0.6606
19372TIP3   OH279606   4.974   5.142   4.598 -0.1979 -0.1843 -0.5651
19372TIP3    H179607   4.959   5.151   4.504 -2.4638 -0.5562 -0.2653
19372TIP3    H279608   5.034   5.067   4.605 -1.0250 -0.9680 -1.6434
19373TIP3   OH279609   4.556   1.279   2.937 -0.0601 -0.2933 -0.5085
19373TIP3    H179610   4.495   1.316   3.001  0.6710  0.0173  0.0257
19373TIP3    H279611   4.501   1.231   2.876 -0.8504  0.0970 -0.1143
19374TIP3   OH279612   1.696   0.864  11.712  0.0531 -0.7354  0.1415
19374TIP3    H179613   1.756   0.867  11.788  0.6784 -3.3861 -0.2025
19374TIP3    H279614   1.610   0.847  11.750  0.1062 -0.5223  0.3602
19375TIP3   OH279615   2.573   5.251  11.139  0.2473 -0.0722 -0.0313
19375TIP3    H179616   2.494   5.208  11.106  0.3819 -0.7394  0.5059
19375TIP3    H279617   2.644   5.189  11.119  0.5722  0.3168 -0.0925
19376TIP3   OH279618   2.763   2.995   4.779  0.1862  0.1604  0.0335
19376TIP3    H179619   2.767   2.959   4.690  0.0883  1.0760 -0.3421
19376TIP3    H279620   2.672   3.019   4.791  0.1776 -0.0608  0.4302
19377TIP3   OH279621   5.837   1.039   5.991  0.0919 -0.3695 -0.2159
19377TIP3    H179622   5.931   1.051   6.003 -0.0724  1.3269 -0.4211
19377TIP3    H279623   5.801   1.128   5.999 -1.4407 -0.9527 -0.5270
19378TIP3   OH279624   1.447   4.007   3.460 -0.2493  0.1294 -0.2980
19378TIP3    H179625   1.458   3.916   3.434 -1.2021  0.2032 -0.9973
19378TIP3    H279626   1.460   4.006   3.555  0.9206 -0.5324 -0.4605
19379TIP3   OH279627   4.569   3.105   2.947  0.0859 -0.1576 -0.0458
19379TIP3    H179628   4.511   3.068   2.880  0.6288 -1.1377  0.0127
19379TIP3    H279629   4.655   3.107   2.907  0.0410  1.1996 -0.0907
19380TIP3   OH279630   3.723   4.378  14.473 -0.4827 -0.2435 -0.3536
19380TIP3    H179631   3.741   4.455  14.526 -0.2878 -0.6085  0.1084
19380TIP3    H279632   3.744   4.405  14.383  0.8575 -0.1768 -0.0267
19381TIP3   OH279633   4.363   3.232   4.872 -0.2386  0.0619 -0.3111
19381TIP3    H179634   4.270   3.249   4.884 -0.0816  1.1250 -0.5639
19381TIP3    H279635   4.398   3.312   4.834  0.8488 -0.1974  0.1140
19382TIP3   OH279636   2.587   6.604  15.192  0.4407  0.7467 -0.7657
19382TIP3    H179637   2.559   6.607  15.100 -1.3139  1.7035 -0.2283
19382TIP3    H279638   2.509   6.575  15.239  2.6235 -4.4759 -0.0314
19383TIP3   OH279639   1.273   4.984  12.460  0.5132 -0.1183  0.1956
19383TIP3    H179640   1.229   4.977  12.376 -0.1214 -0.0537  0.5166
19383TIP3    H279641   1.327   5.062  12.453  2.0738 -1.2687 -0.8715
19384TIP3   OH279642   2.178   2.056   0.812 -0.0919  0.0536 -0.3817
19384TIP3    H179643   2.137   1.991   0.754  0.7448 -1.1389  0.3360
19384TIP3    H279644   2.251   2.009   0.852 -0.0136  1.1910  0.8307
19385TIP3   OH279645   1.167   5.660   1.651 -0.0200  0.0763 -0.4775
19385TIP3    H179646   1.072   5.657   1.666  0.0609 -0.4720 -0.0516
19385TIP3    H279647   1.193   5.746   1.683 -0.1841 -0.2593  0.5828
19386TIP3   OH279648   5.995   0.091   5.547 -0.3648 -0.2060 -0.4102
19386TIP3    H179649   5.921   0.056   5.498 -0.9286 -2.4138  1.9412
19386TIP3    H279650   6.049   0.015   5.568  1.5900  1.1260 -0.4146
19387TIP3   OH279651   3.066   0.674  13.961  0.2514  0.5501  0.3551
19387TIP3    H179652   3.028   0.761  13.950 -1.1741  0.0513  1.0752
19387TIP3    H279653   3.160   0.689  13.965  0.0731  1.9633 -0.3474
19388TIP3   OH279654   2.928   0.003  13.564  0.9251  0.0579 -0.1877
19388TIP3    H179655   2.852  -0.054  13.553  0.4692  0.6167  0.1003
19388TIP3    H279656   2.926   0.061  13.489 -0.0301  1.3528  0.8291
19389TIP3   OH279657   2.368   6.356   0.853 -0.1814  0.0574  0.1500
19389TIP3    H179658   2.326   6.438   0.829  1.8117  0.7982 -0.9254
19389TIP3    H279659   2.432   6.341   0.784  1.5663 -0.8569  1.9224
19390TIP3   OH279660   3.469   1.371   1.695  0.3220  0.4415  0.6360
19390TIP3    H179661   3.374   1.369   1.708  0.0230 -0.1412 -1.4495
19390TIP3    H279662   3.493   1.281   1.676  1.2944  0.5960  1.1093
19391TIP3   OH279663   1.525   1.920  17.056 -0.4221 -0.2040  0.2179
19391TIP3    H179664   1.504   1.827  17.047  1.1892 -0.4365 -1.3418
19391TIP3    H279665   1.462   1.964  16.998 -0.0288 -0.4542 -0.3932
19392TIP3   OH279666   0.573   1.657  15.418 -0.3590  0.0698  0.3128
19392TIP3    H179667   0.520   1.727  15.455  0.8596  0.8621  0.5932
19392TIP3    H279668   0.569   1.671  15.323 -1.4843 -0.5008  0.2648
19393TIP3   OH279669   1.916   5.264   3.027  0.2664 -0.2149 -0.1586
19393TIP3    H179670   2.002   5.279   3.066 -0.2768 -0.4749  1.1588
19393TIP3    H279671   1.918   5.313   2.945  0.9793  1.3904  0.7999
19394TIP3   OH279672   2.963   2.716  12.299  0.0842 -0.1508 -0.3232
19394TIP3    H179673   3.019   2.782  12.259  1.0176 -0.3325  0.6473
19394TIP3    H279674   2.877   2.758  12.307 -0.1306 -0.1475 -2.5362
19395TIP3   OH279675   3.253   2.288   3.405 -0.0204 -0.4366 -0.4757
19395TIP3    H179676   3.320   2.324   3.347 -1.1997  0.1559 -1.4651
19395TIP3    H279677   3.245   2.196   3.378 -1.7861  0.2517 -2.4362
19396TIP3   OH279678   4.687   1.942   2.063  0.3952  0.3016 -0.5434
19396TIP3    H179679   4.705   1.948   2.157 -0.3847 -1.7805 -0.2415
19396TIP3    H279680   4.772   1.922   2.024  1.0694  2.8594 -0.5117
19397TIP3   OH279681   4.688   0.743   6.499  0.1124  0.0191  0.0362
19397TIP3    H179682   4.749   0.669   6.496  0.4907  0.3537 -0.5132
19397TIP3    H279683   4.741   0.819   6.473 -0.2521  0.4998  0.6921
19398TIP3   OH279684   6.308   0.461  11.746  0.3317 -0.3306 -0.3147
19398TIP3    H179685   6.286   0.544  11.789 -0.1693  0.8437 -2.7432
19398TIP3    H279686   6.395   0.439  11.779  0.8252  1.6174 -0.2595
19399TIP3   OH279687   5.486   6.079   3.455 -0.6074 -0.3590  0.2239
19399TIP3    H179688   5.567   6.087   3.504  0.0256  0.3940 -0.9264
19399TIP3    H279689   5.502   6.007   3.393 -0.8363 -0.2610  0.0485
19400TIP3   OH279690   3.189   5.151  16.239 -0.1625 -0.0052 -0.2695
19400TIP3    H179691   3.262   5.133  16.298  0.2063 -0.1213 -0.7470
19400TIP3    H279692   3.111   5.131  16.289  0.1279  0.4714  0.3739
19401TIP3   OH279693   1.647   3.166   1.322  0.2192 -0.1833 -0.0286
19401TIP3    H179694   1.576   3.127   1.271  0.8891 -1.2432 -0.1660
19401TIP3    H279695   1.649   3.258   1.295 -0.9997 -0.1757 -0.1232
19402TIP3   OH279696   1.960   5.693   5.553  0.0943  0.2434 -0.5586
19402TIP3    H179697   2.016   5.635   5.501  0.9625  0.9276 -0.3920
19402TIP3    H279698   1.910   5.742   5.488 -1.7846 -1.7674 -0.6919
19403TIP3   OH279699   1.215   3.806  13.961  0.1865 -0.6407 -0.0768
19403TIP3    H179700   1.306   3.788  13.982  0.1213  0.0060  0.7826
19403TIP3    H279701   1.202   3.898  13.987 -0.9324 -0.9736  0.5776
19404TIP3   OH279702   5.511   4.572  16.035  0.3431  0.3714  0.0391
19404TIP3    H179703   5.509   4.634  15.963  0.2685  3.2793  2.4416
19404TIP3    H279704   5.445   4.604  16.096 -1.2967 -3.3901  0.3741
19405TIP3   OH279705   3.048   6.086  12.838 -0.6597 -0.0496  0.2009
19405TIP3    H179706   3.055   5.999  12.799 -0.0543  0.4908 -0.9227
19405TIP3    H279707   3.068   6.073  12.931 -0.6357 -1.1108  0.0462
19406TIP3   OH279708   1.132   4.877   2.713  0.4954 -1.1519 -0.0375
19406TIP3    H179709   1.082   4.800   2.741  1.6187 -1.5263  0.9771
19406TIP3    H279710   1.175   4.908   2.793 -0.6371  1.0508 -0.2603
19407TIP3   OH279711   2.824   6.200  10.637 -0.2281  0.0267 -0.3536
19407TIP3    H179712   2.738   6.193  10.596 -0.7110 -2.0521  0.9733
19407TIP3    H279713   2.847   6.110  10.661  1.5102  0.7848  0.9527
19408TIP3   OH279714   1.047   5.559   2.283 -0.1538  0.1504 -0.2966
19408TIP3    H179715   1.075   5.565   2.191  1.6714 -0.2008  0.2185
19408TIP3    H279716   0.992   5.481   2.286  1.3810 -0.9745 -0.7105
19409TIP3   OH279717   4.649   3.711  15.654 -0.1971  0.1290 -0.5852
19409TIP3    H179718   4.668   3.664  15.573 -0.5781 -1.6050  0.3172
19409TIP3    H279719   4.663   3.803  15.632 -1.1881 -0.2343 -2.8808
19410TIP3   OH279720   3.865   2.449   1.745 -0.2362  0.2130  0.4211
19410TIP3    H179721   3.892   2.451   1.653 -0.0968 -0.1326  0.4524
19410TIP3    H279722   3.928   2.507   1.789  0.3013 -0.3791  0.4493
19411TIP3   OH279723   2.425   0.034  17.051 -0.5957  0.3752  0.1598
19411TIP3    H179724   2.421   0.069  17.140 -0.9237  0.7553  0.0014
19411TIP3    H279725   2.472   0.101  17.001 -0.5972  0.2604  0.0051
19412TIP3   OH279726   2.936   1.938  17.140  0.2259  0.0999  0.3574
19412TIP3    H179727   3.002   1.911  17.204 -1.2707 -1.1309  1.4115
19412TIP3    H279728   2.857   1.953  17.192 -1.1820 -1.5096 -1.2630
19413TIP3   OH279729   1.324   0.043  11.817 -0.3396 -0.0838  0.3100
19413TIP3    H179730   1.377   0.061  11.740 -0.8006  1.8318  0.4253
19413TIP3    H279731   1.319   0.126  11.864 -1.4929 -0.8024  1.5222
19414TIP3   OH279732   2.071   3.855   0.997  0.1241  0.5211 -0.0887
19414TIP3    H179733   1.985   3.862   1.038 -0.8149 -2.0969 -1.5191
19414TIP3    H279734   2.116   3.788   1.046  0.1785 -0.3283 -1.2763
19415TIP3   OH279735   0.719   4.688   5.122 -0.1227 -0.2318 -0.1762
19415TIP3    H179736   0.671   4.677   5.204 -2.2339 -0.8573 -1.4569
19415TIP3    H279737   0.657   4.664   5.054  1.4461  0.7342 -2.0172
19416TIP3   OH279738   0.450   6.069   1.739 -0.0179  0.2563  0.3584
19416TIP3    H179739   0.410   6.109   1.816 -1.8897 -0.2604 -0.3243
19416TIP3    H279740   0.416   5.979   1.739 -0.0500  0.2598 -1.0646
19417TIP3   OH279741   5.362   3.925  12.463  0.5289 -0.3654 -0.7322
19417TIP3    H179742   5.443   3.873  12.463  0.6093 -0.2563 -1.7191
19417TIP3    H279743   5.339   3.933  12.556  1.0327 -1.3559 -0.5098
19418TIP3   OH279744   6.738   6.511   1.494  0.4899 -0.8023 -0.5417
19418TIP3    H179745   6.799   6.471   1.555 -0.2907 -0.0156  0.7751
19418TIP3    H279746   6.670   6.444   1.481 -0.1733 -0.3944  0.7051
19419TIP3   OH279747   6.221   1.476   2.545 -0.1025 -0.4645 -0.1558
19419TIP3    H179748   6.177   1.469   2.460 -0.2330 -0.8456 -0.0598
19419TIP3    H279749   6.259   1.563   2.545 -1.1540  0.0019 -0.0979
19420TIP3   OH279750   4.950   1.101   4.988  0.4351 -0.0739  0.1756
19420TIP3    H179751   5.030   1.104   5.042  0.5089  1.4440 -0.0157
19420TIP3    H279752   4.946   1.186   4.945 -1.5010  0.0126  0.4717
19421TIP3   OH279753   4.020   0.828   4.631 -0.4264  0.7774 -0.0001
19421TIP3    H179754   3.991   0.810   4.541 -1.0200  2.1999 -0.0936
19421TIP3    H279755   3.940   0.831   4.682  0.0020 -1.4383  0.8593
19422TIP3   OH279756   1.724   2.825   0.848  0.2505  0.5179  0.1772
19422TIP3    H179757   1.645   2.848   0.799  1.3003 -1.7959 -2.7704
19422TIP3    H279758   1.694   2.809   0.937 -2.4652  0.3962 -0.7238
19423TIP3   OH279759   5.071   4.089   1.484 -0.0240 -0.0749 -0.1506
19423TIP3    H179760   4.993   4.052   1.444 -1.4018  2.4006  0.1818
19423TIP3    H279761   5.095   4.163   1.427  1.8663 -0.5787 -0.0461
19424TIP3   OH279762   2.729   5.799   4.545 -0.1997 -0.0436  0.1990
19424TIP3    H179763   2.717   5.733   4.477 -0.9746  0.7594 -0.4602
19424TIP3    H279764   2.716   5.882   4.500  0.4513  0.5447  1.0864
19425TIP3   OH279765   4.232   4.777  16.236  0.3066  0.5067  0.8710
19425TIP3    H179766   4.310   4.779  16.180 -0.1598 -1.5189  0.1079
19425TIP3    H279767   4.167   4.829  16.188  0.1073 -0.6963 -0.1715
19426TIP3   OH279768   0.872   2.712  11.388 -0.0819 -0.5034  0.0212
19426TIP3    H179769   0.923   2.786  11.422  1.6367 -0.6838 -2.0839
19426TIP3    H279770   0.893   2.639  11.446  1.8581 -0.4936 -0.6396
19427TIP3   OH279771   2.102   6.169  15.227 -0.0128 -0.1112  0.3232
19427TIP3    H179772   2.114   6.200  15.137 -1.9872 -3.0067 -1.0454
19427TIP3    H279773   2.024   6.215  15.258 -0.6878 -0.8153 -0.3066
19428TIP3   OH279774   1.960   5.942  11.744 -0.0869  0.5828  0.4205
19428TIP3    H179775   2.035   5.978  11.791  0.7976 -2.1933  1.2339
19428TIP3    H279776   1.918   5.884  11.807 -0.9649 -0.4322 -1.0681
19429TIP3   OH279777   1.662   1.270   4.858  0.4165  0.3517 -0.4493
19429TIP3    H179778   1.594   1.288   4.923  1.8758 -0.9251  1.4674
19429TIP3    H279779   1.720   1.347   4.863  1.0598 -0.1760  0.4956
19430TIP3   OH279780   5.325   6.702   0.290  0.3442 -0.3585  0.0536
19430TIP3    H179781   5.296   6.612   0.304  0.6933 -0.2239  1.6609
19430TIP3    H279782   5.324   6.742   0.377  2.4826  0.5098 -0.2869
19431TIP3   OH279783   3.586   6.251  13.798 -0.8795  0.1539  0.6457
19431TIP3    H179784   3.514   6.289  13.848  0.1877  0.9360  1.6021
19431TIP3    H279785   3.627   6.326  13.755  0.8079  0.0260  1.9868
19432TIP3   OH279786   5.445   4.782  15.819 -0.4201  0.4347 -0.0976
19432TIP3    H179787   5.378   4.758  15.756 -0.6114 -0.4523  0.4238
19432TIP3    H279788   5.526   4.786  15.768 -0.4507 -0.9741 -0.2952
19433TIP3   OH279789   5.548   5.090   3.778  0.0173 -0.5309  0.3747
19433TIP3    H179790   5.502   5.154   3.723  0.2345 -0.3339  0.4219
19433TIP3    H279791   5.600   5.143   3.837  3.1887 -0.7614 -2.0737
19434TIP3   OH279792   3.129   5.799  15.579  0.0318 -0.2304  0.0582
19434TIP3    H179793   3.113   5.753  15.661  0.8535  0.7511  0.7835
19434TIP3    H279794   3.046   5.792  15.531 -0.4528 -0.8140  0.9571
19435TIP3   OH279795   0.111   3.519  10.709 -0.3011  0.5979  0.0812
19435TIP3    H179796   0.188   3.463  10.721 -1.0564 -0.2616  0.9495
19435TIP3    H279797   0.145   3.596  10.662  0.4968 -1.1925 -2.3691
19436TIP3   OH279798   0.380   0.647   1.634 -0.0537  0.4538 -0.4637
19436TIP3    H179799   0.408   0.734   1.605  1.6073 -0.5085 -1.7861
19436TIP3    H279800   0.360   0.600   1.554 -2.8787  0.2130  0.3380
19437TIP3   OH279801   5.191   4.182   3.268 -0.3119  0.3967 -0.1568
19437TIP3    H179802   5.139   4.218   3.340  0.5931  0.3685  0.5102
19437TIP3    H279803   5.126   4.157   3.202 -1.0263  2.3899 -0.2601
19438TIP3   OH279804   6.425   0.374  13.531 -0.1169  0.3034 -0.1149
19438TIP3    H179805   6.427   0.448  13.470 -1.5351  0.9195  0.5653
19438TIP3    H279806   6.473   0.404  13.608  0.4131  0.0504 -0.3460
19439TIP3   OH279807   5.251   2.590  11.440 -0.5308 -0.1543  0.8134
19439TIP3    H179808   5.278   2.647  11.368  2.0554 -1.3628  0.7998
19439TIP3    H279809   5.259   2.645  11.518  3.3659 -0.8686  0.9773
19440TIP3   OH279810   1.604   5.889  15.681 -0.2521  0.4611 -0.1780
19440TIP3    H179811   1.560   5.815  15.639  0.1580  0.4068 -0.5099
19440TIP3    H279812   1.662   5.850  15.745  0.9997  0.4223 -1.3173
19441TIP3   OH279813   3.934   0.552  16.096 -0.2758  0.8164 -0.5917
19441TIP3    H179814   4.007   0.502  16.060 -0.0420 -1.1198  2.4154
19441TIP3    H279815   3.953   0.643  16.074  0.8100 -0.0673 -3.5723
19442TIP3   OH279816   1.723   1.470  16.668  0.1294 -0.4594 -0.0446
19442TIP3    H179817   1.734   1.433  16.581 -1.0898 -0.9363 -0.0098
19442TIP3    H279818   1.631   1.495  16.672  0.6264  1.3678  0.4104
19443TIP3   OH279819   1.724   3.644  11.875  0.1224  0.3822 -0.1708
19443TIP3    H179820   1.681   3.724  11.844  1.0479  0.4382 -1.3764
19443TIP3    H279821   1.756   3.602  11.795  1.4354 -0.1435  0.6138
19444TIP3   OH279822   6.442   6.338  11.726  0.1466 -0.0375  0.0944
19444TIP3    H179823   6.415   6.255  11.686 -0.8648 -0.5003  1.6858
19444TIP3    H279824   6.392   6.405  11.679 -0.7034 -0.5307  0.2959
19445TIP3   OH279825   4.948   2.031  14.495  0.0877 -0.2049 -0.3915
19445TIP3    H179826   4.895   2.038  14.416 -1.1132  2.1307  0.5885
19445TIP3    H279827   4.885   2.019  14.566  1.0894 -1.0917  0.3837
19446TIP3   OH279828   6.244   0.890   4.923  0.1282  0.2443  0.2730
19446TIP3    H179829   6.182   0.937   4.867 -0.8143  1.0303  1.9373
19446TIP3    H279830   6.280   0.958   4.980  1.0185 -0.5528  0.6677
19447TIP3   OH279831   5.387   1.999   6.733  0.1743  0.3467  0.2455
19447TIP3    H179832   5.404   1.905   6.729  0.8784  0.4393  1.0336
19447TIP3    H279833   5.291   2.006   6.732  0.0955 -0.2319 -2.7730
19448TIP3   OH279834   4.617   2.240  15.859 -0.1125 -0.1960 -0.1338
19448TIP3    H179835   4.665   2.213  15.937  0.9254 -0.4499 -0.8444
19448TIP3    H279836   4.636   2.334  15.851 -3.9245  0.8942  2.4850
19449TIP3   OH279837   5.940   6.818   2.820  0.2626  0.8739 -0.0112
19449TIP3    H179838   5.938   6.805   2.725  1.6656 -0.3003  0.0951
19449TIP3    H279839   5.950   6.912   2.832 -0.4979  1.0900 -1.0180
19450TIP3   OH279840   5.322   1.408   5.009 -0.2527  0.2104  0.0154
19450TIP3    H179841   5.290   1.406   4.918 -0.4365 -0.3032  0.0867
19450TIP3    H279842   5.367   1.492   5.017 -1.3912  0.8398 -0.1510
19451TIP3   OH279843   1.144   4.380   4.963 -0.0114 -0.2704 -0.1610
19451TIP3    H179844   1.125   4.465   5.003  0.4015  0.7853 -2.1659
19451TIP3    H279845   1.059   4.345   4.938 -0.0836  0.1229 -0.4670
19452TIP3   OH279846   6.804   0.673   2.010 -0.2756 -0.4867 -0.3691
19452TIP3    H179847   6.806   0.659   2.105  1.3922 -1.5819 -0.5510
19452TIP3    H279848   6.713   0.695   1.991 -0.5087  0.3354  1.5683
19453TIP3   OH279849   1.090   4.933   0.230 -0.8672  0.6212  0.5488
19453TIP3    H179850   1.177   4.970   0.215  0.2278 -1.3062  1.9438
19453TIP3    H279851   1.053   4.987   0.299  0.1389  0.0610  1.5441
19454TIP3   OH279852   3.914   2.411   4.108  0.0433  0.0401 -0.3528
19454TIP3    H179853   3.905   2.337   4.168 -1.6574 -1.7061 -2.6491
19454TIP3    H279854   3.931   2.486   4.165 -1.4424 -1.5481  2.2996
19455TIP3   OH279855   4.057   6.593  12.512  0.5243  0.0594  0.8214
19455TIP3    H179856   4.058   6.684  12.482  3.6271 -0.1467  0.0731
19455TIP3    H279857   4.070   6.598  12.607 -0.9517  0.4285  1.0135
19456TIP3   OH279858   2.609   1.543  11.606  0.2249  0.1523 -0.4448
19456TIP3    H179859   2.583   1.543  11.698 -0.1150  1.9725 -0.5202
19456TIP3    H279860   2.643   1.455  11.591 -2.2952 -1.0613  0.6724
19457TIP3   OH279861   5.636   1.601   4.956 -0.1298  0.0636 -0.1701
19457TIP3    H179862   5.673   1.673   4.905  1.1833  0.3394  1.1490
19457TIP3    H279863   5.573   1.642   5.014  0.3873  0.1097  0.3598
19458TIP3   OH279864   4.184   2.692  14.807 -0.4005 -0.2215  0.1871
19458TIP3    H179865   4.226   2.625  14.862  0.8157 -0.3195 -0.8439
19458TIP3    H279866   4.243   2.702  14.732 -2.0669 -0.1360 -1.1439
19459TIP3   OH279867   2.371   6.205  15.263  0.1348 -0.0377  0.1061
19459TIP3    H179868   2.361   6.257  15.343  0.0073 -0.1818  0.1869
19459TIP3    H279869   2.282   6.195  15.230  0.5059  2.7585 -1.8342
19460TIP3   OH279870   1.478   0.462  13.297 -0.2595  0.2511 -0.5513
19460TIP3    H179871   1.467   0.437  13.388 -1.7391 -0.9467 -1.0260
19460TIP3    H279872   1.390   0.454  13.259  0.1704  1.5486 -1.8796
19461TIP3   OH279873   4.686   5.197  16.975  0.0230 -0.3009 -0.2413
19461TIP3    H179874   4.728   5.111  16.972  0.5137 -0.1135  1.1558
19461TIP3    H279875   4.606   5.183  17.026 -0.9803 -0.3785 -1.8034
19462TIP3   OH279876   1.056   5.943   1.542 -0.3931 -0.3531 -0.6408
19462TIP3    H179877   0.966   5.911   1.542 -0.8995  1.0233 -1.2971
19462TIP3    H279878   1.050   6.033   1.574  0.9129 -0.6620  0.5098
19463TIP3   OH279879   3.586   0.759   5.383  0.1853  0.0949 -0.7582
19463TIP3    H179880   3.614   0.851   5.378 -0.0502  0.2732  0.8924
19463TIP3    H279881   3.655   0.716   5.433 -0.6951 -0.1974  0.2196
19464TIP3   OH279882   3.201   2.316   1.721  0.3160  0.3321  0.2518
19464TIP3    H179883   3.258   2.370   1.666 -0.4064  0.1950 -0.6508
19464TIP3    H279884   3.151   2.379   1.773  0.8523  0.4699  0.6053
19465TIP3   OH279885   5.436   2.802  16.472 -0.7491  0.3960 -0.7351
19465TIP3    H179886   5.451   2.708  16.481 -0.0469  0.5119 -0.6926
19465TIP3    H279887   5.445   2.836  16.560 -0.7730  0.5329 -0.7876
19466TIP3   OH279888   0.586   5.402  14.432  0.0647 -0.4539  0.4799
19466TIP3    H179889   0.632   5.439  14.357 -0.0697 -0.0998  0.5690
19466TIP3    H279890   0.575   5.476  14.492  0.3510 -0.7797  0.9356
19467TIP3   OH279891   5.457   3.685  16.772 -0.1660 -0.1935 -0.0878
19467TIP3    H179892   5.477   3.667  16.864 -0.9789 -0.5155  0.0307
19467TIP3    H279893   5.410   3.769  16.774 -2.4246 -1.4182  0.0677
19468TIP3   OH279894   2.136   6.583   0.970 -0.4078  0.0911 -0.0364
19468TIP3    H179895   2.143   6.657   0.909 -2.0122  0.1153 -0.1982
19468TIP3    H279896   2.053   6.542   0.948 -0.1399 -0.9872  0.9424
19469TIP3   OH279897   6.010   5.722  13.123 -0.5892 -0.1248 -0.1872
19469TIP3    H179898   6.010   5.800  13.178  0.1282  0.8029 -1.4841
19469TIP3    H279899   6.085   5.733  13.065 -0.1315 -2.0668  0.0130
19470TIP3   OH279900   4.702   6.809  16.595 -0.2779  0.1396  0.3537
19470TIP3    H179901   4.632   6.856  16.549  1.2593  2.2151  0.0446
19470TIP3    H279902   4.687   6.828  16.688 -1.5102 -1.3975  0.4751
19471TIP3   OH279903   5.602   2.518   0.368  0.2641  0.1636 -0.5693
19471TIP3    H179904   5.550   2.546   0.443 -0.8352  0.3635 -1.3940
19471TIP3    H279905   5.660   2.591   0.349  2.0943 -0.7232  1.4376
19472TIP3   OH279906   1.235   4.595  10.547 -0.2975 -0.2571  0.7485
19472TIP3    H179907   1.290   4.548  10.483 -0.2705  0.9777 -0.1418
19472TIP3    H279908   1.246   4.687  10.525 -2.0237  0.0587  1.1377
19473TIP3   OH279909   0.862   2.155  13.129  0.1260 -0.2843  0.3531
19473TIP3    H179910   0.934   2.134  13.068  0.3964  0.8678  0.2660
19473TIP3    H279911   0.789   2.101  13.099 -0.0408  0.9924 -1.6066
19474TIP3   OH279912   5.639   6.533  14.952  0.0718  0.5978  0.1789
19474TIP3    H179913   5.641   6.585  15.033  0.7923  2.2822 -0.8788
19474TIP3    H279914   5.558   6.560  14.909 -0.1382 -0.0390  0.1840
19475TIP3   OH279915   0.892   0.419  14.891 -0.0522  0.2303  0.2630
19475TIP3    H179916   0.856   0.479  14.825 -0.7947  0.9432  1.2924
19475TIP3    H279917   0.881   0.332  14.853 -1.3792  0.5661 -0.1470
19476TIP3   OH279918   0.556   2.861   1.932  0.0943 -0.2036 -0.2555
19476TIP3    H179919   0.622   2.798   1.901 -0.8789 -1.3608 -0.0273
19476TIP3    H279920   0.489   2.861   1.864  0.3261  0.9875 -0.4977
19477TIP3   OH279921   6.295   5.429  13.879  0.5239  0.2211 -0.2553
19477TIP3    H179922   6.280   5.520  13.854  0.5742 -0.2543 -2.1424
19477TIP3    H279923   6.228   5.380  13.831  0.2444 -0.7035  1.0554
19478TIP3   OH279924   3.066   5.230   5.748 -0.3434  0.0578  0.1225
19478TIP3    H179925   3.018   5.165   5.800 -0.7467 -0.4199 -0.8234
19478TIP3    H279926   3.123   5.178   5.692 -0.3624  0.5423 -0.3467
19479TIP3   OH279927   6.443   0.036   0.515  0.4270  0.4754 -0.6150
19479TIP3    H179928   6.532   0.033   0.550 -0.4788  0.8188  1.7763
19479TIP3    H279929   6.394   0.092   0.576 -1.8632 -1.1712 -0.8550
19480TIP3   OH279930   5.607   6.124   0.814  0.1378 -0.3682 -0.4354
19480TIP3    H179931   5.545   6.156   0.880  1.7591  1.2162  0.3507
19480TIP3    H279932   5.639   6.203   0.770  1.4971 -1.1711 -0.9197
19481TIP3   OH279933   3.871   4.548   0.843 -0.1977  0.2097  0.3967
19481TIP3    H179934   3.944   4.515   0.791  0.8353  0.5281  1.6128
19481TIP3    H279935   3.793   4.524   0.793  0.6222 -2.2276  0.2424
19482TIP3   OH279936   3.350   0.830   3.828  0.1030  0.2092 -0.1919
19482TIP3    H179937   3.336   0.909   3.880 -2.5123 -0.9131  0.9179
19482TIP3    H279938   3.346   0.860   3.737 -2.5123  1.1342  0.1953
19483TIP3   OH279939   3.820   6.726   0.589  0.3119 -0.6781  0.6579
19483TIP3    H179940   3.911   6.756   0.594 -0.3100  1.0499  1.8782
19483TIP3    H279941   3.773   6.782   0.650 -1.3021 -2.6369  1.2516
19484TIP3   OH279942   4.835   5.800   0.862 -0.2205  0.3201  0.7654
19484TIP3    H179943   4.748   5.836   0.880 -0.1057  0.4109  1.1545
19484TIP3    H279944   4.881   5.870   0.817 -0.2971  0.3308  0.7041
19485TIP3   OH279945   3.191   3.659   4.416 -0.1600  0.7156  0.4377
19485TIP3    H179946   3.180   3.699   4.329  0.5384 -0.2211 -0.0985
19485TIP3    H279947   3.102   3.653   4.451 -0.4526  1.0613 -0.2408
19486TIP3   OH279948   2.600   2.441   3.006  0.1723 -0.4343 -0.2746
19486TIP3    H179949   2.596   2.438   2.910  0.5202 -0.0747 -0.3010
19486TIP3    H279950   2.674   2.384   3.029  1.0389  0.6547 -0.3031
19487TIP3   OH279951   6.240   5.305   2.449 -0.4579 -0.0813  0.5248
19487TIP3    H179952   6.186   5.379   2.421  0.4169  0.3343 -0.0665
19487TIP3    H279953   6.291   5.281   2.372 -0.8871 -1.4471  0.6470
19488TIP3   OH279954   1.729   4.994  10.598 -0.0307 -0.0783 -0.0119
19488TIP3    H179955   1.749   4.918  10.545  0.6171 -0.4435  0.7419
19488TIP3    H279956   1.783   4.983  10.677  2.9064  2.9719 -1.4532
19489TIP3   OH279957   1.273   2.030  15.290 -0.4918 -0.3121  0.2967
19489TIP3    H179958   1.325   2.103  15.323 -1.6599  1.3034 -1.3459
19489TIP3    H279959   1.302   1.955  15.341 -0.0266  1.5008  2.8090
19490TIP3   OH279960   5.087   5.028   5.530 -0.3754  0.5550 -0.2721
19490TIP3    H179961   5.090   5.013   5.435 -1.5085  1.3573 -0.4460
19490TIP3    H279962   5.023   4.966   5.563 -0.3385  0.6066 -0.1006
19491TIP3   OH279963   1.999   5.523   2.359  0.1895  0.2881  0.4922
19491TIP3    H179964   1.970   5.614   2.365 -1.4089 -0.0417 -1.5264
19491TIP3    H279965   1.943   5.484   2.291  1.8709 -1.8010  0.2322
19492TIP3   OH279966   0.888   2.301  13.355 -0.1581 -0.2444  0.1635
19492TIP3    H179967   0.830   2.267  13.423 -2.9287  1.2778 -1.3456
19492TIP3    H279968   0.877   2.241  13.281 -1.0620  0.9434 -0.6834
19493TIP3   OH279969   1.165   6.614  11.575  0.5073  0.3233  0.7602
19493TIP3    H179970   1.246   6.577  11.541  0.4260  0.8352 -0.0087
19493TIP3    H279971   1.158   6.580  11.664  0.6509 -1.1622  0.2164
19494TIP3   OH279972   5.384   2.708   1.461  0.3327 -0.1743 -0.0614
19494TIP3    H179973   5.449   2.763   1.419  0.2251 -0.0525 -0.0673
19494TIP3    H279974   5.325   2.681   1.390  0.0437  0.1814  0.0462
19495TIP3   OH279975   1.637   1.151  12.577  0.3949  0.0775 -0.9377
19495TIP3    H179976   1.571   1.165  12.645 -2.0120 -0.1537 -3.1450
19495TIP3    H279977   1.650   1.237  12.538  3.1398  0.5841  0.9340
19496TIP3   OH279978   2.782   3.635   2.963 -0.6559  0.3174  0.4146
19496TIP3    H179979   2.770   3.587   2.881  3.3878 -1.0310  0.5272
19496TIP3    H279980   2.770   3.727   2.939  1.1031 -0.0021 -1.8677
19497TIP3   OH279981   0.330   4.308   6.114 -0.3639 -0.0256 -0.6388
19497TIP3    H179982   0.413   4.334   6.155  0.2688 -0.0680 -1.8717
19497TIP3    H279983   0.317   4.217   6.141  0.3401 -0.2329 -0.9932
19498TIP3   OH279984   4.904   1.606  16.028  0.1192  0.2730 -0.2663
19498TIP3    H179985   4.885   1.700  16.029 -0.1398  0.2270 -0.7267
19498TIP3    H279986   4.851   1.571  16.100  0.4000  0.5136  0.0623
19499TIP3   OH279987   2.504   6.590  16.500 -0.6365  0.0998 -0.5719
19499TIP3    H179988   2.420   6.635  16.511 -1.0538 -0.9173  0.4308
19499TIP3    H279989   2.561   6.656  16.460 -1.8245  0.8856 -0.9981
19500TIP3   OH279990   2.241   1.987  12.660  0.2592 -0.8033 -0.4759
19500TIP3    H179991   2.201   2.000  12.746 -1.1853 -2.9400 -0.7876
19500TIP3    H279992   2.179   2.026  12.599  0.3297 -1.0531 -0.7051
19501TIP3   OH279993   3.208   2.113  12.641  0.2860  0.4526  0.0855
19501TIP3    H179994   3.133   2.085  12.694 -0.0960  0.0862 -0.6310
19501TIP3    H279995   3.197   2.207  12.631  0.6531  0.6026  1.1072
19502TIP3   OH279996   2.391   5.324  15.335  0.3622  0.1339 -0.1080
19502TIP3    H179997   2.448   5.310  15.411 -1.1658 -2.3377  0.6463
19502TIP3    H279998   2.382   5.419  15.329  3.1968  0.4913  0.7646
19503TIP3   OH279999   6.554   4.276   6.416  0.3975 -0.4951  0.0545
19503TIP3    H180000   6.589   4.304   6.501 -0.7971 -0.8051  0.6528
19503TIP3    H280001   6.495   4.204   6.437 -0.1612 -0.3546 -1.0164
19504TIP3   OH280002   3.853   5.389   4.949  0.2185 -0.2180 -0.5098
19504TIP3    H180003   3.824   5.332   4.878  1.3141 -2.3037  0.6615
19504TIP3    H280004   3.809   5.356   5.027  3.0511 -1.3629  0.6964
19505TIP3   OH280005   1.967   2.892   4.427 -0.0104 -0.2817 -0.1191
19505TIP3    H180006   2.038   2.864   4.369  0.4369 -0.3030  0.4307
19505TIP3    H280007   2.008   2.898   4.513 -0.8883 -1.1940  0.3779
19506TIP3   OH280008   2.690   4.659   2.500 -0.8922 -0.0042 -0.1007
19506TIP3    H180009   2.673   4.740   2.548 -1.1758 -0.0599 -0.1032
19506TIP3    H280010   2.665   4.679   2.410 -0.2524  0.1360 -0.2483
19507TIP3   OH280011   4.140   6.456  14.540 -0.0430 -0.3840  0.3476
19507TIP3    H180012   4.142   6.372  14.495 -1.8144 -0.5580  0.5622
19507TIP3    H280013   4.094   6.439  14.622 -0.0932  0.7031  0.5555
19508TIP3   OH280014   5.898   5.116   4.388  0.6228 -0.5455 -0.2005
19508TIP3    H180015   5.914   5.155   4.474  0.9149 -0.3881 -0.3255
19508TIP3    H280016   5.962   5.046   4.381 -0.3938 -1.5412  0.3323
19509TIP3   OH280017   4.737   3.759   0.731  0.3304  0.9322 -0.3625
19509TIP3    H180018   4.670   3.808   0.777 -0.3971  2.0220 -2.5048
19509TIP3    H280019   4.819   3.784   0.774 -0.3941  1.3734  0.7777
19510TIP3   OH280020   2.489   6.282  14.692 -0.2037 -0.0919 -0.0619
19510TIP3    H180021   2.444   6.351  14.741 -0.5167 -1.4462  1.6394
19510TIP3    H280022   2.437   6.270  14.613 -0.7499  0.8722  0.1457
19511TIP3   OH280023   1.428   0.025  14.812  0.7756  0.4779  0.5642
19511TIP3    H180024   1.521   0.018  14.834  0.6547  0.9372  1.2282
19511TIP3    H280025   1.384   0.034  14.897 -0.1346 -2.5176  0.4809
19512TIP3   OH280026   5.226   6.115  14.000 -0.6816  0.1025 -0.4993
19512TIP3    H180027   5.208   6.036  14.051  0.3703  0.0240 -0.2377
19512TIP3    H280028   5.290   6.164  14.053  0.6499 -0.1183 -1.8622
19513TIP3   OH280029   3.610   0.912   4.875  0.1618  0.0667 -0.6483
19513TIP3    H180030   3.613   0.906   4.971 -2.3559  0.7061 -0.4856
19513TIP3    H280031   3.517   0.928   4.856  0.3094 -2.0717 -3.3307
19514TIP3   OH280032   6.579   4.623   1.321  0.0740 -0.3765 -0.0376
19514TIP3    H180033   6.567   4.602   1.414 -1.2891  0.2956 -0.0485
19514TIP3    H280034   6.672   4.606   1.304  0.5237  0.2877  1.6603
19515TIP3   OH280035   4.886   0.808   0.996  0.0006  0.0702 -0.0375
19515TIP3    H180036   4.923   0.786   1.081 -0.2479 -1.4400 -0.2964
19515TIP3    H280037   4.855   0.898   1.005  3.1651  1.1978  0.3646
19516TIP3   OH280038   5.739   3.645   4.920 -0.0991  0.3270 -0.5336
19516TIP3    H180039   5.722   3.670   4.829 -1.0596 -0.1022 -0.4750
19516TIP3    H280040   5.749   3.550   4.917 -1.3738  0.1690 -0.0102
19517TIP3   OH280041   6.812   1.600  12.524 -0.3870  0.1718  0.1134
19517TIP3    H180042   6.813   1.535  12.454 -0.9164 -0.3870  0.6222
19517TIP3    H280043   6.872   1.669  12.493  0.3698 -0.6633 -0.3157
19518TIP3   OH280044   5.537   4.233  11.629  0.2084  0.1074 -0.5960
19518TIP3    H180045   5.513   4.140  11.626  0.9506 -0.1215  0.4360
19518TIP3    H280046   5.501   4.269  11.548 -0.8276 -0.8999 -0.5991
19519TIP3   OH280047   1.312   5.884   1.744  0.0422  0.0925 -0.2528
19519TIP3    H180048   1.307   5.977   1.768 -1.9979 -0.0243 -0.1894
19519TIP3    H280049   1.357   5.884   1.660  1.2267  1.0243  0.3539
19520TIP3   OH280050   1.540   3.968  13.229  0.0687  0.4075 -0.3182
19520TIP3    H180051   1.472   3.968  13.162  0.0728 -0.3149 -0.3186
19520TIP3    H280052   1.621   3.988  13.182  0.3227 -1.6222 -0.7829
19521TIP3   OH280053   3.803   5.970  14.259 -0.5417 -0.2117 -0.2637
19521TIP3    H180054   3.781   5.878  14.271 -0.2927 -0.3496 -0.8605
19521TIP3    H280055   3.719   6.015  14.259 -0.7362 -0.5704 -1.1157
19522TIP3   OH280056   4.113   5.875  13.577  0.6247  0.7887 -0.4332
19522TIP3    H180057   4.056   5.938  13.531  1.7350  2.4527  0.4210
19522TIP3    H280058   4.156   5.927  13.644 -0.7589 -1.5486  2.3844
19523TIP3   OH280059   2.972   5.005   3.255 -0.3936  0.3057  0.5217
19523TIP3    H180060   2.913   5.075   3.230 -0.8258 -0.8408 -1.7891
19523TIP3    H280061   3.060   5.040   3.241 -0.5624  1.0411  1.2698
19524TIP3   OH280062   5.811   4.560   5.904 -0.6645 -0.1956  0.1785
19524TIP3    H180063   5.799   4.598   5.991  0.4559 -0.2775  0.3807
19524TIP3    H280064   5.891   4.509   5.911  1.4396  2.6476 -1.8182
19525TIP3   OH280065   4.084   1.696  12.042  0.1145 -0.1894  0.2396
19525TIP3    H180066   4.097   1.644  12.122  1.2500 -1.1358 -0.5480
19525TIP3    H280067   4.017   1.647  11.993  1.3882 -1.0711 -0.6314
19526TIP3   OH280068   0.194   0.977  17.175 -0.2979 -0.2243 -0.6159
19526TIP3    H180069   0.157   0.906  17.228  0.2484 -2.1835 -2.7465
19526TIP3    H280070   0.132   0.987  17.103  0.6995 -0.0229 -1.4624
19527TIP3   OH280071   4.020   4.263  16.063 -0.0043 -0.0569  0.0699
19527TIP3    H180072   4.009   4.340  16.119  0.1548  1.9906 -2.5658
19527TIP3    H280073   3.933   4.249  16.026 -0.1415 -1.4744  0.9112
19528TIP3   OH280074   0.565   0.824   5.549 -0.0976 -0.2323 -0.2431
19528TIP3    H180075   0.544   0.894   5.488  0.8926 -0.3681 -0.7364
19528TIP3    H280076   0.600   0.869   5.626  0.5964 -0.1841 -0.5842
19529TIP3   OH280077   1.201   0.892   2.162  0.4858  0.0648  0.1150
19529TIP3    H180078   1.227   0.800   2.165  0.9111  0.1103 -1.7145
19529TIP3    H280079   1.262   0.932   2.099  0.7697  1.7478  1.4091
19530TIP3   OH280080   3.943   4.213   3.276 -0.6789 -0.0168 -0.3550
19530TIP3    H180081   3.993   4.269   3.336  2.0690 -1.8816 -0.8353
19530TIP3    H280082   3.852   4.240   3.289  0.4377  3.8207  0.1952
19531TIP3   OH280083   1.399   5.380   1.256 -0.1806  0.7197  0.0001
19531TIP3    H180084   1.303   5.386   1.259 -0.4242 -2.1886 -0.6049
19531TIP3    H280085   1.419   5.371   1.163  0.7823  2.1694  0.0475
19532TIP3   OH280086   3.990   5.320  12.096 -0.2702  0.2458 -0.6511
19532TIP3    H180087   3.966   5.300  12.005  0.9840  0.7966 -1.1095
19532TIP3    H280088   4.042   5.245  12.124  0.7274  0.8264 -0.9307
19533TIP3   OH280089   3.819   5.932   4.860 -0.2817  0.0509  0.6001
19533TIP3    H180090   3.831   5.894   4.947 -0.1430  1.0730  1.0315
19533TIP3    H280091   3.732   5.971   4.863  1.3704  3.8323  1.7211
19534TIP3   OH280092   2.723   1.694  13.567 -0.5371 -0.6160 -0.2255
19534TIP3    H180093   2.761   1.782  13.565 -1.6583 -0.1196  0.3687
19534TIP3    H280094   2.634   1.705  13.536 -1.0678 -1.3555  1.0081
19535TIP3   OH280095   2.291   0.057  16.138  0.0351  0.0669 -0.0488
19535TIP3    H180096   2.212   0.047  16.084  0.8555  1.8283 -1.6623
19535TIP3    H280097   2.307   0.152  16.138  1.9142 -0.2371  0.5713
19536TIP3   OH280098   2.620   5.824  16.466  0.3106  0.2933  0.0171
19536TIP3    H180099   2.619   5.872  16.383  2.3950  1.8382  0.8219
19536TIP3    H280100   2.529   5.825  16.496  0.0284  2.2563 -0.8397
19537TIP3   OH280101   0.306   4.574  15.867 -0.2336  0.0615 -0.4061
19537TIP3    H180102   0.293   4.539  15.955  0.2277  1.4313  0.2301
19537TIP3    H280103   0.218   4.593  15.836 -0.5016 -1.8454 -0.8485
19538TIP3   OH280104   4.546   4.292  12.274 -0.3747  0.5579  0.2065
19538TIP3    H180105   4.554   4.204  12.313  0.3590  0.6751  0.3290
19538TIP3    H280106   4.454   4.316  12.290  0.4577  1.6104  4.0776
19539TIP3   OH280107   0.355   6.343  15.274 -0.3419 -0.4449 -0.1683
19539TIP3    H180108   0.368   6.430  15.312  0.7241 -0.5597 -0.2442
19539TIP3    H280109   0.429   6.292  15.306 -1.4526 -1.5972  0.6264
19540TIP3   OH280110   5.984   3.060  12.579 -0.4961  0.6306 -0.5854
19540TIP3    H180111   6.048   3.125  12.607  0.4802 -0.1977 -0.8281
19540TIP3    H280112   6.005   3.044  12.487  0.2322 -1.0826 -0.1426
19541TIP3   OH280113   1.516   6.342   0.227  0.9475  0.2602  0.2731
19541TIP3    H180114   1.555   6.257   0.247  1.2563  0.0116 -1.3038
19541TIP3    H280115   1.462   6.325   0.150 -0.2808  1.1480  0.9309
19542TIP3   OH280116   0.417   0.558   4.713  0.0985  0.8505 -0.2697
19542TIP3    H180117   0.493   0.501   4.719 -0.5841  0.0557  1.1577
19542TIP3    H280118   0.447   0.633   4.662  1.2860 -0.3251 -1.3185
19543TIP3   OH280119   4.665   2.929   5.388  0.0607 -0.1026 -0.1367
19543TIP3    H180120   4.676   2.847   5.340  1.4052 -0.6077  1.0051
19543TIP3    H280121   4.733   2.987   5.353 -0.7216  0.4536 -0.7593
19544TIP3   OH280122   2.489   1.567  15.364  0.0991 -0.1075 -0.3565
19544TIP3    H180123   2.575   1.527  15.377  0.6910  0.5819 -2.0153
19544TIP3    H280124   2.507   1.662  15.369 -0.6653  0.0265 -0.1567
19545TIP3   OH280125   2.245   0.662  14.817  0.2264  0.0423 -0.2551
19545TIP3    H180126   2.174   0.691  14.874  0.5532  0.5233 -0.0902
19545TIP3    H280127   2.261   0.737  14.759  0.4678 -0.1365 -0.4215
19546TIP3   OH280128   3.949   4.002   2.219 -0.0425  0.1954  0.0247
19546TIP3    H180129   3.973   3.956   2.139  0.5223  0.7782 -0.1501
19546TIP3    H280130   3.904   3.937   2.273 -0.3933 -0.2115 -0.7488
19547TIP3   OH280131   0.759   4.317   0.371  0.1295  0.0005 -0.2401
19547TIP3    H180132   0.813   4.390   0.342  1.3477 -1.0024 -0.5491
19547TIP3    H280133   0.670   4.344   0.351  0.8305 -0.1293 -3.8373
19548TIP3   OH280134   4.227   6.249   1.299 -0.6918 -0.1731  0.4124
19548TIP3    H180135   4.272   6.174   1.339  1.2343 -0.5580 -2.3326
19548TIP3    H280136   4.134   6.231   1.313 -0.1649 -1.8765  1.8772
19549TIP3   OH280137   6.289   2.169   4.540  0.0211  0.4211  0.1848
19549TIP3    H180138   6.354   2.105   4.569 -0.0730  0.6734  0.9704
19549TIP3    H280139   6.242   2.193   4.620 -1.0088  0.2717 -0.3717
19550TIP3   OH280140   4.030   0.441  13.982  0.2343 -0.2495 -0.1319
19550TIP3    H180141   3.974   0.518  13.978  1.4930  0.6248 -1.6083
19550TIP3    H280142   4.006   0.390  13.904 -0.4523 -1.2574  0.7312
19551TIP3   OH280143   2.293   3.931   6.279 -0.7754 -0.0684 -0.1486
19551TIP3    H180144   2.361   3.876   6.240 -0.9956 -0.2316 -0.2999
19551TIP3    H280145   2.341   3.996   6.330 -0.5723 -1.7363  1.8447
19552TIP3   OH280146   0.932   4.362  14.818  0.6895  0.0429  0.3451
19552TIP3    H180147   0.905   4.345  14.908 -1.2734  0.5365 -0.1154
19552TIP3    H280148   0.870   4.429  14.787  2.0935  0.7513 -0.9886
19553TIP3   OH280149   5.773   5.312   5.716  0.1834  0.3351 -0.3698
19553TIP3    H180150   5.705   5.248   5.735  0.5247  0.8629  2.7983
19553TIP3    H280151   5.727   5.396   5.719  0.2938  0.4657 -1.8182
19554TIP3   OH280152   1.141   5.016   4.047 -0.6096 -0.1679  0.3411
19554TIP3    H180153   1.229   5.000   4.081  1.0007  0.8467 -3.0236
19554TIP3    H280154   1.109   4.930   4.020  0.9853 -0.0997 -1.9335
19555TIP3   OH280155   4.872   1.749   6.148  0.0035 -0.2258 -0.0491
19555TIP3    H180156   4.939   1.816   6.135 -0.2790  0.0695 -0.0004
19555TIP3    H280157   4.843   1.761   6.238  1.8086 -2.1288  0.8196
19556TIP3   OH280158   2.038   4.418   0.386  0.1787  0.3309  0.3290
19556TIP3    H180159   2.009   4.329   0.403  0.9417  0.0286  0.0842
19556TIP3    H280160   1.957   4.470   0.383 -0.2871 -0.3921  0.2255
19557TIP3   OH280161   3.877   2.591   2.993 -0.7391 -0.3856  0.4306
19557TIP3    H180162   3.965   2.608   3.027  0.5033 -4.0808 -0.7089
19557TIP3    H280163   3.866   2.654   2.922  0.7504  0.4885  0.9564
19558TIP3   OH280164   6.270   6.057  14.179 -0.4591 -0.3295  0.5596
19558TIP3    H180165   6.231   5.972  14.200  0.8659 -1.4290 -1.3214
19558TIP3    H280166   6.339   6.037  14.117  0.8217  1.9902  1.1811
19559TIP3   OH280167   1.597   1.467  13.595 -0.2259 -0.1552 -0.7635
19559TIP3    H180168   1.524   1.407  13.577  0.2118 -0.6465 -0.9205
19559TIP3    H280169   1.612   1.512  13.512  0.4402 -0.9297 -1.0685
19560TIP3   OH280170   5.968   6.371   1.799 -0.1767 -0.0081 -0.1333
19560TIP3    H180171   5.907   6.440   1.826  1.0593  1.1366 -0.1959
19560TIP3    H280172   6.006   6.338   1.881  0.2938  0.3936 -0.1851
19561TIP3   OH280173   2.179   3.337  11.894  0.4513 -0.1187  0.1100
19561TIP3    H180174   2.148   3.400  11.829  1.5793  1.0430  0.6510
19561TIP3    H280175   2.170   3.383  11.977  1.3157 -0.6603  0.5111
19562TIP3   OH280176   4.180   0.545  13.215 -0.1354  0.0944  0.0622
19562TIP3    H180177   4.189   0.628  13.262 -0.5448  0.4137 -0.4225
19562TIP3    H280178   4.164   0.480  13.284  1.1845  0.2470  0.5379
19563TIP3   OH280179   5.691   6.264  14.959  0.1915 -0.5287  0.3299
19563TIP3    H180180   5.651   6.349  14.975  0.0751 -0.5385  0.1016
19563TIP3    H280181   5.657   6.207  15.028  1.8758  0.1090  1.7341
19564TIP3   OH280182   2.128   2.391  16.174  0.0764 -0.0786 -0.4498
19564TIP3    H180183   2.069   2.371  16.102 -0.9428 -1.8478  0.8572
19564TIP3    H280184   2.103   2.479  16.201 -1.5147 -0.5564 -0.3332
19565TIP3   OH280185   1.092   3.304   5.544 -0.0281  0.2727 -0.0078
19565TIP3    H180186   1.149   3.354   5.603 -2.5790  2.4901  0.6767
19565TIP3    H280187   1.074   3.223   5.592  0.9102  0.4354  0.6443
19566TIP3   OH280188   3.746   0.165  13.218  0.1731 -0.1786  0.2172
19566TIP3    H180189   3.714   0.151  13.128  2.0502 -1.6729 -0.2534
19566TIP3    H280190   3.734   0.080  13.260  0.3288  0.2173  1.0654
19567TIP3   OH280191   0.712   5.949  12.916  0.4068  0.0614  0.4657
19567TIP3    H180192   0.693   6.016  12.849 -0.4842 -1.0331 -0.4186
19567TIP3    H280193   0.755   5.997  12.987  1.7502  1.1888 -1.0648
19568TIP3   OH280194   2.756   4.897  13.220  0.0129  0.6944 -0.0127
19568TIP3    H180195   2.720   4.852  13.143 -1.0679 -0.9095  1.3915
19568TIP3    H280196   2.681   4.907  13.279  0.9374  1.4716  1.0421
19569TIP3   OH280197   2.843   6.029  14.494  0.0077 -0.0338  0.5473
19569TIP3    H180198   2.765   5.976  14.476 -0.2692  1.0991 -1.7914
19569TIP3    H280199   2.823   6.114  14.456  0.8750  1.4658  3.3415
19570TIP3   OH280200   1.840   0.240  11.943 -0.0292  0.1732  0.0053
19570TIP3    H180201   1.806   0.157  11.977 -1.7926  0.6123 -0.6371
19570TIP3    H280202   1.903   0.215  11.876 -0.5537 -0.6526 -0.1833
19571TIP3   OH280203   2.010   5.587   4.816  0.3679  0.2003 -0.7371
19571TIP3    H180204   1.955   5.522   4.773 -0.6699 -0.3207  1.3199
19571TIP3    H280205   2.099   5.554   4.804 -0.0407 -0.8313 -0.9724
19572TIP3   OH280206   5.886   0.442  12.714 -0.3782  0.0024  0.0493
19572TIP3    H180207   5.955   0.506  12.701 -0.2974 -0.0801  0.0722
19572TIP3    H280208   5.881   0.395  12.631 -0.9231  0.5106 -0.2140
19573TIP3   OH280209   4.991   4.172   6.417  0.5193 -0.4746  0.3113
19573TIP3    H180210   4.910   4.128   6.445  1.0252 -1.2108  0.6372
19573TIP3    H280211   5.004   4.241   6.482 -0.8385  0.8560 -0.7875
19574TIP3   OH280212   5.296   1.457  11.059  0.0170  0.1235 -0.2559
19574TIP3    H180213   5.215   1.424  11.097 -0.2386 -0.0478 -0.9399
19574TIP3    H280214   5.285   1.446  10.965  0.4135  1.0764 -0.4189
19575TIP3   OH280215   6.795   2.439  16.031  0.2592  0.3615 -0.3068
19575TIP3    H180216   6.802   2.467  15.940 -1.9919  0.9189 -0.3182
19575TIP3    H280217   6.866   2.485  16.076  0.0365  1.7568 -1.3656
19576TIP3   OH280218   4.523   4.874   1.188  0.1319  0.2359 -0.0034
19576TIP3    H180219   4.500   4.797   1.240 -2.1471  2.6724  2.7883
19576TIP3    H280220   4.461   4.874   1.116  0.7662 -1.0311 -0.5652
19577TIP3   OH280221   3.955   0.047  12.126  0.1659 -0.0650 -0.0999
19577TIP3    H180222   3.902   0.123  12.103  0.4526  0.6001  1.4323
19577TIP3    H280223   3.908   0.005  12.198 -0.6837 -2.0964 -1.7933
19578TIP3   OH280224   1.499   3.939  14.727 -0.2508  0.0408 -0.2568
19578TIP3    H180225   1.591   3.958  14.748 -0.7293  1.4232  0.6281
19578TIP3    H280226   1.463   4.023  14.699 -1.1903 -0.5430 -0.8107
19579TIP3   OH280227   5.555   0.646  11.631 -0.3041 -0.3520  0.1063
19579TIP3    H180228   5.502   0.668  11.708  0.6902  3.4219 -0.1771
19579TIP3    H280229   5.645   0.668  11.657  0.1604  0.1162 -1.8209
19580TIP3   OH280230   1.083   5.195   2.447  0.5684 -0.1994  0.0667
19580TIP3    H180231   1.121   5.109   2.466  2.7565  0.6603 -0.2778
19580TIP3    H280232   1.020   5.210   2.517  2.4724 -0.7177  1.9507
19581TIP3   OH280233   1.585   1.295   5.546 -0.5959  0.3547  0.4573
19581TIP3    H180234   1.619   1.205   5.543 -2.7243 -0.4155 -2.5035
19581TIP3    H280235   1.496   1.286   5.580 -0.9135  1.3222 -0.0985
19582TIP3   OH280236   3.231   2.835  11.211  0.5992 -0.6593  0.1076
19582TIP3    H180237   3.210   2.822  11.119  0.2091 -0.0086  0.1005
19582TIP3    H280238   3.208   2.927  11.228  0.4925 -0.8311  0.9002
19583TIP3   OH280239   0.153   4.223  13.673  0.0205  0.3415 -0.2306
19583TIP3    H180240   0.153   4.152  13.736 -1.8407  1.7836  1.4591
19583TIP3    H280241   0.188   4.298  13.721 -1.1311  1.3803 -0.9667
19584TIP3   OH280242   2.770   1.643   0.034 -0.0343 -0.5344  0.5288
19584TIP3    H180243   2.766   1.574  -0.033  2.9129 -0.6809  0.4029
19584TIP3    H280244   2.727   1.718  -0.006 -0.2089 -1.2868 -0.7135
19585TIP3   OH280245   4.834   6.548  11.184 -1.0377 -0.5902  0.8573
19585TIP3    H180246   4.771   6.483  11.151 -0.7835 -1.1592  1.4958
19585TIP3    H280247   4.918   6.521  11.146 -1.0184 -0.3420  0.7211
19586TIP3   OH280248   1.783   1.101  13.581 -0.1207 -0.3733  1.1736
19586TIP3    H180249   1.845   1.031  13.602  0.6241  0.2615  1.1127
19586TIP3    H280250   1.774   1.150  13.663 -0.0332 -0.0745  1.0040
19587TIP3   OH280251   5.605   3.409  12.424 -0.7268 -0.4182 -0.0440
19587TIP3    H180252   5.645   3.484  12.468 -1.8749  0.6332 -0.7334
19587TIP3    H280253   5.662   3.393  12.348 -0.2560 -0.4936  0.3260
19588TIP3   OH280254   0.760   1.580  15.640 -0.3979  0.4063 -0.1902
19588TIP3    H180255   0.728   1.618  15.558 -1.6289 -0.1164  0.0280
19588TIP3    H280256   0.723   1.637  15.708  0.1801  0.5263  0.0244
19589TIP3   OH280257   2.085   2.627   2.348  0.5134 -0.0435  0.3266
19589TIP3    H180258   2.106   2.563   2.416 -2.5618 -0.3410  1.0682
19589TIP3    H280259   2.053   2.703   2.395 -0.4431  0.2303 -0.7268
19590TIP3   OH280260   0.028   4.347  13.040  0.0549 -0.1309  0.1957
19590TIP3    H180261   0.088   4.284  13.079 -0.0524 -0.5134 -0.2433
19590TIP3    H280262  -0.022   4.296  12.976 -1.2758  0.0201  1.1102
19591TIP3   OH280263   0.705   3.232  15.333 -0.3790  0.0594 -0.0597
19591TIP3    H180264   0.765   3.299  15.367  0.1498 -1.2799  1.7030
19591TIP3    H280265   0.742   3.209  15.248 -0.6546  2.0969 -0.7608
19592TIP3   OH280266   1.117   0.728  14.434 -0.5257  0.3888  0.5851
19592TIP3    H180267   1.077   0.697  14.515  0.6675  0.6126  1.2700
19592TIP3    H280268   1.086   0.818  14.425 -0.2548  0.5321  1.0627
19593TIP3   OH280269   4.826   1.606   2.423  0.3312  0.2586 -0.0007
19593TIP3    H180270   4.762   1.603   2.352 -0.7329 -2.6788  1.0268
19593TIP3    H280271   4.903   1.648   2.384 -0.9233  0.5294 -2.2845
19594TIP3   OH280272   4.839   0.292   2.814 -0.3960 -0.3023 -0.3320
19594TIP3    H180273   4.886   0.216   2.848  1.4224  0.5108 -1.0155
19594TIP3    H280274   4.797   0.330   2.892  0.2109 -0.9314  0.3101
19595TIP3   OH280275   3.868   3.812   3.298 -0.1004  0.7536  0.3782
19595TIP3    H180276   3.864   3.842   3.389  2.5021 -2.7759  1.7880
19595TIP3    H280277   3.838   3.721   3.302  0.1188  0.5362 -2.2667
19596TIP3   OH280278   2.792   2.351  14.221 -0.4445  0.4516  0.6706
19596TIP3    H180279   2.863   2.304  14.265  1.5090  2.1473 -0.5913
19596TIP3    H280280   2.799   2.325  14.129 -0.4810  1.7872  0.2758
19597TIP3   OH280281   3.463   5.291   6.210  0.3544 -0.2883 -0.0801
19597TIP3    H180282   3.524   5.359   6.180 -0.0917  0.4398  0.6397
19597TIP3    H280283   3.451   5.309   6.303 -0.4509 -0.8351 -0.0754
19598TIP3   OH280284   6.738   6.373   4.158  0.1032  0.1648 -0.0949
19598TIP3    H180285   6.737   6.465   4.182  0.7276  0.3188 -0.6665
19598TIP3    H280286   6.830   6.347   4.163 -0.0048 -0.3016 -0.4237
19599TIP3   OH280287   2.550   0.365  12.491 -0.4063 -0.4703 -0.7279
19599TIP3    H180288   2.543   0.340  12.398  1.8030  1.5491 -1.4873
19599TIP3    H280289   2.608   0.441  12.491 -0.0916 -0.6550  2.3701
19600TIP3   OH280290   4.736   4.340   3.384 -0.3441  0.1043  0.3602
19600TIP3    H180291   4.728   4.251   3.418  1.3072 -0.3874 -0.4928
19600TIP3    H280292   4.650   4.359   3.346 -0.4901 -1.4074 -0.0896
19601TIP3   OH280293   4.472   3.297  15.085 -0.1276 -0.3944 -0.5295
19601TIP3    H180294   4.534   3.314  15.156 -0.8919  0.4072 -0.0300
19601TIP3    H280295   4.454   3.384  15.048 -0.2219 -0.7350 -1.2968
19602TIP3   OH280296   0.397   5.750  14.304  0.4761 -0.3625  0.1042
19602TIP3    H180297   0.488   5.751  14.276  0.6043 -0.9628  0.5026
19602TIP3    H280298   0.395   5.805  14.383  0.8502 -1.8960  1.1941
19603TIP3   OH280299   6.410   1.849  13.017  0.2297  0.3278  0.0427
19603TIP3    H180300   6.369   1.877  13.098  0.0264 -3.5550  1.4179
19603TIP3    H280301   6.338   1.817  12.962  0.5417  1.3810 -1.0009
19604TIP3   OH280302   3.420   2.355  15.543 -0.0215 -0.0450 -0.4511
19604TIP3    H180303   3.443   2.277  15.493  1.9191  0.4363 -0.3544
19604TIP3    H280304   3.360   2.404  15.485 -0.1028 -0.8913 -1.0914
19605TIP3   OH280305   1.361   5.265  16.907 -0.0026  0.3415  0.6501
19605TIP3    H180306   1.372   5.174  16.933 -0.2805 -0.4283 -1.8245
19605TIP3    H280307   1.270   5.286  16.931 -0.8100 -0.8995 -1.2151
19606TIP3   OH280308   0.923   2.209   1.023  0.0204 -0.1476  0.5874
19606TIP3    H180309   0.915   2.121   1.060  2.2116 -0.4521  0.3992
19606TIP3    H280310   0.917   2.196   0.928 -0.1024 -0.0379  0.5797
19607TIP3   OH280311   2.180   1.343  10.843  0.3826 -0.0047 -0.5269
19607TIP3    H180312   2.152   1.275  10.903  0.4534  0.1482 -0.3186
19607TIP3    H280313   2.180   1.301  10.757 -1.6799  0.3333 -0.7178
19608TIP3   OH280314   3.068   2.608  13.894  0.0780 -1.4979  0.2930
19608TIP3    H180315   3.056   2.684  13.837 -1.1004 -2.0502 -0.2133
19608TIP3    H280316   3.151   2.624  13.939  0.3785 -0.4389 -0.6273
19609TIP3   OH280317   0.456   3.958   3.885  0.2559 -0.4119 -0.3847
19609TIP3    H180318   0.451   3.874   3.930  3.4861 -0.4889 -0.0500
19609TIP3    H280319   0.464   3.935   3.792 -0.4006 -0.4139 -0.4442
19610TIP3   OH280320   0.136   3.203   4.754 -0.4714  0.3330 -0.0235
19610TIP3    H180321   0.052   3.246   4.740 -1.6450 -2.2649 -1.0575
19610TIP3    H280322   0.188   3.224   4.676 -0.3303  1.4757  0.3674
19611TIP3   OH280323   6.181   1.156  16.211  0.4273 -0.1735 -0.1895
19611TIP3    H180324   6.160   1.198  16.294 -0.9491 -1.4017  0.1111
19611TIP3    H280325   6.270   1.123  16.222  0.4134  0.0737  0.6398
19612TIP3   OH280326   1.411   3.645   4.321 -0.3122  0.4763 -0.4341
19612TIP3    H180327   1.482   3.691   4.366 -1.0077  1.5682 -0.4345
19612TIP3    H280328   1.331   3.689   4.350 -0.9649 -0.4282 -0.8099
19613TIP3   OH280329   1.259   3.563   0.469  0.1759 -0.0404  0.3252
19613TIP3    H180330   1.275   3.581   0.561 -0.8557 -1.0116  0.7013
19613TIP3    H280331   1.299   3.477   0.454  0.0137 -0.0530 -0.0433
19614TIP3   OH280332   3.822   2.385  11.477 -0.2096  0.4075  0.2119
19614TIP3    H180333   3.812   2.472  11.438  0.1897 -0.4130 -1.7758
19614TIP3    H280334   3.736   2.366  11.516 -0.1794  1.8352  0.9973
19615TIP3   OH280335   2.023   4.149  14.991  0.5558  0.7015 -0.0049
19615TIP3    H180336   2.083   4.075  14.982 -0.9525 -0.7512  1.4864
19615TIP3    H280337   2.010   4.158  15.085  0.0028  2.2813 -0.2253
19616TIP3   OH280338   6.591   6.652   3.712  0.0349  1.0758  0.8851
19616TIP3    H180339   6.654   6.663   3.641 -0.9121 -0.7476 -0.2873
19616TIP3    H280340   6.553   6.566   3.697 -2.4691  1.9733  1.7539
19617TIP3   OH280341   2.912   5.344   0.675  0.3112  0.3321 -0.1191
19617TIP3    H180342   2.966   5.299   0.740 -2.0052 -0.3504  1.3941
19617TIP3    H280343   2.942   5.435   0.677  3.1084 -0.5275 -1.1538
19618TIP3   OH280344   1.089   3.133   3.955  0.4874  0.1780 -1.0124
19618TIP3    H180345   1.130   3.174   4.030 -1.8381 -0.9102  0.9281
19618TIP3    H280346   1.160   3.088   3.909  1.5335 -1.3938  2.0414
19619TIP3   OH280347   6.278   0.735  13.898  0.0987  0.0465  0.6774
19619TIP3    H180348   6.216   0.684  13.950 -1.7273  1.3400 -0.1678
19619TIP3    H280349   6.245   0.728  13.808  1.3076  0.5670  0.1867
19620TIP3   OH280350   5.803   1.541   0.472 -0.0828 -0.1152  0.6703
19620TIP3    H180351   5.869   1.584   0.526  0.3981 -0.4398  0.3445
19620TIP3    H280352   5.850   1.514   0.393 -0.5760 -0.4483  0.4849
19621TIP3   OH280353   1.842   1.404   4.471  1.2357 -1.1594  1.0156
19621TIP3    H180354   1.843   1.310   4.454  0.0984 -0.6602 -2.1638
19621TIP3    H280355   1.749   1.426   4.480  1.2217  0.1920 -1.8450
19622TIP3   OH280356   1.262   6.101  12.483 -0.1391 -0.0196  0.5291
19622TIP3    H180357   1.265   6.044  12.406  0.0815  0.8359 -0.1090
19622TIP3    H280358   1.194   6.165  12.462 -0.2102  0.0951  1.1242
19623TIP3   OH280359   3.417   4.164  10.991 -0.1889  0.5165 -0.6568
19623TIP3    H180360   3.367   4.245  10.976 -2.7096 -1.3865 -3.1338
19623TIP3    H280361   3.417   4.120  10.906  2.8187 -1.2158  0.1753
19624TIP3   OH280362   4.683   6.023   4.617  0.7384  0.0742  0.1542
19624TIP3    H180363   4.687   6.050   4.709 -0.0516  0.5889  0.0422
19624TIP3    H280364   4.665   6.104   4.569 -2.3147 -0.7119 -0.1315
19625TIP3   OH280365   3.101   5.975  15.883 -0.6361  0.5854 -0.4393
19625TIP3    H180366   3.111   6.037  15.956 -2.8034  2.9690 -2.0934
19625TIP3    H280367   3.111   5.889  15.924 -0.8902  1.8900  2.5348
19626TIP3   OH280368   5.747   1.937   4.127 -0.1914  0.0987  0.1856
19626TIP3    H180369   5.768   1.936   4.220 -1.2690  0.1998  0.4270
19626TIP3    H280370   5.799   1.865   4.090  0.2762  0.0962  0.8494
19627TIP3   OH280371   1.583   1.764  10.856 -1.5050  0.2720 -0.3055
19627TIP3    H180372   1.527   1.692  10.885  0.0491 -1.2869 -1.0258
19627TIP3    H280373   1.552   1.785  10.768 -1.3086 -0.2484 -0.5051
19628TIP3   OH280374   0.173   3.730   2.873  0.0880 -0.2224 -0.0579
19628TIP3    H180375   0.189   3.794   2.803 -0.5815 -0.8114 -0.7605
19628TIP3    H280376   0.250   3.673   2.872 -0.4106 -0.8914 -1.0486
19629TIP3   OH280377   0.859   3.434   2.609  0.4758 -0.0236  0.5763
19629TIP3    H180378   0.810   3.498   2.557  1.6255  0.8181  0.5140
19629TIP3    H280379   0.804   3.355   2.607  0.2420  0.1547 -1.4648
19630TIP3   OH280380   2.672   6.173   3.517 -0.1582 -0.3024  0.0300
19630TIP3    H180381   2.679   6.182   3.612  0.9857 -0.3850 -0.0362
19630TIP3    H280382   2.701   6.083   3.500  0.0827 -0.1351 -0.4421
19631TIP3   OH280383   4.715   0.179   2.042  0.6393 -0.3060  0.3088
19631TIP3    H180384   4.667   0.259   2.062  1.0353  0.5646 -2.0587
19631TIP3    H280385   4.795   0.209   1.999  1.3127 -1.9280  0.3786
19632TIP3   OH280386   0.680   2.215  14.892  0.9089 -0.4904 -0.6008
19632TIP3    H180387   0.674   2.131  14.847 -1.9899 -0.2882 -0.7179
19632TIP3    H280388   0.725   2.272  14.830  1.1808 -1.4553 -1.3085
19633TIP3   OH280389   1.734   2.554   3.246  0.2280  0.2199  0.7733
19633TIP3    H180390   1.687   2.517   3.321 -2.7774  2.0522 -0.1255
19633TIP3    H280391   1.791   2.621   3.284  0.3024 -0.2970  1.6049
19634TIP3   OH280392   0.081   5.908  14.752  0.0983 -0.2529  0.7429
19634TIP3    H180393   0.040   5.829  14.785 -2.6606  0.5694 -0.5788
19634TIP3    H280394   0.022   5.940  14.684  2.5311  1.4487 -0.6892
19635TIP3   OH280395   3.391   1.832  16.016  0.6512 -0.0486 -0.6377
19635TIP3    H180396   3.420   1.801  15.930  0.7710 -0.6099 -0.3926
19635TIP3    H280397   3.384   1.927  16.005 -0.3091 -0.2042 -1.5686
19636TIP3   OH280398   1.799   5.830   5.377  0.4703 -0.1321 -0.0381
19636TIP3    H180399   1.725   5.868   5.425  0.7653 -1.3554  1.4354
19636TIP3    H280400   1.781   5.851   5.285 -1.8772 -0.6580  0.2520
19637TIP3   OH280401   0.987   2.036   5.301 -0.4719 -0.0922 -0.2954
19637TIP3    H180402   0.923   2.106   5.282 -2.0340 -1.7560 -1.2892
19637TIP3    H280403   0.970   2.012   5.392 -1.2610 -0.5116 -0.5498
19638TIP3   OH280404   3.808   2.834  12.324  0.7003 -0.1501  0.4140
19638TIP3    H180405   3.807   2.744  12.291 -1.1685 -0.1445  0.4268
19638TIP3    H280406   3.826   2.824  12.418 -0.9867 -0.6249  0.7040
19639TIP3   OH280407   3.304   3.822   1.042 -0.6389  0.3458  0.7400
19639TIP3    H180408   3.375   3.885   1.032  0.0495 -0.5453  0.0102
19639TIP3    H280409   3.311   3.792   1.132 -0.2630  0.4661  0.7511
19640TIP3   OH280410   4.603   6.744  15.627 -0.1716 -0.8935 -0.3106
19640TIP3    H180411   4.656   6.675  15.589  0.9900 -0.3258  0.2415
19640TIP3    H280412   4.657   6.779  15.699 -1.5610 -0.7397  0.6743
19641TIP3   OH280413   4.031   5.926  16.868  0.1454 -0.0094 -0.8852
19641TIP3    H180414   4.050   5.931  16.962 -0.7919  2.0302 -0.7586
19641TIP3    H280415   3.959   5.864  16.861 -0.1756  0.2814 -0.1786
19642TIP3   OH280416   0.819   0.247   0.127  0.8929 -0.2329  0.3672
19642TIP3    H180417   0.762   0.269   0.201 -1.2463 -0.8416 -1.0378
19642TIP3    H280418   0.808   0.153   0.115  2.2865 -0.3673  0.1416
19643TIP3   OH280419   3.824   5.341   6.297 -0.1685 -0.5838 -0.4478
19643TIP3    H180420   3.769   5.294   6.234 -0.9476 -1.2449  0.7023
19643TIP3    H280421   3.792   5.312   6.382 -0.0337  1.3257  0.2638
19644TIP3   OH280422   6.020   0.617   2.759 -0.9819  0.0074  0.0059
19644TIP3    H180423   6.047   0.706   2.781 -3.1152  0.7628 -0.2573
19644TIP3    H280424   6.027   0.568   2.841 -1.1468  0.7854  0.4938
19645TIP3   OH280425   4.250   5.235  14.313 -0.0511  0.1778 -0.5360
19645TIP3    H180426   4.287   5.230  14.401  1.1397  0.5877 -1.0055
19645TIP3    H280427   4.326   5.240  14.255 -0.8337  0.4403 -1.5565
19646TIP3   OH280428   0.495   0.734  13.386 -0.7174 -0.0970 -0.0333
19646TIP3    H180429   0.564   0.703  13.444 -0.6587  1.2906  0.6696
19646TIP3    H280430   0.496   0.830  13.396  0.4298  0.3525 -3.5883
19647TIP3   OH280431   6.607   0.624  15.416  0.1839 -0.1996 -0.6007
19647TIP3    H180432   6.515   0.601  15.401  0.4403 -0.6265 -1.5911
19647TIP3    H280433   6.612   0.718  15.396 -0.8019  0.7151  3.1440
19648TIP3   OH280434   0.527   0.867   1.548 -0.5484 -0.5115  0.2469
19648TIP3    H180435   0.555   0.940   1.492 -2.5144 -0.3759 -0.6206
19648TIP3    H280436   0.592   0.799   1.533  0.3929  0.4751 -0.2079
19649TIP3   OH280437   1.146   4.659  14.944  0.2704 -0.2538  0.1202
19649TIP3    H180438   1.221   4.606  14.970  0.3284 -0.9679 -1.4822
19649TIP3    H280439   1.148   4.660  14.849 -1.6513 -0.1395  0.0541
19650TIP3   OH280440   4.700   4.139   0.151 -0.0062  0.2148 -0.9015
19650TIP3    H180441   4.620   4.190   0.148 -0.4135 -0.2654  0.9076
19650TIP3    H280442   4.674   4.055   0.190  1.4141  0.1825  0.0408
19651TIP3   OH280443   1.378   3.080   3.241 -0.2797  0.1855 -0.9273
19651TIP3    H180444   1.474   3.088   3.241 -0.3951  2.0691 -2.7516
19651TIP3    H280445   1.348   3.156   3.192 -2.7111 -0.6581 -0.8042
19652TIP3   OH280446   0.124   4.723   3.313 -0.1471 -0.1048  0.6037
19652TIP3    H180447   0.102   4.815   3.302  0.8874  0.0490 -0.3657
19652TIP3    H280448   0.193   4.722   3.379  0.6434 -0.0599 -0.2065
19653TIP3   OH280449   1.475   2.349  11.776 -0.7299 -0.2887  0.4224
19653TIP3    H180450   1.502   2.441  11.768  0.7833 -0.6802  0.8043
19653TIP3    H280451   1.523   2.304  11.707 -1.6684 -0.7597  0.0718
19654TIP3   OH280452   5.342   2.134   5.082 -0.3877 -0.4392  0.0194
19654TIP3    H180453   5.366   2.221   5.114 -0.1518 -0.5734  0.2097
19654TIP3    H280454   5.399   2.120   5.007 -0.2503 -0.5325  0.1407
19655TIP3   OH280455   4.341   6.647  12.043 -0.3236  0.2140  0.7158
19655TIP3    H180456   4.334   6.587  12.118  0.7364 -1.0905 -0.2069
19655TIP3    H280457   4.258   6.695  12.043 -1.9759 -2.5107  0.4190
19656TIP3   OH280458   0.273   2.780  13.132 -0.4673 -0.2158 -0.0682
19656TIP3    H180459   0.315   2.865  13.143 -1.1320  0.0740  0.2332
19656TIP3    H280460   0.316   2.724  13.197  0.1865 -0.1931 -0.4792
19657TIP3   OH280461   4.252   0.297  12.367 -0.4776  0.2909 -0.3774
19657TIP3    H180462   4.188   0.291  12.437 -0.9790  0.3037 -0.8322
19657TIP3    H280463   4.256   0.390  12.345  2.8071  0.9247  2.5029
19658TIP3   OH280464   0.011   4.518   0.584 -0.2885 -0.1726 -0.0026
19658TIP3    H180465  -0.003   4.579   0.657 -0.9806 -0.6173  0.2486
19658TIP3    H280466   0.099   4.483   0.598 -0.0588  0.4309  0.0967
19659TIP3   OH280467   0.160   6.444   0.643  0.1332 -0.3359 -0.0131
19659TIP3    H180468   0.174   6.502   0.718 -1.0483 -0.6998  0.5047
19659TIP3    H280469   0.077   6.473   0.606  0.3021 -0.7017 -0.6751
19660TIP3   OH280470   5.544   3.754   1.708  0.2776  0.0201  0.4897
19660TIP3    H180471   5.629   3.753   1.752 -0.3432 -0.0806  1.6851
19660TIP3    H280472   5.531   3.846   1.683 -0.2464  0.4437  2.2495
19661TIP3   OH280473   6.055   5.216   1.517  0.3229  0.1184  0.7194
19661TIP3    H180474   6.010   5.290   1.557 -0.2315  0.2031 -0.0511
19661TIP3    H280475   6.006   5.139   1.545 -0.4890  0.2323 -0.3469
19662TIP3   OH280476   6.373   3.333  12.975 -0.0846  0.4348 -0.6407
19662TIP3    H180477   6.413   3.419  12.965 -0.3403  0.5330 -0.8071
19662TIP3    H280478   6.356   3.325  13.069  1.5677 -0.1561 -0.3603
19663TIP3   OH280479   2.622   5.486  14.817 -0.4503 -0.3440  0.4763
19663TIP3    H180480   2.588   5.444  14.896  0.8404  0.8779  1.7095
19663TIP3    H280481   2.637   5.577  14.842 -2.3977  0.6936 -1.9340
19664TIP3   OH280482   3.301   5.926  12.570  0.5178  0.5742  0.1924
19664TIP3    H180483   3.328   5.875  12.493  1.5979 -0.5509  1.2867
19664TIP3    H280484   3.319   6.017  12.546  1.7785  0.1524 -0.5323
19665TIP3   OH280485   1.128   2.500  15.806  0.1507  0.0323  0.4516
19665TIP3    H180486   1.090   2.570  15.752 -0.3019 -0.5544 -0.0146
19665TIP3    H280487   1.119   2.531  15.896  2.0073  1.5495  0.1331
19666TIP3   OH280488   1.739   2.081   5.337 -0.2463  0.1387  0.0596
19666TIP3    H180489   1.796   2.102   5.412  1.0524 -0.9900 -0.5761
19666TIP3    H280490   1.781   2.123   5.262 -0.6793 -0.0429 -0.2880
19667TIP3   OH280491   6.517   2.461  16.025  0.1548 -0.2052  0.7000
19667TIP3    H180492   6.611   2.464  16.043  0.8711 -2.0248 -2.4756
19667TIP3    H280493   6.484   2.393  16.084  1.1472 -0.8345  0.5471
19668TIP3   OH280494   4.085   2.789  11.200  0.1315  0.5928  0.4478
19668TIP3    H180495   4.143   2.796  11.124 -1.8803  0.1216 -1.1643
19668TIP3    H280496   4.064   2.879  11.223 -0.4392  0.7054 -0.4936
19669TIP3   OH280497   5.756   2.703   3.078  0.1735 -0.2095  0.2329
19669TIP3    H180498   5.696   2.744   3.140  0.4969 -0.5623  0.7795
19669TIP3    H280499   5.802   2.636   3.129  1.3111  0.3163 -0.0839
19670TIP3   OH280500   3.182   3.096  11.222  0.5884  0.0994 -0.2262
19670TIP3    H180501   3.172   3.176  11.274  1.0362 -1.1915  1.8994
19670TIP3    H280502   3.172   3.125  11.131  0.6609  2.5456  0.5139
19671TIP3   OH280503   3.847   6.754   3.128  0.1933  0.4391 -0.6220
19671TIP3    H180504   3.906   6.816   3.085  0.3955 -0.6275 -1.9033
19671TIP3    H280505   3.850   6.676   3.074 -0.4169 -0.5461  0.7283
19672TIP3   OH280506   5.476   0.144  13.137  0.3808 -0.1146 -0.3930
19672TIP3    H180507   5.449   0.190  13.057  0.5396  0.3180 -0.1997
19672TIP3    H280508   5.415   0.176  13.204 -0.6305 -1.4908 -0.6154
19673TIP3   OH280509   1.862   0.509   4.599 -0.0978  0.8644  0.3557
19673TIP3    H180510   1.913   0.509   4.518  1.1303 -0.7616  1.0858
19673TIP3    H280511   1.863   0.601   4.627  0.3675  1.2676 -0.9162
19674TIP3   OH280512   6.720   1.416   5.547  0.6417  0.2557  0.2953
19674TIP3    H180513   6.695   1.338   5.497 -2.4919  0.4591  1.4459
19674TIP3    H280514   6.709   1.391   5.638 -0.1197  1.9505  0.6855
19675TIP3   OH280515   3.093   3.098   1.085  0.3661  0.3577  0.1734
19675TIP3    H180516   3.141   3.023   1.050 -1.6004 -1.5541  1.4390
19675TIP3    H280517   3.130   3.111   1.172 -1.0261 -0.8100  0.9601
19676TIP3   OH280518   6.356   2.219  16.138  1.2525 -0.7731  0.0708
19676TIP3    H180519   6.374   2.131  16.105  1.8415 -1.6000  2.4443
19676TIP3    H280520   6.357   2.209  16.234  0.1957  1.5898  0.3757
19677TIP3   OH280521   5.072   0.981  13.204  0.1564 -0.5207 -0.1505
19677TIP3    H180522   5.092   0.897  13.163  1.2400 -0.6174  0.5683
19677TIP3    H280523   5.151   1.033  13.195  0.7920 -0.8851  2.6434
19678TIP3   OH280524   2.925   4.565  10.545  0.1040 -0.0299 -0.3397
19678TIP3    H180525   2.910   4.593  10.454  1.4954  2.5484  0.1588
19678TIP3    H280526   2.902   4.472  10.546 -1.0829  0.1811 -3.0453
19679TIP3   OH280527   1.814   4.929   1.723 -0.0302  0.2744  0.2422
19679TIP3    H180528   1.804   4.860   1.658  0.4361  1.3753 -1.0154
19679TIP3    H280529   1.732   4.928   1.771 -1.2925  0.9638 -1.8507
19680TIP3   OH280530   0.694   0.917   5.777  0.6445  0.1756 -0.0535
19680TIP3    H180531   0.689   0.846   5.841  2.1738  1.1245  1.1875
19680TIP3    H280532   0.644   0.989   5.818 -0.4913 -0.0257 -1.0777
19681TIP3   OH280533   4.041   4.629   2.177  0.3727  0.0767  0.1454
19681TIP3    H180534   4.056   4.724   2.182 -0.9355  0.3923 -1.5226
19681TIP3    H280535   4.092   4.601   2.101  0.2057 -0.4348  0.2226
19682TIP3   OH280536   0.434   2.904  11.456 -0.3247 -0.1063  0.4650
19682TIP3    H180537   0.371   2.962  11.412 -1.3272 -1.1018  0.5934
19682TIP3    H280538   0.381   2.847  11.511  0.6600 -1.1750  0.3269
19683TIP3   OH280539   5.773   3.399   1.985 -0.3726 -0.3837 -0.3633
19683TIP3    H180540   5.781   3.460   2.059 -1.5553  0.3441 -0.8222
19683TIP3    H280541   5.862   3.365   1.972  0.5565  2.1226 -0.8599
19684TIP3   OH280542   5.731   2.581  11.615  0.3929 -0.4339 -0.0090
19684TIP3    H180543   5.781   2.662  11.605 -1.4421  1.0129  1.8628
19684TIP3    H280544   5.767   2.540  11.694 -1.7920  1.0338  1.8330
19685TIP3   OH280545   0.652   4.130  13.257  0.5093 -0.0568 -0.7518
19685TIP3    H180546   0.578   4.178  13.219  0.1893  0.5651  0.6563
19685TIP3    H280547   0.722   4.141  13.193 -0.1414  0.6656 -1.3491
19686TIP3   OH280548   5.439   1.159   4.668  0.1732 -0.5885 -0.9052
19686TIP3    H180549   5.429   1.108   4.748  0.7777 -0.2294 -0.5922
19686TIP3    H280550   5.355   1.204   4.658  0.3150 -0.1089 -0.0889
19687TIP3   OH280551   5.871   6.743  16.399 -0.4357  0.3845 -0.4206
19687TIP3    H180552   5.937   6.679  16.373 -1.2423 -2.0053  3.0127
19687TIP3    H280553   5.898   6.824  16.356  3.9417 -0.8249 -0.2291
19688TIP3   OH280554   3.652   3.942  11.562 -0.1107 -0.1019 -0.4801
19688TIP3    H180555   3.584   3.891  11.518 -0.9542 -0.3910  1.1203
19688TIP3    H280556   3.715   3.876  11.592  0.0329  0.0243 -0.5050
19689TIP3   OH280557   4.502   6.578  14.145  0.1951 -0.2180  0.7077
19689TIP3    H180558   4.424   6.610  14.192 -0.2664  1.0959 -0.8820
19689TIP3    H280559   4.572   6.637  14.174 -0.2340  1.0375 -0.7039
19690TIP3   OH280560   0.307   0.461   2.559  0.1554 -0.5504 -0.1098
19690TIP3    H180561   0.290   0.475   2.466 -1.0744 -1.1593  0.0160
19690TIP3    H280562   0.349   0.543   2.588  4.0162 -1.7147 -1.9927
19691TIP3   OH280563   3.593   2.086   3.773 -0.4801  0.1788  0.2017
19691TIP3    H180564   3.535   2.090   3.697  0.1396  0.9992 -0.2386
19691TIP3    H280565   3.627   2.175   3.781 -0.6924  0.1394  1.5661
19692TIP3   OH280566   5.614   2.805   5.767  0.1007  0.1843  0.9819
19692TIP3    H180567   5.672   2.881   5.768 -1.7019  1.6288 -0.8219
19692TIP3    H280568   5.526   2.843   5.764 -0.8126 -1.9774 -0.3590
19693TIP3   OH280569   6.319   1.562   5.145  0.1208  0.2753  0.1817
19693TIP3    H180570   6.244   1.573   5.204 -0.5819  1.0076 -0.8518
19693TIP3    H280571   6.316   1.469   5.121  0.7678 -0.1824  1.7572
19694TIP3   OH280572   1.852   2.817   6.302 -0.1593  0.2274 -0.2878
19694TIP3    H180573   1.819   2.897   6.345  1.6613  0.7449  0.1865
19694TIP3    H280574   1.795   2.748   6.334 -0.3113  0.9838  1.1354
19695TIP3   OH280575   1.321   1.271   5.628  0.3875  0.4432  0.3873
19695TIP3    H180576   1.250   1.251   5.689  0.2153 -0.4247 -0.0838
19695TIP3    H280577   1.307   1.362   5.603 -0.8798  0.1270 -0.1076
19696TIP3   OH280578   5.214   5.996  12.910 -0.0090  0.1681  0.2359
19696TIP3    H180579   5.130   5.954  12.928 -1.3018  2.3575 -0.3758
19696TIP3    H280580   5.227   5.985  12.816  0.8586 -0.9439  0.4726
19697TIP3   OH280581   6.230   2.447   2.470 -0.3373  0.6135 -0.0284
19697TIP3    H180582   6.167   2.414   2.406  0.9159 -1.1166 -0.4132
19697TIP3    H280583   6.270   2.523   2.427 -0.6799  0.4632 -0.6261
19698TIP3   OH280584   6.514   3.434   0.494 -0.2195  0.0652  0.4899
19698TIP3    H180585   6.450   3.442   0.423  0.9072  0.2479 -0.5222
19698TIP3    H280586   6.599   3.434   0.450  0.5570  1.5953  1.9583
19699TIP3   OH280587   1.599   2.732  16.279 -0.0364  0.3773 -0.0762
19699TIP3    H180588   1.568   2.704  16.365 -0.7053  0.6656 -0.2172
19699TIP3    H280589   1.552   2.813  16.262 -0.6645 -0.2001 -1.1493
19700TIP3   OH280590   1.287   0.473  16.472 -0.1755  0.2099 -0.3180
19700TIP3    H180591   1.212   0.414  16.481 -0.2181  0.5524  1.7972
19700TIP3    H280592   1.344   0.431  16.407 -0.9006 -1.4057  0.0892
19701TIP3   OH280593   2.236   3.752   5.011  0.3857 -0.3643 -0.0460
19701TIP3    H180594   2.229   3.724   4.919  0.6938  1.0231 -0.5073
19701TIP3    H280595   2.329   3.765   5.025  0.2752  0.1015  0.2541
19702TIP3   OH280596   6.140   3.807  12.902 -0.1140 -0.0041 -0.4567
19702TIP3    H180597   6.127   3.714  12.920 -0.5198  0.5201  2.2917
19702TIP3    H280598   6.063   3.834  12.852 -0.4662 -0.9573 -0.4297
19703TIP3   OH280599   6.147   5.398   6.055  0.0516  0.2487  0.0079
19703TIP3    H180600   6.134   5.477   6.003  0.9381 -0.0412 -0.6823
19703TIP3    H280601   6.071   5.393   6.112 -0.2772  1.3004 -0.3359
19704TIP3   OH280602   2.148   3.401  17.237 -0.2024 -0.2781 -0.3377
19704TIP3    H180603   2.137   3.311  17.267 -0.9293 -0.3107 -0.6905
19704TIP3    H280604   2.156   3.453  17.317 -1.8841 -0.3887 -0.0908
19705TIP3   OH280605   5.911   3.880  12.246  0.0017 -0.5285 -0.0231
19705TIP3    H180606   5.959   3.798  12.259 -0.6769 -1.4675 -3.0185
19705TIP3    H280607   5.960   3.926  12.177 -0.5649  0.8613  0.4723
19706TIP3   OH280608   1.412   4.971   5.369 -0.7083  0.4306 -0.2973
19706TIP3    H180609   1.361   5.012   5.438  4.2298  3.0077  2.0562
19706TIP3    H280610   1.386   5.018   5.289 -2.7760  0.8486  0.5870
19707TIP3   OH280611   4.726   6.430   3.751  0.1240  0.2911  0.0099
19707TIP3    H180612   4.686   6.427   3.664 -1.8764 -0.8449  0.9293
19707TIP3    H280613   4.664   6.479   3.805  1.7994  1.8174  0.6116
19708TIP3   OH280614   1.082   5.750  16.479 -0.1165  0.4552 -0.0490
19708TIP3    H180615   1.174   5.766  16.459  0.0653  0.5145  0.8330
19708TIP3    H280616   1.069   5.657  16.460 -0.1677  0.6955 -1.2689
19709TIP3   OH280617   6.101   4.422  14.806  0.4117  0.1162  0.3053
19709TIP3    H180618   6.124   4.363  14.735 -1.1440  0.6271 -0.6499
19709TIP3    H280619   6.072   4.365  14.877  1.4087 -0.3684  0.3207
19710TIP3   OH280620   6.533   3.840   1.829 -0.6168  0.2599  0.2654
19710TIP3    H180621   6.511   3.921   1.783 -0.4776  0.3416  0.3450
19710TIP3    H280622   6.449   3.809   1.864 -0.5129  0.8692  1.0460
19711TIP3   OH280623   2.586   3.369  14.053  0.0040 -0.0211 -0.6114
19711TIP3    H180624   2.647   3.302  14.083 -1.0140 -0.0899  1.3583
19711TIP3    H280625   2.499   3.330  14.064 -0.5349  1.1215 -0.7200
19712TIP3   OH280626   1.288   5.788   0.361 -0.7713 -0.0252 -0.7818
19712TIP3    H180627   1.368   5.822   0.401 -1.7637  0.5461  0.8009
19712TIP3    H280628   1.246   5.738   0.431 -0.9229 -1.8415 -2.1346
19713TIP3   OH280629   4.816   6.424  16.813  0.0227  0.6204  0.5976
19713TIP3    H180630   4.885   6.376  16.861 -0.0237  1.1765  1.2256
19713TIP3    H280631   4.860   6.502  16.781  0.3416 -0.3001 -1.2686
19714TIP3   OH280632   4.430   1.434  13.152  0.6379  0.1881  0.6465
19714TIP3    H180633   4.375   1.463  13.079  1.1326 -0.0506  0.1771
19714TIP3    H280634   4.452   1.515  13.198  1.3797  0.4809 -0.2110
19715TIP3   OH280635   5.302   2.366  17.045  0.0903 -0.1135  0.0803
19715TIP3    H180636   5.352   2.394  16.968 -0.1339 -2.3910 -0.9495
19715TIP3    H280637   5.337   2.418  17.117 -0.1663  2.5538 -1.6592
19716TIP3   OH280638   6.038   3.377   4.745  0.0859 -0.3282  0.0900
19716TIP3    H180639   5.950   3.367   4.708 -0.1644 -1.3019  0.9172
19716TIP3    H280640   6.039   3.464   4.785  0.2713  0.6328 -1.9503
19717TIP3   OH280641   4.635   1.062   1.347  0.0389  0.0829 -0.3222
19717TIP3    H180642   4.722   1.101   1.354  0.9103 -1.8186 -0.2176
19717TIP3    H280643   4.615   1.033   1.436 -0.6076  0.2869 -0.3980
19718TIP3   OH280644   6.016   5.074   6.054 -0.2000  0.5140 -0.1703
19718TIP3    H180645   6.030   5.122   6.135 -1.0376  1.1169 -0.3721
19718TIP3    H280646   5.946   5.011   6.074 -1.8647  2.0561 -0.9547
19719TIP3   OH280647   1.586   6.085   2.294  0.1358  0.1238  0.5203
19719TIP3    H180648   1.541   6.137   2.360  0.7040  0.6403  0.5098
19719TIP3    H280649   1.518   6.030   2.256 -0.4276  0.6980  0.6861
19720TIP3   OH280650   6.663   6.536   4.907  0.2217 -0.0968 -0.3375
19720TIP3    H180651   6.650   6.631   4.914  1.0087 -0.0288  0.2996
19720TIP3    H280652   6.691   6.509   4.995 -0.3195 -0.9731 -0.4300
19721TIP3   OH280653   4.503   1.221  11.504 -0.7814 -0.2141  0.3232
19721TIP3    H180654   4.505   1.129  11.476  1.5599  0.2539 -1.1806
19721TIP3    H280655   4.564   1.265  11.445 -2.4425  2.4660  0.5413
19722TIP3   OH280656   5.439   4.197  16.806  0.1612 -0.0534  0.2278
19722TIP3    H180657   5.478   4.255  16.871  2.0507 -0.4579 -0.5033
19722TIP3    H280658   5.346   4.220  16.806  0.3932  0.9798  1.9796
19723TIP3   OH280659   1.542   4.625   3.505  0.1769  0.0960 -0.2827
19723TIP3    H180660   1.544   4.672   3.588 -3.0341  0.7177 -0.4909
19723TIP3    H280661   1.576   4.537   3.525  1.7800  0.9971  1.0900
19724TIP3   OH280662   5.374   2.931   5.680 -0.3272  0.2109  0.1743
19724TIP3    H180663   5.390   3.018   5.643 -0.7756  1.3286  2.5112
19724TIP3    H280664   5.278   2.922   5.680 -0.2546 -0.7245 -0.9897
19725TIP3   OH280665   3.671   2.775  14.431  0.2179  0.3845 -0.7046
19725TIP3    H180666   3.623   2.847  14.390  2.5663  2.1336 -0.4200
19725TIP3    H280667   3.694   2.718  14.357 -0.8344  0.3712 -1.0408
19726TIP3   OH280668   2.209   6.029   5.527  0.3462 -0.3149  0.2373
19726TIP3    H180669   2.267   5.958   5.498  1.0656  0.7312 -0.9302
19726TIP3    H280670   2.233   6.043   5.619  0.3711 -1.4047  0.4078
19727TIP3   OH280671   1.598   1.158   0.905  0.0807 -0.7516 -0.0750
19727TIP3    H180672   1.688   1.189   0.898 -0.1365  0.3056  1.5095
19727TIP3    H280673   1.569   1.189   0.990 -1.6003 -1.5876 -0.3272
19728TIP3   OH280674   6.156   4.545  15.808  0.3921 -0.5555 -0.1406
19728TIP3    H180675   6.176   4.638  15.800  1.4259 -0.8656 -1.3423
19728TIP3    H280676   6.150   4.530  15.902 -1.4272  1.0509  0.0171
19729TIP3   OH280677   2.610   6.369  11.623 -0.3626  0.6260 -0.0789
19729TIP3    H180678   2.574   6.355  11.710  2.1308 -0.9804  0.7448
19729TIP3    H280679   2.696   6.408  11.639  0.3128 -0.1216 -1.8037
19730TIP3   OH280680   2.009   0.313   4.311 -0.0860  0.0742  0.4724
19730TIP3    H180681   2.063   0.286   4.385 -0.0589 -0.8394  0.1223
19730TIP3    H280682   2.016   0.409   4.310  1.1802 -0.0084  0.6810
19731TIP3   OH280683   3.641   2.183  12.733  0.8839  0.3125  0.1305
19731TIP3    H180684   3.604   2.139  12.810  1.2833  2.3235  1.5146
19731TIP3    H280685   3.712   2.125  12.704  0.0167 -1.0019  0.6001
19732TIP3   OH280686   3.732   3.036   0.330  0.2362  0.5250  0.2719
19732TIP3    H180687   3.794   3.087   0.279 -0.1361 -0.2567 -0.9809
19732TIP3    H280688   3.703   2.966   0.271  1.3050 -1.5900  2.1739
19733TIP3   OH280689   2.050   5.207  13.642 -0.0710 -0.1798  0.0703
19733TIP3    H180690   2.144   5.189  13.646 -0.0571 -0.1669 -0.1638
19733TIP3    H280691   2.036   5.276  13.706  0.1042 -0.0834  0.0079
19734TIP3   OH280692   1.991   6.139   3.196  0.2832 -0.0803 -0.1801
19734TIP3    H180693   2.041   6.173   3.270  1.8599 -0.2912 -1.1404
19734TIP3    H280694   1.955   6.056   3.228 -0.8821  0.8910  1.0754
19735TIP3   OH280695   4.724   0.816  15.231  0.0003  1.5375  0.2545
19735TIP3    H180696   4.678   0.834  15.314 -1.0730  1.6192 -0.3535
19735TIP3    H280697   4.726   0.900  15.186  2.0471  1.8703  0.8969
19736TIP3   OH280698   3.486   5.103   2.199 -0.2093 -0.4429 -0.1684
19736TIP3    H180699   3.525   5.090   2.285 -0.6112  2.2744  0.4829
19736TIP3    H280700   3.548   5.159   2.152 -0.9769 -0.1648 -0.8716
19737TIP3   OH280701   1.920   3.268  11.547 -0.3100 -0.7091  0.5680
19737TIP3    H180702   1.975   3.192  11.528 -1.4155 -1.6997  1.2410
19737TIP3    H280703   1.832   3.232  11.553 -1.1590  0.9913 -1.3716
19738TIP3   OH280704   3.998   2.574   5.694  0.2571  0.1406  0.1294
19738TIP3    H180705   4.034   2.582   5.782 -1.2561 -0.1262  0.7986
19738TIP3    H280706   3.962   2.661   5.676 -0.5389 -0.1452  0.2952
19739TIP3   OH280707   5.750   1.882   0.636  0.3963  0.1604  0.0650
19739TIP3    H180708   5.707   1.952   0.685  0.0636  0.5168 -0.7271
19739TIP3    H280709   5.709   1.802   0.667 -0.2678  0.4387 -0.0961
19740TIP3   OH280710   2.003   5.036  11.601 -0.4751  0.0774 -0.2806
19740TIP3    H180711   1.984   4.946  11.576  0.3615 -0.1444 -0.1437
19740TIP3    H280712   2.003   5.035  11.697  0.9166 -0.0938 -0.2674
19741TIP3   OH280713   2.639   1.083   1.690  0.2134 -0.2009 -0.7361
19741TIP3    H180714   2.692   1.162   1.681 -0.4891  0.2501 -1.0054
19741TIP3    H280715   2.598   1.091   1.776 -0.8333  0.3428 -1.2798
19742TIP3   OH280716   4.278   4.624  11.719  0.0585  0.3876  0.4170
19742TIP3    H180717   4.331   4.568  11.775  1.7337  1.9055  0.4093
19742TIP3    H280718   4.216   4.565  11.676 -0.1858 -1.0101  2.6412
19743TIP3   OH280719   4.869   6.499  16.043 -0.5496  0.4063 -0.1390
19743TIP3    H180720   4.815   6.576  16.025  0.3562  1.5190  1.7132
19743TIP3    H280721   4.810   6.424  16.032 -1.5614  1.3932 -1.4992
19744TIP3   OH280722   6.228   5.993   0.843  0.2944  0.1321 -0.0400
19744TIP3    H180723   6.293   6.061   0.825  0.6486 -0.1066  0.3237
19744TIP3    H280724   6.271   5.911   0.818  0.3903 -0.0946  0.8597
19745TIP3   OH280725   4.044   6.495   1.478 -0.1880  0.1897 -0.5651
19745TIP3    H180726   3.997   6.442   1.414 -0.9465 -0.8025  0.7880
19745TIP3    H280727   4.086   6.431   1.535  2.3522  1.0637 -1.4048
19746TIP3   OH280728   4.236   1.539   4.100  0.0322  0.4907 -0.1239
19746TIP3    H180729   4.330   1.540   4.117 -0.1841  1.6972  1.0383
19746TIP3    H280730   4.226   1.475   4.029  1.6642  0.0078  0.0509
19747TIP3   OH280731   0.751   0.829   6.228  0.1733  0.4109  0.3362
19747TIP3    H180732   0.798   0.745   6.222 -0.4665 -0.0724  1.9136
19747TIP3    H280733   0.820   0.894   6.236  0.7088  0.1227 -1.6382
19748TIP3   OH280734   4.785   5.144   5.847  0.5054  0.2141  0.3996
19748TIP3    H180735   4.753   5.232   5.870  0.3239  0.1684  0.3165
19748TIP3    H280736   4.716   5.085   5.875  0.9710  0.0331  1.1776
19749TIP3   OH280737   0.281   1.361   2.294 -0.8064  0.0434 -0.2140
19749TIP3    H180738   0.201   1.331   2.250 -1.2816  2.5308 -1.1479
19749TIP3    H280739   0.261   1.450   2.323  1.0077  0.0213  1.2139
19750TIP3   OH280740   2.818   5.830  12.120  0.2819  0.4109 -0.2636
19750TIP3    H180741   2.845   5.738  12.111  1.0001  0.6297 -0.3763
19750TIP3    H280742   2.785   5.836  12.210  3.9246  0.9738  1.0879
19751TIP3   OH280743   6.459   0.537  13.767  0.1312  0.3954 -0.7357
19751TIP3    H180744   6.454   0.631  13.782 -1.4929  0.0067  1.4178
19751TIP3    H280745   6.544   0.511  13.802  1.2142  1.2603 -2.6676
19752TIP3   OH280746   6.302   1.662   1.785 -0.7168 -0.1274 -0.0814
19752TIP3    H180747   6.251   1.586   1.814 -0.1544 -0.8269 -0.9110
19752TIP3    H280748   6.252   1.738   1.817 -1.1335 -0.8398  1.0039
19753TIP3   OH280749   3.235   5.937  13.717 -0.5196  0.1143 -0.6219
19753TIP3    H180750   3.169   5.868  13.727  0.5620 -0.5908  2.4199
19753TIP3    H280751   3.319   5.890  13.719  0.2518  1.4656  1.8320
19754TIP3   OH280752   5.863   0.277  11.106  0.3358 -0.1970  0.3024
19754TIP3    H180753   5.803   0.346  11.135 -0.7292 -0.2297 -1.7750
19754TIP3    H280754   5.950   0.318  11.109 -0.1583  0.8746  0.2040
19755TIP3   OH280755   4.524   2.223  14.042 -0.3110 -0.1168 -0.3401
19755TIP3    H180756   4.516   2.319  14.049 -0.8240 -0.2234  0.6124
19755TIP3    H280757   4.587   2.210  13.971 -0.7249  0.9221 -0.9187
19756TIP3   OH280758   5.188   1.534   0.573  0.1212 -0.8801  0.3584
19756TIP3    H180759   5.104   1.515   0.614  0.1334 -3.4487 -0.7073
19756TIP3    H280760   5.171   1.612   0.519 -1.5653 -1.3549  0.1716
19757TIP3   OH280761   2.574   5.851  11.940 -0.2874 -0.6291 -0.6476
19757TIP3    H180762   2.560   5.801  11.860 -0.2086 -1.4552 -0.1474
19757TIP3    H280763   2.634   5.798  11.992 -1.9843 -1.1113  0.8638
19758TIP3   OH280764   1.088   1.549  11.365 -0.2469  0.2606  0.0410
19758TIP3    H180765   1.043   1.482  11.416 -1.5524  0.9930 -0.1214
19758TIP3    H280766   1.099   1.622  11.425  0.6174  0.1321  0.0411
19759TIP3   OH280767   6.393   5.007   3.880 -0.3045  0.1210 -0.0516
19759TIP3    H180768   6.351   4.932   3.837 -0.4601 -0.7328  1.5456
19759TIP3    H280769   6.384   5.079   3.817 -0.8036 -1.0141 -1.3037
19760TIP3   OH280770   6.680   1.315  13.963 -0.0535  0.5390  0.1808
19760TIP3    H180771   6.726   1.288  14.043 -1.4902 -0.7967  0.5895
19760TIP3    H280772   6.678   1.410  13.967 -0.0778  0.4916  1.7349
19761TIP3   OH280773   6.624   4.690  14.764 -0.3135 -0.1899 -0.2255
19761TIP3    H180774   6.583   4.671  14.680  0.8746 -1.1793 -0.5817
19761TIP3    H280775   6.672   4.610  14.787  0.7060  0.6409  0.6135
19762TIP3   OH280776   5.331   3.282   3.125 -0.6123 -0.5323  0.1440
19762TIP3    H180777   5.347   3.335   3.047 -0.2326 -1.7308 -0.6209
19762TIP3    H280778   5.272   3.335   3.179 -1.0142  0.2475 -1.0335
19763TIP3   OH280779   4.412   5.352  16.609  0.3174  0.0772  0.5004
19763TIP3    H180780   4.426   5.258  16.621  0.9852  0.1471  0.2685
19763TIP3    H280781   4.472   5.376  16.539  1.6006  1.0491  1.9081
19764TIP3   OH280782   4.173   3.319   6.441 -0.3670  0.0709  0.2959
19764TIP3    H180783   4.217   3.310   6.357  0.9517 -0.6250  1.0428
19764TIP3    H280784   4.209   3.248   6.494 -1.7181  0.0567  1.2168
19765TIP3   OH280785   2.329   0.453  17.252  0.7899  0.4764 -0.0331
19765TIP3    H180786   2.378   0.384  17.208 -1.3569 -0.7888 -0.5102
19765TIP3    H280787   2.346   0.439  17.345 -1.0022 -1.8207 -0.0030
19766TIP3   OH280788   3.816   0.697   2.579 -0.2176  0.0307  0.1709
19766TIP3    H180789   3.910   0.679   2.577 -0.0167  1.1176 -0.0599
19766TIP3    H280790   3.778   0.633   2.519  0.5941  0.9303 -1.3171
19767TIP3   OH280791   1.618   0.661   1.145 -0.1972  0.1978  0.1442
19767TIP3    H180792   1.580   0.744   1.116 -0.4235  0.5368  1.3729
19767TIP3    H280793   1.710   0.680   1.160 -0.0607 -0.0007 -0.4135
19768TIP3   OH280794   6.215   2.017   0.374  0.1009  0.0489  0.1685
19768TIP3    H180795   6.282   1.972   0.425 -0.7503  0.8254  1.9896
19768TIP3    H280796   6.155   2.053   0.439 -0.0546  2.5514 -1.3118
19769TIP3   OH280797   5.726   5.409   3.488 -0.3371  0.1343 -0.3837
19769TIP3    H180798   5.754   5.317   3.480  2.1734  0.8764 -0.6660
19769TIP3    H280799   5.742   5.446   3.401 -2.1213  0.6630 -0.5030
19770TIP3   OH280800   0.104   2.564  16.405 -0.2463  0.4519 -0.3922
19770TIP3    H180801   0.016   2.533  16.386  0.1524  0.0263 -1.5927
19770TIP3    H280802   0.146   2.571  16.319  0.8234  0.8483  0.1526
19771TIP3   OH280803   6.278   3.484   1.904  0.0164 -0.1239 -0.5074
19771TIP3    H180804   6.305   3.574   1.888  1.1253 -0.3648 -0.0311
19771TIP3    H280805   6.359   3.438   1.928 -0.4205 -1.3973 -1.4057
19772TIP3   OH280806   2.908   1.443  12.557 -0.0700  0.2310  0.2429
19772TIP3    H180807   2.907   1.537  12.579  0.6481  0.0906  0.9216
19772TIP3    H280808   2.823   1.427  12.517  0.6071  1.6291 -1.8155
19773TIP3   OH280809   4.140   4.551   4.695  0.1406 -0.6018 -0.4095
19773TIP3    H180810   4.166   4.639   4.723  3.4592 -1.7018  0.2302
19773TIP3    H280811   4.157   4.550   4.601  0.0044 -0.5115 -0.4342
19774TIP3   OH280812   2.838   4.634  16.423 -0.0278  0.0840  0.1729
19774TIP3    H180813   2.808   4.663  16.509  0.0889  0.3251  0.1325
19774TIP3    H280814   2.849   4.539  16.432 -3.3684 -0.4400 -0.5469
19775TIP3   OH280815   6.479   2.869   1.155  0.3250 -0.1054  0.9287
19775TIP3    H180816   6.395   2.875   1.201 -0.1853 -2.4976  0.3602
19775TIP3    H280817   6.543   2.851   1.224 -0.0463 -1.0438  1.0322
19776TIP3   OH280818   1.790   3.893   3.161  0.3856  0.4918  0.6548
19776TIP3    H180819   1.884   3.908   3.160  0.1907  1.9276 -2.0152
19776TIP3    H280820   1.780   3.798   3.163  1.8564  0.3455  1.8298
19777TIP3   OH280821   3.938   6.580  14.344 -0.0445  0.0748  0.3342
19777TIP3    H180822   3.992   6.552  14.418  2.7041  0.6478 -1.3675
19777TIP3    H280823   3.983   6.546  14.267 -2.1171  0.6289 -1.1836
19778TIP3   OH280824   2.381   4.071  12.104  0.6884  0.5613 -0.3280
19778TIP3    H180825   2.428   3.992  12.078 -0.5588 -0.3472  0.1200
19778TIP3    H280826   2.295   4.062  12.064 -0.2891  0.5057  1.7535
19779TIP3   OH280827   2.989   1.292  17.032  0.1531 -0.1154  0.1080
19779TIP3    H180828   3.056   1.266  16.970  0.3478  0.4449  0.0779
19779TIP3    H280829   3.007   1.385  17.049 -0.5689  0.0210  0.1454
19780TIP3   OH280830   6.687   5.999  11.895  0.3205  0.5605 -0.0101
19780TIP3    H180831   6.691   6.082  11.847  1.0215  1.4114  1.5168
19780TIP3    H280832   6.773   5.960  11.882  0.4428  0.6964  0.3980
19781TIP3   OH280833   3.799   2.563  12.258  0.0302 -0.3325  0.4200
19781TIP3    H180834   3.704   2.577  12.256 -0.1614 -1.5537  0.9563
19781TIP3    H280835   3.818   2.519  12.175 -0.1327 -1.7133  1.1103
19782TIP3   OH280836   2.160   4.584   5.712 -0.3509  0.3032 -0.0886
19782TIP3    H180837   2.138   4.666   5.756  0.6147  0.6058 -0.1466
19782TIP3    H280838   2.252   4.596   5.685 -0.9070  0.1134 -2.1289
19783TIP3   OH280839   2.759   2.336   3.418  0.1345 -0.3716  0.1800
19783TIP3    H180840   2.849   2.331   3.387  0.1334 -0.0563  0.1267
19783TIP3    H280841   2.715   2.263   3.375 -0.3258  1.2063 -2.1032
19784TIP3   OH280842   4.126   1.570   5.757 -0.6365  0.3661 -0.0865
19784TIP3    H180843   4.205   1.518   5.741  0.4337  1.6982  0.7531
19784TIP3    H280844   4.094   1.593   5.670  0.3322  0.4626 -0.4208
19785TIP3   OH280845   5.282   1.424   0.322 -0.4089  0.3344 -0.0831
19785TIP3    H180846   5.342   1.497   0.335 -2.3639  1.9620  0.2327
19785TIP3    H280847   5.196   1.466   0.315 -1.4569 -1.8852 -0.8721
19786TIP3   OH280848   3.280   3.810   4.944  0.1348  0.9075  0.1214
19786TIP3    H180849   3.218   3.863   4.995 -0.8115  0.1443 -0.1999
19786TIP3    H280850   3.337   3.873   4.902 -0.8877  1.6755 -0.1460
19787TIP3   OH280851   0.591   1.755  12.894 -0.4111 -0.1395 -0.4988
19787TIP3    H180852   0.495   1.749  12.888 -0.5167  1.5297 -0.5587
19787TIP3    H280853   0.615   1.822  12.830  0.7730 -0.2580 -0.1923
19788TIP3   OH280854   6.052   6.658   0.260 -0.3506 -0.5239 -0.1618
19788TIP3    H180855   6.007   6.639   0.178 -1.4089 -1.4728  0.6185
19788TIP3    H280856   6.063   6.572   0.302  1.3561 -0.2119  0.1001
19789TIP3   OH280857   4.801   0.628   1.499 -0.9440 -0.1523 -0.1404
19789TIP3    H180858   4.846   0.684   1.563  0.6284  0.4511 -1.7233
19789TIP3    H280859   4.846   0.646   1.417 -2.8689 -0.9986 -1.4023
19790TIP3   OH280860   5.617   3.222   6.146  0.5234 -0.0446 -0.4175
19790TIP3    H180861   5.671   3.156   6.103 -0.0797 -0.8789  0.0696
19790TIP3    H280862   5.589   3.180   6.227  0.4022  0.9452  0.0570
19791TIP3   OH280863   2.984   4.516   1.297 -0.6689 -0.1105 -0.5223
19791TIP3    H180864   3.007   4.476   1.381  2.7406  0.7016 -0.9696
19791TIP3    H280865   2.923   4.586   1.319 -1.0147 -0.9155  1.1012
19792TIP3   OH280866   1.497   5.052  15.148 -0.2661 -0.3465 -0.3494
19792TIP3    H180867   1.446   5.079  15.224 -1.9126 -0.1609 -1.4960
19792TIP3    H280868   1.465   4.963  15.127 -0.7265  0.0823 -1.5505
19793TIP3   OH280869   5.705   2.766  12.625 -0.5988 -0.6509 -0.0592
19793TIP3    H180870   5.735   2.676  12.609 -0.9288 -0.6031 -0.9748
19793TIP3    H280871   5.776   2.806  12.676  1.1635 -0.3888 -2.6271
19794TIP3   OH280872   1.225   0.544  13.179 -0.1594 -0.2776 -0.2278
19794TIP3    H180873   1.167   0.557  13.254  0.7654 -0.1665  0.4761
19794TIP3    H280874   1.167   0.514  13.109 -1.0357 -0.3437  0.5137
19795TIP3   OH280875   3.412   3.114   4.356  0.1774 -0.0024 -0.4197
19795TIP3    H180876   3.476   3.177   4.389 -0.3903  0.0696  0.5564
19795TIP3    H280877   3.392   3.058   4.430  0.1677 -0.9203 -1.1038
19796TIP3   OH280878   5.793   0.433   5.750 -0.5274 -0.0894 -0.2361
19796TIP3    H180879   5.795   0.337   5.747 -2.0441 -0.1217 -0.6026
19796TIP3    H280880   5.738   0.453   5.826  0.8989  0.5076  0.6569
19797TIP3   OH280881   1.762   6.730  12.591  0.3960  0.7840 -0.4775
19797TIP3    H180882   1.791   6.649  12.548  0.3211  0.1287  0.6736
19797TIP3    H280883   1.670   6.713  12.613  0.8723  0.4751  1.3702
19798TIP3   OH280884   2.290   0.676   1.249 -0.3580 -0.5151 -0.2636
19798TIP3    H180885   2.213   0.619   1.244 -1.1858  0.2974  2.4103
19798TIP3    H280886   2.316   0.672   1.341  3.0740 -1.1167 -1.2000
19799TIP3   OH280887   4.054   3.884  13.924  0.1836 -0.3157  0.2764
19799TIP3    H180888   4.080   3.961  13.874 -0.0884  0.1231  0.8095
19799TIP3    H280889   4.072   3.810  13.865  0.5195  0.1445 -0.2018
19800TIP3   OH280890   0.380   4.002   5.031  0.0220 -0.0120  0.2915
19800TIP3    H180891   0.404   4.074   5.090 -2.2813  0.4737  0.6820
19800TIP3    H280892   0.422   4.023   4.948 -0.6998  1.8595  0.3799
19801TIP3   OH280893   2.356   1.127  12.264 -0.0443  0.7605  0.0843
19801TIP3    H180894   2.322   1.118  12.353  1.1365  2.2817  0.7091
19801TIP3    H280895   2.334   1.044  12.222  1.3648 -0.8962  2.4755
19802TIP3   OH280896   4.034   2.999  16.945 -0.4115 -0.5863 -0.4610
19802TIP3    H180897   3.985   3.081  16.950  1.5130  0.5193  0.5227
19802TIP3    H280898   4.018   2.957  17.030 -0.8159 -0.9074 -0.6926
19803TIP3   OH280899   2.932   0.981  12.046 -0.0246  0.2039  0.0175
19803TIP3    H180900   3.022   0.952  12.026 -0.1073 -0.8309  1.1028
19803TIP3    H280901   2.877   0.906  12.024 -0.7667  1.2387 -1.7510
19804TIP3   OH280902   5.462   3.489  15.153 -0.2105 -0.4975  0.1587
19804TIP3    H180903   5.496   3.572  15.119 -0.7651 -0.4736 -0.3456
19804TIP3    H280904   5.397   3.515  15.219  0.3628 -0.5389  0.7414
19805TIP3   OH280905   1.265   2.428   1.986 -0.1329 -0.0800 -0.6246
19805TIP3    H180906   1.181   2.445   2.029 -0.0833 -0.5821 -0.3204
19805TIP3    H280907   1.241   2.394   1.899 -0.2686 -1.2951 -0.1287
19806TIP3   OH280908   4.760   1.840  16.036  0.2164 -0.0392  0.3004
19806TIP3    H180909   4.827   1.906  16.016  0.0250  0.2639  0.6501
19806TIP3    H280910   4.722   1.869  16.119 -0.2931 -0.2549  0.1429
19807TIP3   OH280911   4.255   1.962   1.025  0.4100  0.3787 -0.1634
19807TIP3    H180912   4.248   2.054   1.050 -1.2708  0.4665 -0.9029
19807TIP3    H280913   4.260   1.914   1.109  0.8457  1.1021  0.2250
19808TIP3   OH280914   5.237   4.721  10.790 -0.5032  0.0586  0.4103
19808TIP3    H180915   5.288   4.708  10.870  0.8564  1.0582 -0.2808
19808TIP3    H280916   5.150   4.688  10.813  0.3304 -1.3753  1.7148
19809TIP3   OH280917   4.411   6.135  14.557 -0.0315 -0.7963 -0.3003
19809TIP3    H180918   4.470   6.059  14.560  0.2084 -0.5582  1.9257
19809TIP3    H280919   4.338   6.111  14.615 -0.0501  0.5873  0.2758
19810TIP3   OH280920   0.405   2.840  12.332  0.1744  0.2718 -0.0618
19810TIP3    H180921   0.369   2.752  12.320  2.5103 -0.4480 -2.4267
19810TIP3    H280922   0.493   2.826  12.365 -0.0390  1.8199  1.2401
19811TIP3   OH280923   5.503   1.726  16.217  0.3132 -0.3242  0.2140
19811TIP3    H180924   5.475   1.755  16.304  0.1601  0.7442 -0.1831
19811TIP3    H280925   5.598   1.730  16.220  0.3519 -1.4700  0.7238
19812TIP3   OH280926   3.495   1.982  13.471  0.1722 -0.2833 -0.1878
19812TIP3    H180927   3.540   2.019  13.547 -1.3274 -0.9741  1.0789
19812TIP3    H280928   3.447   1.907  13.507  0.4758 -1.4049 -2.0698
19813TIP3   OH280929   0.410   2.178   4.017  0.5666 -0.2515  0.1571
19813TIP3    H180930   0.372   2.265   4.003  0.9270  0.0645  1.1647
19813TIP3    H280931   0.340   2.127   4.058 -1.0263 -1.6295 -3.9062
19814TIP3   OH280932   3.978   5.189   1.005  0.5910  0.4562  0.4092
19814TIP3    H180933   4.060   5.196   1.053  1.2585  1.3967 -0.8296
19814TIP3    H280934   3.925   5.263   1.036  0.2133 -0.1423  1.1983
19815TIP3   OH280935   6.359   1.477   5.737  0.0879  0.2791 -0.0927
19815TIP3    H180936   6.427   1.493   5.803  0.3077 -0.7627 -0.0507
19815TIP3    H280937   6.322   1.392   5.762  0.9140 -0.6676 -1.9275
19816TIP3   OH280938   2.688   4.548  17.154 -0.0627 -0.0955  0.2406
19816TIP3    H180939   2.727   4.595  17.227  0.3756  1.3402 -0.8871
19816TIP3    H280940   2.757   4.491  17.121 -0.3997 -1.0813  1.2125
19817TIP3   OH280941   5.024   6.601   2.797  0.0936 -0.0189 -0.3369
19817TIP3    H180942   4.944   6.601   2.849  1.7158 -1.7152  2.3197
19817TIP3    H280943   5.027   6.513   2.758 -0.2588  0.6821 -1.9959
19818TIP3   OH280944   6.179   0.831   4.538 -0.1365  0.0583 -0.6706
19818TIP3    H180945   6.145   0.760   4.593 -0.3869  0.8854  0.2412
19818TIP3    H280946   6.215   0.786   4.461  0.1955 -1.1065  0.1527
19819TIP3   OH280947   4.121   5.427  16.273 -0.0019  0.1834 -0.8992
19819TIP3    H180948   4.123   5.438  16.368 -0.7011 -0.5777 -0.7993
19819TIP3    H280949   4.139   5.514  16.238  1.9822  0.1390 -0.0660
19820TIP3   OH280950   1.303   6.601  14.774  0.2630  0.2578  0.3762
19820TIP3    H180951   1.322   6.693  14.795 -0.4577  0.7591 -1.0675
19820TIP3    H280952   1.221   6.605  14.723 -0.6759 -1.3280  1.7199
19821TIP3   OH280953   1.604   0.643  17.013 -0.0651  0.3547  0.2717
19821TIP3    H180954   1.521   0.596  17.008  0.5622 -0.9231  1.5126
19821TIP3    H280955   1.579   0.735  17.024 -1.3160  0.0492  0.0293
19822TIP3   OH280956   2.571   4.755   4.418  0.4673  0.0994 -0.3169
19822TIP3    H180957   2.613   4.779   4.500 -0.8827  0.3448  0.3264
19822TIP3    H280958   2.627   4.688   4.380  0.0889 -1.4374  1.7677
19823TIP3   OH280959   0.044   4.287  11.377  0.1071 -0.2747  0.5866
19823TIP3    H180960   0.047   4.193  11.362  1.9418 -0.4380  1.8118
19823TIP3    H280961  -0.015   4.320  11.310 -0.1290 -2.2334 -0.1996
19824TIP3   OH280962   2.895   1.208  15.668  0.2425 -0.9242 -0.3561
19824TIP3    H180963   2.842   1.200  15.746 -1.3654 -2.8535 -1.5946
19824TIP3    H280964   2.964   1.143  15.679  0.7908 -0.2790  0.0444
19825TIP3   OH280965   5.241   3.255   0.656 -0.4031 -0.4317  0.3260
19825TIP3    H180966   5.190   3.337   0.658  1.9363  1.0870 -0.4322
19825TIP3    H280967   5.195   3.198   0.718 -0.2536  2.5837  3.3858
19826TIP3   OH280968   6.605   1.645  14.631 -0.0493  0.3309 -0.0479
19826TIP3    H180969   6.537   1.578  14.622  2.6761 -2.3312 -1.4701
19826TIP3    H280970   6.602   1.670  14.724 -1.3834 -1.4306  0.3986
19827TIP3   OH280971   1.186   4.392   6.085  1.0048  0.3574 -0.1467
19827TIP3    H180972   1.256   4.382   6.150  0.0624  0.3657  0.8766
19827TIP3    H280973   1.106   4.402   6.137 -0.3493 -3.6833 -1.2727
19828TIP3   OH280974   3.489   4.686  14.788 -0.1476 -0.5677  0.0446
19828TIP3    H180975   3.474   4.778  14.811 -2.2298 -0.6706 -0.7624
19828TIP3    H280976   3.548   4.654  14.856  1.8333  1.7464 -0.5070
19829TIP3   OH280977   2.053   4.379  16.599  0.1493  0.1085  0.4406
19829TIP3    H180978   2.140   4.401  16.633  0.5290  1.8645 -1.5756
19829TIP3    H280979   2.070   4.339  16.513 -0.9731 -0.6686  0.5723
19830TIP3   OH280980   5.839   0.405  13.007 -0.2934 -0.0458  0.1295
19830TIP3    H180981   5.872   0.380  12.921  2.1695  0.6890  0.8264
19830TIP3    H280982   5.871   0.338  13.066 -1.5644 -0.2773  0.5818
19831TIP3   OH280983   3.921   3.300  12.336 -0.2608  0.4918 -0.4068
19831TIP3    H180984   3.985   3.338  12.276 -0.4932  0.6192 -0.5691
19831TIP3    H280985   3.961   3.217  12.363 -0.4325  0.1540 -1.1950
19832TIP3   OH280986   4.213   4.297   0.275 -0.0583 -0.0049  0.4554
19832TIP3    H180987   4.216   4.299   0.371  0.6906 -1.0915  0.4642
19832TIP3    H280988   4.128   4.257   0.255  0.1149 -0.4918  0.6806
19833TIP3   OH280989   1.388   4.501   3.199  0.4180 -0.1382  0.6118
19833TIP3    H180990   1.438   4.439   3.252 -1.6160 -0.7625  1.8839
19833TIP3    H280991   1.398   4.585   3.245  0.7050 -0.1568  0.5835
19834TIP3   OH280992   1.366   1.178  13.904  0.1175 -0.5898 -0.6565
19834TIP3    H180993   1.330   1.255  13.949 -1.9004  0.0707 -3.2896
19834TIP3    H280994   1.453   1.207  13.874  0.7914 -0.4989  1.3494
19835TIP3   OH280995   3.736   2.137   5.748  0.0962 -0.1506  0.0665
19835TIP3    H180996   3.763   2.051   5.716  0.8628 -0.0644  0.4674
19835TIP3    H280997   3.816   2.176   5.784  0.1234  1.3906 -1.5628
19836TIP3   OH280998   1.661   4.881  15.384  0.0799 -0.3061  0.0037
19836TIP3    H180999   1.630   4.857  15.296 -1.5825 -3.1074  1.2847
19836TIP3    H281000   1.582   4.883  15.437  0.7462  3.8730  0.9805
19837TIP3   OH281001   2.156   2.969   5.085  0.0928 -0.3943  0.0156
19837TIP3    H181002   2.211   2.899   5.051 -0.2355  0.4257 -2.2904
19837TIP3    H281003   2.218   3.037   5.113  0.3968 -1.4287  1.9030
19838TIP3   OH281004   0.113   4.868   3.662  0.5227 -0.3066 -0.2739
19838TIP3    H181005   0.189   4.884   3.605 -0.6503  0.6678 -1.5898
19838TIP3    H281006   0.046   4.834   3.603 -0.7212  0.7183  0.5220
19839TIP3   OH281007   1.176   1.550  11.854  0.5324 -0.1160 -0.0249
19839TIP3    H181008   1.173   1.457  11.831  1.0351 -0.2874  0.6093
19839TIP3    H281009   1.226   1.591  11.784 -0.0283 -0.2636 -0.5126
19840TIP3   OH281010   0.637   2.779  14.011  0.3078  0.5998  0.2179
19840TIP3    H181011   0.594   2.735  13.938  0.6890  1.5444 -0.5845
19840TIP3    H281012   0.666   2.863  13.975 -1.3975  2.0162  2.0079
19841TIP3   OH281013   1.510   2.786   5.430  0.2195 -0.4055  0.1030
19841TIP3    H181014   1.472   2.698   5.429 -1.4002  0.2616 -0.8066
19841TIP3    H281015   1.534   2.803   5.338 -1.8312  1.0298 -0.2252
19842TIP3   OH281016   0.565   3.533   1.737 -0.5171  0.1611 -0.4497
19842TIP3    H181017   0.622   3.601   1.702 -0.0479 -0.6809 -1.3600
19842TIP3    H281018   0.547   3.476   1.663  1.4758 -2.3465  0.8962
19843TIP3   OH281019   4.048   3.188   4.111  0.0292 -0.1492 -0.0098
19843TIP3    H181020   3.954   3.206   4.106  0.0120 -0.6205 -2.1888
19843TIP3    H281021   4.055   3.093   4.115  0.4081 -0.1277 -0.1075
19844TIP3   OH281022   1.614   1.903   6.134  0.1843 -0.2419 -0.2971
19844TIP3    H181023   1.674   1.967   6.097  1.0152  0.4625  2.1936
19844TIP3    H281024   1.668   1.826   6.151 -0.1508 -0.4989 -0.3802
19845TIP3   OH281025   2.347   4.932   0.140 -0.2389 -0.1386 -0.8593
19845TIP3    H181026   2.422   4.937   0.199 -0.6413 -2.5302 -0.0485
19845TIP3    H281027   2.385   4.916   0.054  0.2565  0.9229 -0.8454
19846TIP3   OH281028   0.799   1.857  15.352 -0.3269 -0.0135 -0.5248
19846TIP3    H181029   0.782   1.762  15.354  0.8925 -0.2387 -0.8393
19846TIP3    H281030   0.894   1.864  15.356 -0.4506  1.2310  0.4356
19847TIP3   OH281031   6.340   5.567   1.098  0.6856  0.2052  0.6633
19847TIP3    H181032   6.343   5.471   1.095 -2.8777  0.0651 -1.5828
19847TIP3    H281033   6.382   5.595   1.017  1.3842  0.5155  1.1367
19848TIP3   OH281034   4.306   5.238  15.527 -0.3318 -0.6615  0.4879
19848TIP3    H181035   4.232   5.279  15.572  0.8446  1.2760  0.7526
19848TIP3    H281036   4.267   5.172  15.471 -2.3259  0.7202  0.1793
19849TIP3   OH281037   5.113   0.982   4.409 -0.1649 -0.1584  0.2647
19849TIP3    H181038   5.199   0.947   4.388 -0.2813 -0.2872 -0.0073
19849TIP3    H281039   5.118   1.075   4.385 -0.4582 -0.4205 -0.8188
19850TIP3   OH281040   6.191   1.777  12.858 -0.1026 -0.5242  0.0196
19850TIP3    H181041   6.103   1.756  12.889 -0.2498 -0.2599 -0.2277
19850TIP3    H281042   6.185   1.866  12.824  0.1191 -0.7363 -0.5710
19851TIP3   OH281043   1.097   1.962   0.199  0.2633 -0.5873 -0.2469
19851TIP3    H181044   1.039   1.901   0.153 -0.8942  0.7404 -0.5577
19851TIP3    H281045   1.185   1.931   0.179 -0.2732 -1.1027 -1.8593
19852TIP3   OH281046   1.034   3.751  15.746 -0.0983 -0.3586 -0.3114
19852TIP3    H181047   0.952   3.790  15.776 -0.2230 -1.3815  0.7011
19852TIP3    H281048   1.100   3.783  15.807 -0.2953 -2.1638  0.8814
19853TIP3   OH281049   1.759   1.955  12.185 -0.0957 -0.7447 -0.2819
19853TIP3    H181050   1.674   1.953  12.229  0.1581 -0.4251  0.2259
19853TIP3    H281051   1.756   1.882  12.124 -0.3221 -1.3923  0.4979
19854TIP3   OH281052   0.763   2.683   2.555 -0.9203 -0.6639 -0.1675
19854TIP3    H181053   0.827   2.743   2.593  0.1341 -0.6213 -1.9500
19854TIP3    H281054   0.768   2.605   2.610  0.0191 -0.3322  0.2327
19855TIP3   OH281055   0.847   3.425   1.667 -0.3443  0.4109  0.2478
19855TIP3    H181056   0.754   3.450   1.672 -0.4998 -0.1928  0.4617
19855TIP3    H281057   0.876   3.458   1.582  0.0337  3.2031  1.3990
19856TIP3   OH281058   2.938   3.319  14.609 -0.0214 -0.2538  0.3716
19856TIP3    H181059   2.936   3.406  14.569 -0.5009  0.2037  1.3912
19856TIP3    H281060   2.981   3.332  14.693  1.2764 -1.2823 -0.1066
19857TIP3   OH281061   0.345   4.796  14.139 -0.7302 -0.8811  0.2538
19857TIP3    H181062   0.347   4.875  14.194 -2.2160 -1.6513  1.4513
19857TIP3    H281063   0.390   4.822  14.059 -0.2236  0.8537  1.0707
19858TIP3   OH281064   0.289   5.659  13.510 -0.2196 -0.8944  0.2209
19858TIP3    H181065   0.346   5.724  13.552 -0.2626 -0.5419 -0.2476
19858TIP3    H281066   0.300   5.676  13.416  0.7968 -2.4571  0.0518
19859TIP3   OH281067   3.279   4.895   4.261 -0.4318  0.0516  0.5676
19859TIP3    H181068   3.236   4.935   4.186  0.2043 -0.1010  0.1177
19859TIP3    H281069   3.244   4.806   4.265 -0.0402 -0.1255  0.1033
19860TIP3   OH281070   2.062   6.596  13.004 -0.6362  0.1045 -0.2054
19860TIP3    H181071   1.966   6.602  13.013 -0.8188  0.3688 -1.9962
19860TIP3    H281072   2.096   6.665  13.060 -1.4974 -0.1149  0.5932
19861TIP3   OH281073   3.745   5.558  13.485  0.0431  0.0416  0.3406
19861TIP3    H181074   3.772   5.557  13.577 -2.5550  0.5674  1.1579
19861TIP3    H281075   3.693   5.478  13.475  0.3902 -0.0591 -0.7169
19862TIP3   OH281076   6.673   5.019  16.191  0.1517  0.3787 -0.8420
19862TIP3    H181077   6.579   5.027  16.173 -0.5013  1.2878  2.5023
19862TIP3    H281078   6.684   4.929  16.220  0.1260  0.4885 -0.4801
19863TIP3   OH281079   1.574   6.175   0.520 -0.1921  0.3136 -0.0699
19863TIP3    H181080   1.539   6.226   0.592  1.5912  1.5973 -0.0717
19863TIP3    H281081   1.622   6.104   0.562  0.1722  0.6044  0.0158
19864TIP3   OH281082   1.670   0.597   3.690  0.0976  0.0449  0.2144
19864TIP3    H181083   1.717   0.539   3.631 -0.3508  1.5397 -1.6415
19864TIP3    H281084   1.737   0.636   3.746  0.7164 -0.0551 -0.4686
19865TIP3   OH281085   2.737   1.954   4.626 -0.0617  0.3052 -0.2137
19865TIP3    H181086   2.812   1.965   4.567  0.7503 -0.5512  0.6532
19865TIP3    H281087   2.663   1.988   4.576  0.9459  1.4293 -0.9734
19866TIP3   OH281088   2.518   1.998   0.358  0.1199  1.0095  0.0830
19866TIP3    H181089   2.512   1.906   0.333  2.0277  0.7973  0.3311
19866TIP3    H281090   2.612   2.016   0.361 -0.1548  2.2865  2.5034
19867TIP3   OH281091   1.588   3.379   4.227  0.1167 -0.1356 -0.2458
19867TIP3    H181092   1.525   3.450   4.219 -1.7922 -1.8803 -1.2485
19867TIP3    H281093   1.642   3.386   4.148 -0.3162 -0.0128 -0.5348
19868TIP3   OH281094   0.426   0.625   0.209 -0.2874 -0.0012 -0.3476
19868TIP3    H181095   0.503   0.589   0.164 -0.8665 -3.0016  0.9378
19868TIP3    H281096   0.364   0.644   0.138  0.8503  0.4554 -1.2408
19869TIP3   OH281097   4.883   0.068   4.849  0.1576 -0.3443  0.1266
19869TIP3    H181098   4.912   0.097   4.762  0.8944  1.7119  1.0155
19869TIP3    H281099   4.958   0.022   4.886  0.2114 -0.2814  0.0957
19870TIP3   OH281100   2.744   2.070  12.202 -0.7415  0.1833 -0.4343
19870TIP3    H181101   2.667   2.125  12.217 -0.9836  0.0847 -1.2988
19870TIP3    H281102   2.738   2.002  12.269 -1.6390 -0.0768 -0.7654
19871TIP3   OH281103   5.877   1.900  14.246  0.1890 -0.1421 -0.1009
19871TIP3    H181104   5.910   1.891  14.335  0.5515 -0.3124 -0.2501
19871TIP3    H281105   5.876   1.810  14.212 -0.5563 -0.1537 -0.0500
19872TIP3   OH281106   4.620   6.101  15.022  0.6426  0.3966  0.0652
19872TIP3    H181107   4.592   6.174  14.967  0.2488  0.1676 -0.0382
19872TIP3    H281108   4.702   6.072  14.982 -0.1706 -0.4420 -1.0376
19873TIP3   OH281109   3.987   3.081   3.648  0.3363 -0.4414  0.4250
19873TIP3    H181110   3.932   3.038   3.713 -1.6524  0.7006 -0.4713
19873TIP3    H281111   3.951   3.054   3.564  1.7964 -0.5066 -0.1864
19874TIP3   OH281112   2.987   5.243  15.052 -0.0499  0.5060 -0.1659
19874TIP3    H181113   3.066   5.265  15.003 -0.1813  1.7810  0.1880
19874TIP3    H281114   2.998   5.286  15.137 -1.5197  1.4757 -0.4476
19875TIP3   OH281115   1.783   3.612  12.348  1.0113  0.1870  0.1004
19875TIP3    H181116   1.872   3.576  12.348  1.1040  0.4103  0.3255
19875TIP3    H281117   1.773   3.650  12.260  0.7816 -0.7031 -0.2575
19876TIP3   OH281118   2.852   6.606  16.173  0.5852  0.0454 -0.3751
19876TIP3    H181119   2.793   6.617  16.248  1.6054 -0.1156  0.4602
19876TIP3    H281120   2.798   6.563  16.107 -0.5793  0.9775 -0.0561
19877TIP3   OH281121   1.562   1.907   5.763 -0.6346 -0.4754 -0.8353
19877TIP3    H181122   1.586   1.985   5.713 -0.2450 -0.4301 -0.5781
19877TIP3    H281123   1.545   1.939   5.851  1.8817 -1.0127 -0.1272
19878TIP3   OH281124   4.528   2.949  12.647 -0.7805 -0.0824  0.0001
19878TIP3    H181125   4.475   2.957  12.567 -0.2361 -0.7059 -0.4339
19878TIP3    H281126   4.464   2.951  12.718 -1.2915  0.2768 -0.4628
19879TIP3   OH281127   4.469   2.980  11.513  0.3319  0.2263 -0.4523
19879TIP3    H181128   4.491   3.003  11.423 -0.4812 -0.3842 -0.8155
19879TIP3    H281129   4.379   3.012  11.524  0.5706  0.6664  0.2763
19880TIP3   OH281130   6.739   2.686   0.907  0.9211  0.4660  0.6707
19880TIP3    H181131   6.750   2.775   0.873 -1.4702  1.0316  1.2273
19880TIP3    H281132   6.749   2.629   0.831  1.1183  1.3202  0.0523
19881TIP3   OH281133   4.480   1.079   5.916 -0.5368 -0.2889  0.0919
19881TIP3    H181134   4.548   1.147   5.923 -0.1264 -0.5952 -0.8305
19881TIP3    H281135   4.505   1.014   5.982  0.0501 -0.3769 -0.2091
19882TIP3   OH281136   5.414   5.074   2.121  0.0222 -0.0056  0.7455
19882TIP3    H181137   5.363   5.144   2.082  2.0117  0.4722 -1.0825
19882TIP3    H281138   5.490   5.118   2.160  1.9581 -1.1856 -1.5241
19883TIP3   OH281139   3.997   3.656   6.067 -0.1757 -0.1846 -0.2076
19883TIP3    H181140   3.920   3.697   6.106 -1.6203 -0.8006 -2.3511
19883TIP3    H281141   3.986   3.562   6.085  0.4407 -0.2091  0.0738
19884TIP3   OH281142   3.189   6.564   1.834  0.6535 -0.1723 -0.2654
19884TIP3    H181143   3.228   6.538   1.918  1.9462  0.4112 -0.6890
19884TIP3    H281144   3.150   6.650   1.852 -1.5604 -1.2976  0.4922
19885TIP3   OH281145   4.332   1.541   2.816  0.5015 -0.4221  0.1231
19885TIP3    H181146   4.315   1.475   2.749 -1.2062 -2.1873  2.2051
19885TIP3    H281147   4.417   1.516   2.853  0.1103 -1.1439  0.5407
19886TIP3   OH281148   6.104   3.938   3.205  0.7594  0.0152  0.2393
19886TIP3    H181149   6.184   3.940   3.152  1.2495 -0.8509  0.9352
19886TIP3    H281150   6.053   3.866   3.169  0.8127 -0.1764  0.5457
19887TIP3   OH281151   6.381   2.194  15.680 -0.0556  0.3883 -0.4246
19887TIP3    H181152   6.408   2.103  15.684 -0.7227  0.2209  0.3813
19887TIP3    H281153   6.447   2.237  15.624  1.2554 -0.2154  0.6439
19888TIP3   OH281154   3.193   4.523   6.654 -0.7247  0.7003  0.2039
19888TIP3    H181155   3.204   4.521   6.749 -0.0254  0.8999  0.1280
19888TIP3    H281156   3.104   4.556   6.642 -1.0935 -0.0542  0.8009
19889TIP3   OH281157   3.449   4.835   1.229 -0.2717 -0.5455 -0.0781
19889TIP3    H181158   3.448   4.929   1.246 -2.1412 -0.7010  0.8467
19889TIP3    H281159   3.378   4.800   1.283  0.0172 -2.4060 -0.8556
19890TIP3   OH281160   4.503   0.582  11.355 -0.0902  0.4447 -0.2940
19890TIP3    H181161   4.539   0.580  11.444 -1.2804 -1.4944  0.1824
19890TIP3    H281162   4.540   0.661  11.316  2.9303 -0.2950  0.8852
19891TIP3   OH281163   6.507   0.109  11.940 -0.0051 -0.2173  0.3409
19891TIP3    H181164   6.516   0.180  12.003  0.7463  1.2033 -1.3255
19891TIP3    H281165   6.428   0.131  11.890  0.1321 -0.6458 -0.0688
19892TIP3   OH281166   6.022   3.216  13.170  0.1843  0.2720  0.0808
19892TIP3    H181167   5.959   3.200  13.099  0.8843 -1.1361 -0.2368
19892TIP3    H281168   5.968   3.226  13.248 -0.3544 -3.7466  0.3281
19893TIP3   OH281169   0.269   6.212  12.648 -0.6907  0.2119 -0.6138
19893TIP3    H181170   0.201   6.158  12.686 -0.5991 -0.0395 -0.8009
19893TIP3    H281171   0.271   6.291  12.702 -1.0065  0.1430 -0.5020
19894TIP3   OH281172   4.225   2.304  15.569 -0.9153  0.0115  0.5014
19894TIP3    H181173   4.312   2.342  15.556 -0.9125  0.5280  1.9644
19894TIP3    H281174   4.213   2.247  15.493 -0.4440  2.0394 -1.1643
19895TIP3   OH281175   0.940   0.461  15.172  0.4722 -0.2499  0.3243
19895TIP3    H181176   0.927   0.477  15.078  0.7697 -0.0182  0.3216
19895TIP3    H281177   0.859   0.420  15.201  0.2747 -0.0777  0.0194
19896TIP3   OH281178   1.057   5.233  12.393  0.6177  0.3419  0.8756
19896TIP3    H181179   1.151   5.254  12.384  0.3980  0.5053 -1.2311
19896TIP3    H281180   1.030   5.208  12.305 -1.1033 -0.7060  1.6906
19897TIP3   OH281181   2.217   5.193  16.861 -0.9329 -0.0518 -0.1615
19897TIP3    H181182   2.163   5.242  16.800 -1.1947 -1.8962 -1.4464
19897TIP3    H281183   2.239   5.112  16.814 -1.3182 -1.6026  2.2576
19898TIP3   OH281184   1.640   5.548  13.989 -0.2432  0.2859 -0.2318
19898TIP3    H181185   1.574   5.614  13.972 -0.1887  0.4896  0.3368
19898TIP3    H281186   1.598   5.488  14.052 -0.7781 -0.9701 -1.7477
19899TIP3   OH281187   0.160   0.544   2.907 -0.3823 -0.2744 -0.1717
19899TIP3    H181188   0.075   0.532   2.948 -0.0594  2.2213  1.3203
19899TIP3    H281189   0.222   0.545   2.980  0.6856 -0.0922 -1.0662
19900TIP3   OH281190   5.609   3.089   1.564  0.2573  0.3207  0.0634
19900TIP3    H181191   5.580   3.051   1.480 -0.7815 -0.2603  0.6789
19900TIP3    H281192   5.542   3.152   1.586  0.3316  0.1874  0.6625
19901TIP3   OH281193   4.197   0.912  15.238 -0.5625 -0.2310  0.2333
19901TIP3    H181194   4.184   0.946  15.149 -0.7019  0.3529  0.4736
19901TIP3    H281195   4.218   0.820  15.225  0.8259  0.1640 -0.4912
19902TIP3   OH281196   1.746   1.569   0.192  0.5730  0.2848 -0.6933
19902TIP3    H181197   1.752   1.492   0.135 -2.0924  1.0843 -2.1295
19902TIP3    H281198   1.765   1.643   0.134 -0.5620  0.9794 -0.2000
19903TIP3   OH281199   2.307   2.350  13.675 -0.3824  0.2095 -0.0318
19903TIP3    H181200   2.283   2.389  13.591  0.2469  0.5329 -0.0712
19903TIP3    H281201   2.376   2.288  13.654 -1.8444 -1.4450 -0.0530
19904TIP3   OH281202   2.498   1.350  16.482  0.2098 -0.0639 -0.3003
19904TIP3    H181203   2.417   1.304  16.463 -1.1897  1.0191  2.6915
19904TIP3    H281204   2.472   1.441  16.494  1.6131  0.0746  2.0067
19905TIP3   OH281205   5.717   1.806   4.795 -0.0852 -0.0865 -0.4225
19905TIP3    H181206   5.656   1.856   4.741 -0.1502  1.6219  1.2291
19905TIP3    H281207   5.789   1.867   4.814  1.1310 -1.4281 -0.5759
19906TIP3   OH281208   3.884   2.144   4.665  0.2352  0.3678  0.1787
19906TIP3    H181209   3.903   2.135   4.758 -0.4939  1.4282  0.4345
19906TIP3    H281210   3.789   2.133   4.658  0.3521 -0.2307 -0.5013
19907TIP3   OH281211   5.390   0.624  15.846 -0.4391 -0.3489 -0.4286
19907TIP3    H181212   5.429   0.538  15.829 -0.2974  0.0431 -2.1907
19907TIP3    H281213   5.339   0.643  15.767  0.2992  1.6045 -0.4560
19908TIP3   OH281214   2.526   1.309  11.371  0.2395  0.1806 -0.4537
19908TIP3    H181215   2.468   1.235  11.353  0.6947 -0.1232 -0.7068
19908TIP3    H281216   2.578   1.281  11.446  2.1393 -0.7896 -2.0646
19909TIP3   OH281217   3.165   5.062  17.082 -0.0005  0.0092  0.3287
19909TIP3    H181218   3.195   5.152  17.080  0.4954 -0.1524  0.4468
19909TIP3    H281219   3.243   5.010  17.060 -0.3623 -0.3665 -0.0832
19910TIP3   OH281220   5.179   0.833   1.812 -0.4324 -0.8392  0.1866
19910TIP3    H181221   5.261   0.844   1.765 -0.4751 -1.1279  0.0415
19910TIP3    H281222   5.189   0.886   1.891 -1.8939  3.0014 -2.0311
19911TIP3   OH281223   1.292   3.639  12.154 -0.0489  0.5458 -0.2181
19911TIP3    H181224   1.322   3.697  12.084  0.3476 -0.1199 -0.6002
19911TIP3    H281225   1.355   3.566  12.154  0.0854  0.6456  0.9686
19912TIP3   OH281226   3.480   1.959   4.006 -0.3129  0.5343  0.2082
19912TIP3    H181227   3.503   2.020   3.935 -0.6844  1.3060  0.7376
19912TIP3    H281228   3.540   1.886   3.996  1.6488  2.0073  0.8919
19913TIP3   OH281229   6.753   1.842   5.947  0.0033  0.2233  0.1654
19913TIP3    H181230   6.791   1.920   5.907 -0.4382  0.7702  0.8040
19913TIP3    H281231   6.662   1.866   5.965  0.1633 -0.0547  1.3776
19914TIP3   OH281232   1.294   0.204   0.232  0.3680 -0.0284  0.8631
19914TIP3    H181233   1.349   0.136   0.270  0.9918 -0.0428 -0.0771
19914TIP3    H281234   1.303   0.278   0.293  0.9248 -0.2436  1.0463
19915TIP3   OH281235   2.830   4.531  15.359 -0.0256 -0.1267  0.4074
19915TIP3    H181236   2.765   4.483  15.411  1.2190 -1.9297  0.3508
19915TIP3    H281237   2.787   4.546  15.275 -1.3279  1.0503  1.2484
19916TIP3   OH281238   2.416   4.622  10.535 -0.3166  0.7442  0.8461
19916TIP3    H181239   2.476   4.647  10.464 -2.2991  1.5079 -0.5933
19916TIP3    H281240   2.337   4.592  10.490 -1.8015  1.7614  2.7391
19917TIP3   OH281241   0.807   1.451  16.023  0.3858 -0.0236 -0.1296
19917TIP3    H181242   0.736   1.388  16.041  0.3119  0.2847  0.7048
19917TIP3    H281243   0.879   1.397  15.991 -0.3545 -0.2977 -1.3593
19918TIP3   OH281244   3.553   3.039   2.203 -0.1256  0.3266  0.1151
19918TIP3    H181245   3.633   2.989   2.222 -0.3064 -0.2428 -0.5807
19918TIP3    H281246   3.538   3.025   2.109  0.7820  3.1150 -0.4777
19919TIP3   OH281247   6.489   3.643   3.164 -0.8101 -0.4572 -0.1798
19919TIP3    H181248   6.502   3.582   3.237  1.4784  1.3299  0.9822
19919TIP3    H281249   6.478   3.586   3.088 -0.6370 -2.3458  1.1566
19920TIP3   OH281250   2.998   5.358   1.094 -0.4775 -0.0054 -0.0001
19920TIP3    H181251   2.926   5.414   1.066 -0.9958  0.9945  3.1852
19920TIP3    H281252   2.961   5.301   1.161  1.2158 -0.8039  0.2985
19921TIP3   OH281253   5.438   1.019  11.775  0.3409 -0.5780 -0.3980
19921TIP3    H181254   5.533   1.011  11.774  0.3465 -0.5055 -0.7337
19921TIP3    H281255   5.407   0.945  11.827  0.5825 -0.5866 -0.2696
19922TIP3   OH281256   1.681   5.365   4.509  0.9431 -0.4472 -0.7600
19922TIP3    H181257   1.760   5.404   4.471  1.7115 -0.4501  0.7674
19922TIP3    H281258   1.617   5.364   4.438  2.1457  0.0740 -1.8625
19923TIP3   OH281259   2.977   1.340   3.808  0.2191  0.0269 -0.6809
19923TIP3    H181260   2.975   1.330   3.903 -0.6022 -0.4763 -0.7426
19923TIP3    H281261   2.884   1.344   3.783  0.4142  4.4750 -1.0213
19924TIP3   OH281262   6.696   4.025   2.819 -0.4655 -0.0273  0.0932
19924TIP3    H181263   6.635   4.092   2.849  0.6332  0.6549  0.8372
19924TIP3    H281264   6.765   4.073   2.773  0.2168 -0.6555  0.4387
19925TIP3   OH281265   1.792   3.562  14.153  0.0472 -0.3526  0.1837
19925TIP3    H181266   1.759   3.586  14.066 -0.2099  2.3366  0.9842
19925TIP3    H281267   1.864   3.623  14.169  0.1437 -0.8825  1.8207
19926TIP3   OH281268   3.375   3.561  12.253  0.2924 -0.3627 -0.5368
19926TIP3    H181269   3.446   3.536  12.312 -1.1984 -1.7643  0.7202
19926TIP3    H281270   3.411   3.633  12.201  1.8315  0.5768  1.7255
19927TIP3   OH281271   5.637   4.087  15.919 -0.6984 -0.1714 -0.3256
19927TIP3    H181272   5.649   4.181  15.930  1.2667 -0.1683 -2.1193
19927TIP3    H281273   5.716   4.049  15.957 -1.8420 -1.1648  1.1019
19928TIP3   OH281274   5.819   4.194  13.379  0.0451 -0.0806 -0.0576
19928TIP3    H181275   5.731   4.221  13.404 -0.1321  1.4639 -2.2482
19928TIP3    H281276   5.809   4.102  13.353 -0.3535 -0.7568  2.3649
19929TIP3   OH281277   6.199   4.914  13.513 -0.2408 -0.2576 -0.3356
19929TIP3    H181278   6.178   4.910  13.606  2.3538  1.7252  0.3742
19929TIP3    H281279   6.271   4.852  13.501  1.4610  1.6859 -0.3957
19930TIP3   OH281280   1.515   2.936   3.833  0.6899 -0.1565 -0.0995
19930TIP3    H181281   1.493   2.902   3.746 -0.7293  2.2339 -0.7159
19930TIP3    H281282   1.523   3.031   3.821  0.9768  0.1562  2.2659
19931TIP3   OH281283   0.342   5.700  12.100 -0.1119  0.1524  0.8652
19931TIP3    H181284   0.382   5.779  12.064  1.4605 -1.6629 -1.5076
19931TIP3    H281285   0.342   5.714  12.195  1.4965  2.3622  0.5690
19932TIP3   OH281286   0.584   5.457   4.294  0.0020 -0.1694 -0.3682
19932TIP3    H181287   0.578   5.416   4.380 -0.8869  1.0102  0.1532
19932TIP3    H281288   0.524   5.531   4.299 -0.0712 -0.1027 -2.0177
19933TIP3   OH281289   1.903   4.147  12.428  0.6038 -0.4619 -0.3077
19933TIP3    H181290   1.836   4.079  12.424  0.7292 -0.6170  0.1234
19933TIP3    H281291   1.857   4.228  12.405  0.2926 -0.5825 -0.1143
19934TIP3   OH281292   4.076   0.607   5.640 -0.3203  0.2336  0.5617
19934TIP3    H181293   4.055   0.526   5.686 -0.1727  0.1633  0.5054
19934TIP3    H281294   4.149   0.584   5.582  0.8678  0.8211  1.8028
19935TIP3   OH281295   3.189   0.243  14.403 -0.1804 -0.0237  0.1243
19935TIP3    H181296   3.129   0.316  14.418 -0.3172 -0.0359 -0.3254
19935TIP3    H281297   3.238   0.234  14.484 -2.3094 -1.4218  1.3225
19936TIP3   OH281298   4.550   2.817   1.836  0.0865  0.3691 -0.0630
19936TIP3    H181299   4.473   2.816   1.780 -0.6737 -1.6765  0.9813
19936TIP3    H281300   4.519   2.852   1.920 -0.2136 -2.2960  0.9953
19937TIP3   OH281301   6.733   3.737   4.565  0.1341 -0.0604 -0.3854
19937TIP3    H181302   6.661   3.771   4.617 -0.2618  1.2603 -1.7433
19937TIP3    H281303   6.764   3.813   4.515  2.1755 -0.7066 -0.1505
19938TIP3   OH281304   1.289   4.097   0.751  0.3192 -0.3176  0.5783
19938TIP3    H181305   1.302   4.158   0.678  1.0930  0.2125  1.1456
19938TIP3    H281306   1.351   4.127   0.818  0.1478 -1.2542  1.1621
19939TIP3   OH281307   6.513   4.035  16.969 -0.1599  0.1279  0.0903
19939TIP3    H181308   6.589   3.990  16.931 -0.1853 -0.0103  0.1993
19939TIP3    H281309   6.497   3.988  17.051 -0.1094  0.4170  0.2663
19940TIP3   OH281310   6.653   2.252  14.212  0.3791  0.4655 -0.1372
19940TIP3    H181311   6.738   2.222  14.182  0.3962  0.3691  0.0059
19940TIP3    H281312   6.669   2.286  14.300  0.3977  1.0715 -0.3727
19941TIP3   OH281313   3.242   2.066   1.597  0.0099 -0.4664  0.3581
19941TIP3    H181314   3.234   2.159   1.618  1.7030  0.4623 -2.7668
19941TIP3    H281315   3.333   2.044   1.615  0.3168 -0.8032 -1.4954
19942TIP3   OH281316   0.689   6.708   1.458 -0.0935 -0.4455  0.0917
19942TIP3    H181317   0.634   6.663   1.394  0.2624  1.0257 -1.2804
19942TIP3    H281318   0.770   6.657   1.460  1.8379  2.1047 -4.3004
19943TIP3   OH281319   3.768   2.166   1.635 -0.2885 -0.4321 -0.6210
19943TIP3    H181320   3.819   2.210   1.703  1.6799 -0.6190 -1.9607
19943TIP3    H281321   3.824   2.166   1.558 -1.3992 -2.6732 -1.4929
19944TIP3   OH281322   5.812   4.995  12.636  0.0758  0.3584 -0.9209
19944TIP3    H181323   5.739   4.968  12.691  0.1030  0.4576 -0.8353
19944TIP3    H281324   5.781   5.074  12.592  0.0411  0.2605 -1.0744
19945TIP3   OH281325   3.815   0.001  12.594  0.4804  0.4845 -0.6556
19945TIP3    H181326   3.808  -0.066  12.526  0.2727  0.2429 -0.3982
19945TIP3    H281327   3.908   0.023  12.596  0.5019  0.4273 -0.9525
19946TIP3   OH281328   5.175   4.559   4.918  0.0592 -0.1704 -0.1297
19946TIP3    H181329   5.190   4.574   5.012 -0.8942  0.9583 -0.1441
19946TIP3    H281330   5.166   4.646   4.881  3.0956 -0.4970 -1.7684
19947TIP3   OH281331   2.789   1.812   1.464 -0.2713  0.4274  0.0750
19947TIP3    H181332   2.739   1.761   1.400  1.0780  1.4303 -1.8212
19947TIP3    H281333   2.859   1.754   1.492 -1.1787 -0.2023  1.0656
19948TIP3   OH281334   6.040   5.978   0.103 -0.1269  1.0370 -0.3135
19948TIP3    H181335   6.057   5.912   0.170 -1.4612 -0.8146 -1.7200
19948TIP3    H281336   6.051   6.062   0.148 -1.1524 -0.1465  2.2388
19949TIP3   OH281337   6.070   6.461   3.533 -0.7066  0.3932  0.4495
19949TIP3    H181338   6.038   6.515   3.461  1.2308  1.4369  0.3613
19949TIP3    H281339   6.033   6.501   3.611 -0.3250  1.0873  0.2772
19950TIP3   OH281340   3.541   2.940   3.820  0.0545  0.1132  0.3376
19950TIP3    H181341   3.513   3.025   3.854  0.5241  1.7049 -2.9791
19950TIP3    H281342   3.486   2.876   3.864 -2.0401  2.3545  1.0680
19951TIP3   OH281343   5.273   1.240  12.435  0.0875  0.7211  0.0876
19951TIP3    H181344   5.317   1.203  12.358 -0.3057  2.3193 -0.9383
19951TIP3    H281345   5.186   1.263  12.404 -0.1271  1.2488  1.0576
19952TIP3   OH281346   4.222   5.480  11.974 -0.3463  0.0303 -0.6307
19952TIP3    H181347   4.162   5.413  12.006 -1.0648  0.6024 -0.7509
19952TIP3    H281348   4.309   5.445  11.990 -0.6564  0.5482  2.6080
19953TIP3   OH281349   2.276   3.224   1.626  0.2338  0.4125  0.0920
19953TIP3    H181350   2.255   3.182   1.710  0.7648  0.6446  0.3410
19953TIP3    H281351   2.235   3.167   1.561  0.0215  0.0984  0.4909
19954TIP3   OH281352   0.980   0.673  12.118 -0.2185 -0.3441 -0.2411
19954TIP3    H181353   1.008   0.615  12.189 -0.9229 -2.0705 -1.3586
19954TIP3    H281354   0.933   0.744  12.163  0.3463 -0.8030  1.1093
19955TIP3   OH281355   1.778   0.400  12.796 -0.9034 -0.1834  0.1662
19955TIP3    H181356   1.815   0.318  12.828 -0.9430 -0.0459  0.5726
19955TIP3    H281357   1.729   0.375  12.718  0.4144 -0.2902 -0.6272
19956TIP3   OH281358   4.184   4.047  15.128  0.1155  0.1113  0.5847
19956TIP3    H181359   4.180   3.965  15.177  0.9879 -0.4425 -0.2439
19956TIP3    H281360   4.094   4.065  15.102  0.0173 -0.9896  0.1344
19957TIP3   OH281361   3.003   0.941  16.065  0.4303 -0.4722 -0.3603
19957TIP3    H181362   3.075   0.923  16.004  0.9535  0.2281  0.0314
19957TIP3    H281363   3.034   1.017  16.115  0.8176 -2.2286  2.0966
19958TIP3   OH281364   2.348   2.418  11.769  0.9112  0.2544  0.2389
19958TIP3    H181365   2.290   2.438  11.843 -0.6968  1.8030 -1.3835
19958TIP3    H281366   2.353   2.501  11.721  2.8656 -0.4326 -0.7487
19959TIP3   OH281367   3.065   4.232  11.338  0.1376 -0.3995  0.0164
19959TIP3    H181368   3.135   4.285  11.300 -0.7204 -0.6710 -2.0053
19959TIP3    H281369   2.986   4.286  11.330 -0.7420 -1.9555 -2.0656
19960TIP3   OH281370   0.492   1.241   5.697 -0.4959 -0.0517 -0.1008
19960TIP3    H181371   0.547   1.186   5.641  0.7130  1.1067 -0.0804
19960TIP3    H281372   0.424   1.275   5.638  0.8175  1.2235 -0.9096
19961TIP3   OH281373   4.553   1.550   1.325  0.1706 -0.3899  0.3361
19961TIP3    H181374   4.533   1.514   1.238 -0.6458  0.6210  0.0999
19961TIP3    H281375   4.479   1.525   1.379  0.3469 -0.4056  0.5700
19962TIP3   OH281376   0.941   5.884  13.308 -0.7349  0.4568  0.2664
19962TIP3    H181377   0.976   5.845  13.388  0.1379  0.8492  0.0734
19962TIP3    H281378   0.852   5.849  13.302 -0.2261 -0.9061  0.5036
19963TIP3   OH281379   0.057   6.631  17.001 -0.4140 -0.5024 -0.2484
19963TIP3    H181380   0.028   6.714  16.965 -1.6585  0.3427  2.5577
19963TIP3    H281381   0.152   6.636  17.002 -0.4463  0.2651 -1.5062
19964TIP3   OH281382   5.141   2.758  15.063 -0.2689 -0.8841  0.0136
19964TIP3    H181383   5.173   2.741  15.151 -0.1784 -0.9583 -0.0351
19964TIP3    H281384   5.218   2.752  15.007  0.0213  1.0610  0.1644
19965TIP3   OH281385   0.821   3.953   0.644  0.5124  0.2895  0.0344
19965TIP3    H181386   0.872   3.907   0.710  0.3292 -1.5652 -1.0744
19965TIP3    H281387   0.874   3.947   0.565 -0.5100  0.0525 -0.6454
19966TIP3   OH281388   0.532   0.970  15.143  0.3045 -0.1016 -0.3024
19966TIP3    H181389   0.437   0.965  15.138  0.2824  0.6596 -0.7084
19966TIP3    H281390   0.559   0.881  15.164 -0.4209 -0.6317 -1.5318
19967TIP3   OH281391   0.414   5.954  11.919  0.1366  0.6580  0.5701
19967TIP3    H181392   0.475   5.995  11.980  1.4979 -1.6584  0.8257
19967TIP3    H281393   0.450   5.970  11.833  0.3561  0.5184  0.6356
19968TIP3   OH281394   4.977   4.851   3.737  0.5601 -0.5761  0.1180
19968TIP3    H181395   4.962   4.765   3.777  0.3594 -0.9505 -0.7547
19968TIP3    H281396   4.956   4.914   3.807  0.2326 -1.2253  0.6079
19969TIP3   OH281397   6.500   1.573  17.256 -0.1110 -0.0342  0.4878
19969TIP3    H181398   6.481   1.513  17.184 -3.3064  0.2982  0.9753
19969TIP3    H281399   6.477   1.660  17.222 -0.3747  0.2841  1.4678
19970TIP3   OH281400   2.643   0.394  16.470  0.5066  0.1686 -0.3388
19970TIP3    H181401   2.580   0.438  16.413  0.5967 -1.0992 -1.4266
19970TIP3    H281402   2.710   0.461  16.486 -0.5973  1.2180  0.0491
19971TIP3   OH281403   6.163   6.612  15.336 -0.1899  0.6150  0.2129
19971TIP3    H181404   6.229   6.671  15.373  0.0257  0.2269  0.4443
19971TIP3    H281405   6.109   6.587  15.411  1.0895 -1.2716  0.5193
19972TIP3   OH281406   6.297   6.229   0.313 -0.2953 -0.4208  0.0428
19972TIP3    H181407   6.280   6.309   0.362 -1.1166 -1.5343  1.6435
19972TIP3    H281408   6.213   6.208   0.273  0.2050  0.1194 -1.3161
19973TIP3   OH281409   3.387   5.676   6.216  0.0847  0.3476 -0.1354
19973TIP3    H181410   3.301   5.670   6.175 -0.1253  2.9481 -0.1792
19973TIP3    H281411   3.373   5.647   6.306 -1.1333  1.8426  0.1865
19974TIP3   OH281412   3.417   1.032  15.455  0.4464  0.1241  0.5020
19974TIP3    H181413   3.511   1.046  15.461  0.4964  0.1988 -0.4696
19974TIP3    H281414   3.406   0.958  15.396 -0.0785 -0.3754  1.2069
19975TIP3   OH281415   4.916   0.024  14.401 -0.1425 -0.5926 -0.3536
19975TIP3    H181416   4.982   0.091  14.380 -0.9948  0.8169  1.3723
19975TIP3    H281417   4.967  -0.047  14.439  0.5244 -0.0233 -0.1588
19976TIP3   OH281418   3.268   5.177   0.675  0.3529 -0.0918  0.0636
19976TIP3    H181419   3.356   5.189   0.711  0.0949 -1.0023  1.0484
19976TIP3    H281420   3.210   5.190   0.750 -0.4382  1.6500 -0.8248
19977TIP3   OH281421   3.648   2.483   3.472 -0.1811 -0.4329 -0.0877
19977TIP3    H181422   3.708   2.473   3.398 -1.7930  0.7460 -1.6073
19977TIP3    H281423   3.561   2.481   3.431 -1.0701  1.0390  1.6927
19978TIP3   OH281424   0.562   6.628  14.116 -0.2301  0.7578 -0.0270
19978TIP3    H181425   0.591   6.643  14.026  1.6811 -0.6923  0.3207
19978TIP3    H281426   0.481   6.578  14.108 -0.7424  1.7260 -0.9587
19979TIP3   OH281427   1.244   3.964   2.510 -0.2201 -0.3162 -0.2210
19979TIP3    H181428   1.186   3.990   2.582 -0.7423  0.4086 -0.9042
19979TIP3    H281429   1.325   4.013   2.526 -0.8830  1.0504 -0.9972
19980TIP3   OH281430   4.353   4.295   2.182 -0.2928 -0.1455  0.3233
19980TIP3    H181431   4.337   4.234   2.110  0.2174  0.5696 -0.4066
19980TIP3    H281432   4.268   4.335   2.200 -0.3985 -0.2549  0.0594
19981TIP3   OH281433   5.904   5.100   5.576 -0.3423  0.4394  0.1859
19981TIP3    H181434   5.966   5.048   5.627 -0.1115  0.8552  0.3286
19981TIP3    H281435   5.866   5.161   5.639  1.3037  2.2322 -0.4791
19982TIP3   OH281436   3.810   2.215  13.647  0.1331  0.4874  0.1353
19982TIP3    H181437   3.736   2.156  13.659 -1.4120  1.8897 -2.1153
19982TIP3    H281438   3.792   2.289  13.705 -0.2026  0.7911 -0.3509
19983TIP3   OH281439   0.768   1.201  12.408  0.5253  0.3808 -0.1247
19983TIP3    H181440   0.800   1.216  12.496  0.6047  0.7359 -0.2147
19983TIP3    H281441   0.688   1.150  12.420  0.2334  0.9053  0.1802
19984TIP3   OH281442   1.371   6.138  13.643  0.6266 -0.1051 -0.0442
19984TIP3    H181443   1.402   6.172  13.559  0.2337  0.6380  0.0969
19984TIP3    H281444   1.347   6.217  13.692  0.3145 -0.5677  0.5463
19985TIP3   OH281445   1.392   2.488   4.233  0.1510  0.3866  0.2489
19985TIP3    H181446   1.370   2.406   4.277  0.0415  0.3807  0.1838
19985TIP3    H281447   1.478   2.512   4.268 -0.1799  0.6685  0.8751
19986TIP3   OH281448   5.093   1.589  16.961 -0.0067  0.2030  0.3677
19986TIP3    H181449   5.131   1.578  17.049  1.9913  0.6703 -0.4174
19986TIP3    H281450   5.045   1.508  16.946  1.2401 -0.7121  1.1275
19987TIP3   OH281451   6.445   6.122  10.518  0.3465  0.2772 -0.3160
19987TIP3    H181452   6.416   6.120  10.610 -0.3816 -0.7069 -0.5634
19987TIP3    H281453   6.364   6.127  10.467  0.7690  1.2306 -0.8949
19988TIP3   OH281454   3.418   5.931   0.046 -0.0181 -0.2449  0.1121
19988TIP3    H181455   3.439   6.016   0.006 -0.8574  0.4961  1.1806
19988TIP3    H281456   3.486   5.920   0.113 -0.0237 -0.3128  0.1059
19989TIP3   OH281457   4.244   0.387  10.281  0.3254  0.3133  0.1158
19989TIP3    H181458   4.253   0.388  10.376 -0.5761 -1.3884  0.2541
19989TIP3    H281459   4.248   0.294  10.258 -0.4477  0.6378 -1.4066
19990TIP3   OH281460   4.898   4.371   4.275 -0.1064 -0.1128  0.7324
19990TIP3    H181461   4.871   4.339   4.189  0.9668 -0.5184  0.5379
19990TIP3    H281462   4.852   4.315   4.338 -0.7649  0.0816  0.4145
19991TIP3   OH281463   5.294   2.107  12.281  0.0224  0.1212 -0.1053
19991TIP3    H181464   5.266   2.104  12.372  1.2338  1.9906  0.3638
19991TIP3    H281465   5.315   2.199  12.266 -2.4951  0.3070 -2.9855
19992TIP3   OH281466   2.598   3.210   4.642  0.6307  0.3337  0.2393
19992TIP3    H181467   2.658   3.284   4.651  3.5222 -1.8331 -0.8253
19992TIP3    H281468   2.588   3.198   4.548 -2.0397  1.0384  0.3785
19993TIP3   OH281469   6.054   3.830   5.960  0.0778 -0.1529 -0.1500
19993TIP3    H181470   5.991   3.767   5.925 -0.0178 -0.0187 -0.2196
19993TIP3    H281471   6.056   3.812   6.054 -1.7846  1.3585  0.1997
19994TIP3   OH281472   5.073   4.520  12.331  0.1224 -0.6739 -0.7997
19994TIP3    H181473   5.132   4.446  12.313  1.9156  0.5376 -0.0919
19994TIP3    H281474   5.091   4.582  12.261 -1.5071 -0.9525 -1.4891
19995TIP3   OH281475   2.097   5.357  14.291  0.2492 -0.1294 -0.7324
19995TIP3    H181476   2.074   5.399  14.208  0.1729  1.2216 -0.0378
19995TIP3    H281477   2.026   5.294  14.306  0.8740 -1.2569 -2.2673
19996TIP3   OH281478   1.795   6.178  12.061  0.0911 -0.4631  0.4133
19996TIP3    H181479   1.771   6.166  11.969 -1.7091 -0.6548  0.9100
19996TIP3    H281480   1.834   6.095  12.087 -1.3781 -1.1543  0.4323
19997TIP3   OH281481   2.118   4.691   1.946 -0.0640 -0.1711  0.2084
19997TIP3    H181482   2.029   4.664   1.925 -0.2313  0.2638  0.3619
19997TIP3    H281483   2.108   4.754   2.018  0.3045  0.5354 -0.3529
19998TIP3   OH281484   0.076   3.360   5.517 -0.1993  0.3824  0.0174
19998TIP3    H181485   0.128   3.282   5.495  0.2652  0.8420 -0.5144
19998TIP3    H281486   0.072   3.410   5.436 -1.7478  0.2046 -0.0265
19999TIP3   OH281487   6.142   4.732  12.157 -0.0515  0.3080  0.0219
19999TIP3    H181488   6.136   4.785  12.077 -0.9974  0.5674  0.2612
19999TIP3    H281489   6.102   4.648  12.133  0.3186  0.1360  0.0096
20000TIP3   OH281490   0.252   1.547  14.416 -0.3428 -0.1890 -0.5992
20000TIP3    H181491   0.272   1.566  14.508 -0.6812 -0.4855 -0.4633
20000TIP3    H281492   0.158   1.528  14.415 -0.0396 -1.7870 -0.7376
20001TIP3   OH281493   2.597   2.122  11.540  0.0890  0.0599 -0.6242
20001TIP3    H181494   2.534   2.125  11.612  1.3639  0.1366  0.4910
20001TIP3    H281495   2.609   2.213  11.514 -0.6304  0.0030 -1.1710
20002TIP3   OH281496   1.829   4.758   0.746 -0.2546 -0.0495 -0.3195
20002TIP3    H181497   1.909   4.719   0.783 -0.2153  1.3312  1.0949
20002TIP3    H281498   1.792   4.689   0.692  2.5375 -0.3519 -1.9916
20003TIP3   OH281499   0.999   0.462  15.499 -0.6679  0.4110 -0.1209
20003TIP3    H181500   1.013   0.556  15.482 -0.3132  0.2195 -0.9109
20003TIP3    H281501   0.907   0.457  15.526 -0.9533  0.8774 -0.9620
20004TIP3   OH281502   0.760   5.792  15.881 -0.1561  0.2434 -0.4024
20004TIP3    H181503   0.733   5.882  15.900 -0.0804  0.2283 -0.2112
20004TIP3    H281504   0.696   5.738  15.927 -0.1217  0.2031 -0.4032
20005TIP3   OH281505   1.685   4.703  11.347 -0.1746  0.1408  0.4446
20005TIP3    H181506   1.686   4.770  11.278  0.3118 -1.0598 -0.7367
20005TIP3    H281507   1.615   4.644  11.322  1.8545 -1.8999 -0.6087
20006TIP3   OH281508   3.460   4.441   2.419 -0.2257 -0.6572 -0.3719
20006TIP3    H181509   3.434   4.411   2.506  0.6092 -2.9361 -0.8809
20006TIP3    H281510   3.555   4.444   2.422 -0.1904 -0.8741 -1.2503
20007TIP3   OH281511   3.240   4.090   3.056  0.4544 -0.2019  0.0405
20007TIP3    H181512   3.155   4.072   3.095  0.1095  2.1256  0.4434
20007TIP3    H281513   3.220   4.117   2.966  0.6057  1.6738  0.5364
20008TIP3   OH281514   1.873   6.099  14.175  0.1170 -0.0624 -0.3427
20008TIP3    H181515   1.796   6.145  14.141 -1.1181 -0.2970  2.0867
20008TIP3    H281516   1.947   6.139  14.129 -1.3662  0.7928 -2.0375
20009TIP3   OH281517   2.369   1.771  11.708 -0.2459  0.4895 -0.2846
20009TIP3    H181518   2.404   1.843  11.759  0.5903  0.9516 -1.4965
20009TIP3    H281519   2.337   1.709  11.773  1.6804  0.6325  0.8217
20010TIP3   OH281520   5.494   0.193   0.597  0.3835 -0.2048 -0.5344
20010TIP3    H181521   5.459   0.253   0.664  0.1203 -1.1673  0.2002
20010TIP3    H281522   5.589   0.204   0.604  0.3544 -0.2161 -0.0789
20011TIP3   OH281523   2.801   5.629   2.791  0.2949  0.0410  0.2748
20011TIP3    H181524   2.742   5.565   2.750  0.7000 -0.9402  1.1993
20011TIP3    H281525   2.839   5.582   2.865  1.4634  1.0061  0.2911
20012TIP3   OH281526   5.696   5.830  14.687 -0.0820  0.3209 -0.0851
20012TIP3    H181527   5.768   5.843  14.748 -0.0215  0.1536 -0.1210
20012TIP3    H281528   5.734   5.780  14.615  0.4700  2.5913 -1.4330
20013TIP3   OH281529   3.760   4.664  13.398  0.4183 -0.0963 -0.2290
20013TIP3    H181530   3.674   4.676  13.357  0.2358 -0.2408  0.1104
20013TIP3    H281531   3.754   4.579  13.441  0.7559 -0.1336 -0.2553
20014TIP3   OH281532   5.112   4.592  16.473 -0.2826 -0.0032  0.1460
20014TIP3    H181533   5.098   4.687  16.478 -0.8681 -0.0939  0.2584
20014TIP3    H281534   5.109   4.572  16.379 -1.5201 -0.1029  0.1886
20015TIP3   OH281535   5.355   6.328   6.864  0.2260 -0.1206  0.4949
20015TIP3    H181536   5.352   6.418   6.897 -2.0263  0.8812 -2.1887
20015TIP3    H281537   5.263   6.307   6.844  0.9629 -2.2702 -0.7935
20016TIP3   OH281538   0.599   4.298  11.163 -0.4251  0.1502  0.1695
20016TIP3    H181539   0.569   4.209  11.178  2.5873 -1.3000 -1.9338
20016TIP3    H281540   0.662   4.314  11.233 -0.1775  0.2518 -0.0767
20017TIP3   OH281541   2.935   4.251  14.263  0.7833 -0.3033  0.3375
20017TIP3    H181542   3.025   4.236  14.293  1.2451  0.5369 -0.6086
20017TIP3    H281543   2.924   4.346  14.262 -0.2667 -0.4112  0.8739
20018TIP3   OH281544   4.102   6.481  12.080 -0.0268  0.1907 -0.2472
20018TIP3    H181545   4.010   6.458  12.092  0.4015 -0.6359  1.6801
20018TIP3    H281546   4.141   6.403  12.041  0.0017  0.2618 -0.3585
20019TIP3   OH281547   6.207   2.989   4.125  0.1876 -0.2470 -1.0532
20019TIP3    H181548   6.143   3.031   4.069  0.3306  2.0615  0.4589
20019TIP3    H281549   6.257   3.061   4.163  2.4666 -1.9099 -0.7594
20020TIP3   OH281550   5.760   6.256   5.972  0.8025 -0.5256  0.1043
20020TIP3    H181551   5.755   6.306   5.891 -1.6158  1.8914  1.6906
20020TIP3    H281552   5.815   6.181   5.950  0.6179  0.3461 -3.6097
20021TIP3   OH281553   6.702   5.153   0.755  0.2384  0.6814 -0.0946
20021TIP3    H181554   6.683   5.072   0.708  2.0720 -0.5270  1.1839
20021TIP3    H281555   6.797   5.158   0.758  0.1897  0.7439  3.4038
20022TIP3   OH281556   6.809   0.397   0.241  0.2496  0.2010  0.6094
20022TIP3    H181557   6.725   0.375   0.282  0.7939 -2.2052  0.5395
20022TIP3    H281558   6.845   0.465   0.297 -1.6571  1.1390  0.7543
20023TIP3   OH281559   5.714   0.481   5.365  0.1541  0.1342 -0.4864
20023TIP3    H181560   5.654   0.542   5.323  1.3073  0.5873 -1.5129
20023TIP3    H281561   5.797   0.493   5.318  1.3560  0.3084  1.5958
20024TIP3   OH281562   3.226   2.763  12.754  0.1600  0.2352 -0.0357
20024TIP3    H181563   3.223   2.711  12.673 -1.4029 -0.4456  0.4313
20024TIP3    H281564   3.172   2.713  12.816  1.2352  0.8162  1.3896
20025TIP3   OH281565   6.619   4.792  13.908 -0.1978 -0.5552  0.4347
20025TIP3    H181566   6.570   4.753  13.981  0.3509 -0.6916  0.7322
20025TIP3    H281567   6.704   4.815  13.946 -0.0905 -0.1629 -0.0383
20026TIP3   OH281568   5.465   0.242   4.003 -0.1618  0.0087  0.0319
20026TIP3    H181569   5.436   0.186   3.931 -1.9394 -0.4944  1.0930
20026TIP3    H281570   5.559   0.250   3.991  0.0984 -2.9521 -0.3732
20027TIP3   OH281571   4.254   4.571  17.062 -0.3029 -0.3719 -0.1785
20027TIP3    H181572   4.275   4.489  17.106  0.3464 -0.3873 -0.5073
20027TIP3    H281573   4.249   4.636  17.132  0.5587 -0.4267 -0.0612
20028TIP3   OH281574   6.553   2.377  12.205 -0.3313 -0.5780  0.3063
20028TIP3    H181575   6.568   2.463  12.165  0.9484 -1.8498 -2.0578
20028TIP3    H281576   6.555   2.394  12.299  1.2525  1.7752 -0.0941
20029TIP3   OH281577   2.441   3.921  14.884 -0.0538  0.4050 -0.0515
20029TIP3    H181578   2.471   3.955  14.800  0.2999  1.1674  0.3814
20029TIP3    H281579   2.502   3.958  14.948 -1.4743  1.3729  0.7549
20030TIP3   OH281580   0.582   6.760   2.920 -0.0232  0.1955 -0.1989
20030TIP3    H181581   0.580   6.743   3.014 -0.8992 -0.8968 -0.4119
20030TIP3    H281582   0.513   6.706   2.884 -0.1172  1.0974 -1.4057
20031TIP3   OH281583   0.904   6.320   1.306  0.0922 -0.3460 -0.3947
20031TIP3    H181584   0.895   6.323   1.210  3.0941  0.3647 -0.7040
20031TIP3    H281585   0.960   6.245   1.322  0.9876  0.5435  0.6965
20032TIP3   OH281586   4.251   4.627   4.435 -0.4101  0.5668  0.6403
20032TIP3    H181587   4.340   4.592   4.443  0.0418  1.7741  0.9755
20032TIP3    H281588   4.228   4.611   4.343  1.2389  2.7146 -0.2107
20033TIP3   OH281589   0.164   4.549   2.060  0.4932  0.6743  0.0130
20033TIP3    H181590   0.131   4.549   2.149  0.5030 -0.2768  0.0198
20033TIP3    H281591   0.113   4.482   2.015  2.0212 -0.4527 -0.1084
20034TIP3   OH281592   6.458   6.561  14.326 -0.0636  0.6466 -0.0019
20034TIP3    H181593   6.405   6.578  14.404 -3.0387  0.6275 -1.9169
20034TIP3    H281594   6.426   6.476  14.294  1.5470  0.3578 -0.9039
20035TIP3   OH281595   2.327   4.876  15.478  0.0967  0.1508  0.2663
20035TIP3    H181596   2.339   4.837  15.391  0.1668 -0.0590  0.3704
20035TIP3    H281597   2.417   4.889  15.510  0.0578 -0.9433  0.8342
20036TIP3   OH281598   2.062   4.446   1.571 -0.0419 -0.2033  0.0750
20036TIP3    H181599   2.107   4.443   1.656 -1.4914 -1.4476  0.8364
20036TIP3    H281600   2.003   4.521   1.578 -0.7218 -0.7550  0.5066
20037TIP3   OH281601   1.265   1.876   5.020  0.2871  0.4688  0.1967
20037TIP3    H181602   1.207   1.812   5.062 -0.3311  1.6008  1.1254
20037TIP3    H281603   1.225   1.961   5.042  0.0042  1.1105 -2.6016
20038TIP3   OH281604   1.557   3.799  11.682  0.1695  0.2968 -0.1186
20038TIP3    H181605   1.605   3.870  11.640 -0.4329  0.9851  0.3381
20038TIP3    H281606   1.574   3.722  11.628  1.9412  0.4888  0.1466
20039TIP3   OH281607   3.526   3.651   4.142 -0.2982  0.4822 -0.4734
20039TIP3    H181608   3.560   3.602   4.217 -2.1631  0.4458  0.3851
20039TIP3    H281609   3.521   3.586   4.072  0.4081  0.2516 -0.3148
20040TIP3   OH281610   3.729   4.776   4.172  0.6520 -0.5036  0.2915
20040TIP3    H181611   3.796   4.770   4.240 -0.5316 -1.4668  1.4079
20040TIP3    H281612   3.672   4.847   4.201  1.0473  0.1666 -0.5408
20041TIP3   OH281613   1.427   5.792   2.332 -0.1409  0.3116 -0.3714
20041TIP3    H181614   1.372   5.751   2.398  0.3442 -0.4821 -0.4432
20041TIP3    H281615   1.377   5.784   2.251 -0.2181  0.1974 -0.3133
20042TIP3   OH281616   6.594   5.380   4.078  0.3982 -0.6903  0.9631
20042TIP3    H181617   6.621   5.441   4.010 -3.1076 -0.7294 -0.5578
20042TIP3    H281618   6.566   5.435   4.151  1.2161 -0.5863  1.2026
20043TIP3   OH281619   2.206   2.868   5.958  0.0281  0.5416 -0.3532
20043TIP3    H181620   2.299   2.848   5.969 -0.2949 -1.2154 -0.6452
20043TIP3    H281621   2.167   2.841   6.041 -0.5169 -0.7520 -1.0100
20044TIP3   OH281622   4.516   0.194   4.933 -0.9191 -0.5080 -0.0668
20044TIP3    H181623   4.447   0.251   4.899 -1.6356 -0.4264  1.4758
20044TIP3    H281624   4.581   0.254   4.970 -1.3014 -0.6648  0.8651
20045TIP3   OH281625   4.198   1.962   4.107  0.5287 -0.5101  0.9491
20045TIP3    H181626   4.235   1.923   4.028 -1.5940 -1.0116  0.1605
20045TIP3    H281627   4.274   1.987   4.160  1.9881  0.0522 -1.3435
20046TIP3   OH281628   1.541   5.203  11.047 -0.3059  0.4515  0.4886
20046TIP3    H181629   1.563   5.148  10.972  2.2262 -0.1521  1.6211
20046TIP3    H281630   1.461   5.164  11.083 -2.1083  1.3356 -2.4264
20047TIP3   OH281631   0.584   4.565   5.332  0.2495 -0.3195 -0.3047
20047TIP3    H181632   0.489   4.561   5.344  0.3624 -0.9625  0.4431
20047TIP3    H281633   0.619   4.532   5.415  1.1303  0.7558 -0.2471
20048TIP3   OH281634   0.825   6.758  13.208 -0.2445  0.1324 -0.0346
20048TIP3    H181635   0.879   6.784  13.133 -0.8847  1.0677 -0.1913
20048TIP3    H281636   0.846   6.823  13.275 -0.6008  0.0425  0.1599
20049TIP3   OH281637   1.414   2.656   1.406 -0.0227  0.1531  0.1836
20049TIP3    H181638   1.410   2.751   1.399  0.3069  0.3666  2.4061
20049TIP3    H281639   1.324   2.627   1.393  0.3952  0.4363 -3.9337
20050TIP3   OH281640   1.125   1.050   3.603  0.6048  0.1728  0.4493
20050TIP3    H181641   1.186   1.014   3.667 -0.1857 -0.6396  0.7619
20050TIP3    H281642   1.071   1.112   3.653 -0.4129 -0.9082  0.7369
20051TIP3   OH281643   1.735   0.271   4.973  0.0930 -0.8424  1.1423
20051TIP3    H181644   1.683   0.335   4.924  4.1970  1.6759 -0.2203
20051TIP3    H281645   1.736   0.305   5.063  1.1508  0.3646  0.6961
20052TIP3   OH281646   2.909   3.293  15.900  0.5399 -0.1950  0.6527
20052TIP3    H181647   2.911   3.281  15.995  2.1032 -1.6582  0.4385
20052TIP3    H281648   2.984   3.244  15.867 -1.7214 -2.2716 -1.6395
20053TIP3   OH281649   4.480   1.219   2.616  0.1064 -0.1607  0.0708
20053TIP3    H181650   4.411   1.286   2.613  0.8500  0.5905 -0.8625
20053TIP3    H281651   4.557   1.264   2.582  0.8181 -1.2733  0.2045
20054TIP3   OH281652   5.218   5.073  13.227 -0.0702  0.0228  0.3718
20054TIP3    H181653   5.221   5.150  13.285  0.6346 -1.1730  1.9738
20054TIP3    H281654   5.289   5.088  13.165 -0.2353  0.8860  0.3835
20055TIP3   OH281655   2.461   1.786   5.545 -0.1603  0.1478 -0.3016
20055TIP3    H181656   2.404   1.861   5.528 -1.3775 -0.6292  0.2993
20055TIP3    H281657   2.449   1.768   5.638  1.7130  0.4850  0.0343
20056TIP3   OH281658   5.219   4.073  14.142  0.2615 -0.4154  0.0368
20056TIP3    H181659   5.271   4.050  14.065  0.3061  0.6446 -0.2667
20056TIP3    H281660   5.213   3.992  14.193 -0.5067 -1.3382 -1.5046
20057TIP3   OH281661   3.726   6.169   1.941  0.0734  0.3866  0.1305
20057TIP3    H181662   3.774   6.183   2.023  1.5292  0.2725 -0.6792
20057TIP3    H281663   3.761   6.235   1.882  1.6426 -1.7738 -1.4722
20058TIP3   OH281664   1.024   3.912   4.483 -0.3674  0.3654  0.6244
20058TIP3    H181665   1.099   3.933   4.427  0.3740  0.6855  1.7270
20058TIP3    H281666   0.951   3.961   4.444  0.5764  2.2084  1.0884
20059TIP3   OH281667   5.544   4.090   6.373 -0.2751 -0.1017 -0.2734
20059TIP3    H181668   5.590   4.144   6.436 -0.3448  0.3510 -0.6108
20059TIP3    H281669   5.604   4.018   6.354  1.1468  1.5442 -2.2334
20060TIP3   OH281670   1.951   2.846   2.891  0.1395  0.1643  0.3068
20060TIP3    H181671   1.982   2.812   2.807  0.0175 -0.6298  0.5852
20060TIP3    H281672   2.029   2.850   2.946  0.4910  2.0703 -0.2997
20061TIP3   OH281673   2.873   0.846  13.846  0.0208 -0.1172 -0.4899
20061TIP3    H181674   2.845   0.789  13.918 -0.5491  0.6553 -0.0930
20061TIP3    H281675   2.809   0.831  13.777  1.8261 -2.5405 -1.7195
20062TIP3   OH281676   3.092   2.360  16.231 -0.3365 -0.8555 -0.4797
20062TIP3    H181677   3.043   2.440  16.249  1.8396  0.1706  1.0939
20062TIP3    H281678   3.041   2.291  16.272 -0.7815  0.1037  0.6250
20063TIP3   OH281679   0.794   1.255  15.382 -0.1058 -0.2188  0.3225
20063TIP3    H181680   0.726   1.322  15.392  0.6842  1.0628 -2.4090
20063TIP3    H281681   0.855   1.272  15.453  0.2388  2.1781 -0.5104
20064TIP3   OH281682   3.420   6.356  12.096 -0.1993 -0.2439 -0.1384
20064TIP3    H181683   3.515   6.359  12.110 -0.1723  0.4263 -0.4450
20064TIP3    H281684   3.393   6.273  12.136  0.4765 -0.3130  0.1942
20065TIP3   OH281685   0.340   4.242   6.573 -0.2259  0.1028  0.1257
20065TIP3    H181686   0.431   4.273   6.571 -0.5872  1.1697 -0.0033
20065TIP3    H281687   0.290   4.316   6.607 -1.2130 -0.0436 -0.9774
20066TIP3   OH281688   0.909   1.072   0.669 -0.0530 -0.4850 -0.3275
20066TIP3    H181689   0.996   1.041   0.645  0.1500  0.2769 -0.6196
20066TIP3    H281690   0.853   1.043   0.597  0.0655 -0.5217 -0.4063
20067TIP3   OH281691   6.115   0.263   2.484  0.7020  0.2589  0.1382
20067TIP3    H181692   6.178   0.224   2.544  1.0362 -0.2240 -0.5358
20067TIP3    H281693   6.108   0.354   2.513 -2.4133 -0.9493  3.7265
20068TIP3   OH281694   3.502   5.909  11.540  0.0345  0.3498  0.3827
20068TIP3    H181695   3.463   5.995  11.557 -0.4603  0.7950 -2.8147
20068TIP3    H281696   3.559   5.894  11.616 -0.6222  3.0325  1.4922
20069TIP3   OH281697   3.051   4.361  15.760  0.4056 -0.1894  0.1394
20069TIP3    H181698   2.956   4.360  15.770  0.4581 -2.0089  0.7268
20069TIP3    H281699   3.068   4.312  15.679  0.7840  1.3377 -0.7241
20070TIP3   OH281700   3.088   0.219   1.976  0.4031 -0.2084  0.0238
20070TIP3    H181701   3.128   0.265   2.049  1.3848  0.0027 -0.6271
20070TIP3    H281702   3.035   0.151   2.016  1.0276 -0.1694  0.9307
20071TIP3   OH281703   6.374   0.074   3.935  0.4695  0.5093 -0.4086
20071TIP3    H181704   6.325   0.081   3.853 -0.6036  1.6449  0.3183
20071TIP3    H281705   6.370  -0.019   3.957 -0.4432  0.4215 -0.9096
20072TIP3   OH281706   3.670   4.331   1.240 -0.2476  0.7740  0.2087
20072TIP3    H181707   3.651   4.293   1.155 -1.3724 -1.7900  1.5696
20072TIP3    H281708   3.758   4.301   1.261 -0.1135  1.1055  0.1316
20073TIP3   OH281709   6.441   2.448  17.167 -0.4772 -0.4253 -0.0563
20073TIP3    H181710   6.391   2.505  17.225  0.6092 -0.9935  1.4814
20073TIP3    H281711   6.375   2.399  17.118 -1.4335 -0.3424  1.1183
20074TIP3   OH281712   0.046   2.478  14.668  0.2710 -0.5773 -0.2073
20074TIP3    H181713   0.033   2.388  14.696 -1.6520 -0.2413  0.0168
20074TIP3    H281714   0.080   2.523  14.746 -1.2912 -0.5265  0.4545
20075TIP3   OH281715   5.899   2.726  15.959  0.1068  0.1314 -0.0511
20075TIP3    H181716   5.992   2.721  15.980 -0.0616 -0.2572  0.6028
20075TIP3    H281717   5.896   2.721  15.863  0.7942  0.7639 -0.1122
20076TIP3   OH281718   1.090   4.753   3.206  0.2032  0.4339 -0.4645
20076TIP3    H181719   1.083   4.691   3.278  0.4749  1.2219  0.2455
20076TIP3    H281720   1.183   4.757   3.186  0.2430  0.9711 -0.1875
20077TIP3   OH281721   5.986   3.819  15.745  0.1211  0.0654  0.4218
20077TIP3    H181722   6.043   3.757  15.790  1.4229  0.1610 -1.0351
20077TIP3    H281723   6.045   3.888  15.715 -1.2336  1.7776  1.6062
20078TIP3   OH281724   5.179   4.536  14.271  0.6037  0.0529 -0.0709
20078TIP3    H181725   5.166   4.564  14.181  0.4207  0.0541 -0.0450
20078TIP3    H281726   5.139   4.449  14.276  0.7520 -0.0127 -0.0303
20079TIP3   OH281727   0.959   3.740   6.214  0.6447  0.0459  0.2664
20079TIP3    H181728   0.885   3.774   6.265 -0.8481  0.1220 -1.8937
20079TIP3    H281729   0.966   3.648   6.239 -1.0413 -0.2979 -0.5111
20080TIP3   OH281730   5.536   4.575  16.642  0.1031  0.2705  0.1222
20080TIP3    H181731   5.554   4.564  16.735  0.0661 -0.1038  0.0886
20080TIP3    H281732   5.519   4.668  16.631 -1.7937  0.0232  0.8198
20081TIP3   OH281733   2.511   4.865   3.445 -0.0607  0.7549  0.1677
20081TIP3    H181734   2.537   4.891   3.534 -0.2995 -1.2173  0.8390
20081TIP3    H281735   2.576   4.799   3.420 -0.0095  1.2931 -1.1306
20082TIP3   OH281736   1.635   4.045   4.337  0.3368  0.0062 -0.3847
20082TIP3    H181737   1.571   4.108   4.371 -1.2610 -1.2160 -1.0593
20082TIP3    H281738   1.628   4.054   4.242 -0.2022 -1.4754 -0.4877
20083TIP3   OH281739   5.642   1.861   2.298 -0.0520  0.4111 -0.3247
20083TIP3    H181740   5.576   1.834   2.234 -0.0991  1.0394 -0.5361
20083TIP3    H281741   5.612   1.821   2.380 -0.0745 -0.2666 -0.6558
20084TIP3   OH281742   3.840   0.888  14.864 -0.1531 -0.4079  0.3074
20084TIP3    H181743   3.788   0.810  14.845 -0.2255  0.1753 -2.0112
20084TIP3    H281744   3.898   0.898  14.788 -0.4212  2.0070  0.3622
20085TIP3   OH281745   2.872   4.262   5.239 -0.2289  0.2803 -0.4558
20085TIP3    H181746   2.908   4.284   5.325  1.0889 -1.6497 -0.4798
20085TIP3    H281747   2.903   4.332   5.182  0.4894  0.5471  0.2472
20086TIP3   OH281748   3.547   5.235  15.632 -0.4507  0.3247  0.3650
20086TIP3    H181749   3.529   5.152  15.588 -1.2620  0.4426  0.4715
20086TIP3    H281750   3.482   5.240  15.702 -0.7853  1.3252 -0.0128
20087TIP3   OH281751   6.486   0.170   5.951  0.2451  0.2849 -0.4220
20087TIP3    H181752   6.553   0.104   5.934 -0.1082 -0.0971 -0.3557
20087TIP3    H281753   6.449   0.190   5.865  0.1908  0.2172 -0.4146
20088TIP3   OH281754   2.199   3.680  15.730  0.6639 -0.3597  0.1153
20088TIP3    H181755   2.120   3.729  15.749  0.5025 -0.5387 -0.0882
20088TIP3    H281756   2.201   3.674  15.634  0.5869 -0.9046  0.1449
20089TIP3   OH281757   1.189   3.112  13.081 -0.2157  0.0233  0.1559
20089TIP3    H181758   1.231   3.167  13.015 -0.5912  1.7444  1.3202
20089TIP3    H281759   1.107   3.157  13.100 -2.4525 -3.0222 -1.7267
20090TIP3   OH281760   6.389   5.415   0.076 -0.1052 -0.7404  0.0326
20090TIP3    H181761   6.463   5.404   0.135 -0.2380  2.6797  0.8921
20090TIP3    H281762   6.409   5.493   0.025 -2.4794 -0.5363 -0.6685
20091TIP3   OH281763   2.345   5.476  14.947  0.6770 -0.1131 -0.3632
20091TIP3    H181764   2.329   5.553  14.892 -0.5325 -0.3766 -0.3988
20091TIP3    H281765   2.385   5.511  15.026  1.2856  0.4150 -0.8981
20092TIP3   OH281766   2.098   1.124  15.877  0.7581 -0.2991 -0.2749
20092TIP3    H181767   2.125   1.049  15.930 -0.3921 -1.4627 -1.2826
20092TIP3    H281768   2.145   1.198  15.914  2.9093 -1.7314 -0.0728
20093TIP3   OH281769   2.821   2.888  11.652  0.0010 -0.3197  0.3332
20093TIP3    H181770   2.866   2.972  11.657  0.5427 -0.6694  1.4875
20093TIP3    H281771   2.731   2.911  11.630 -0.0628  0.6370  1.5465
20094TIP3   OH281772   1.338   1.318  10.459 -0.1478  0.3664 -0.2818
20094TIP3    H181773   1.304   1.375  10.390  0.1923  0.4033 -0.4193
20094TIP3    H281774   1.400   1.260  10.415  0.3693  0.6533  0.0589
20095TIP3   OH281775   3.994   6.055   3.640 -0.1843  0.3433 -0.6921
20095TIP3    H181776   3.962   6.102   3.717  0.1108 -0.9387  0.2306
20095TIP3    H281777   4.084   6.085   3.629 -0.1659  0.3896 -0.4151
20096TIP3   OH281778   2.538   4.533  16.872 -0.6177 -0.0449  0.2345
20096TIP3    H181779   2.547   4.449  16.826  2.8694 -0.3725  1.3976
20096TIP3    H281780   2.533   4.508  16.964 -0.7505  0.9938  0.5094
20097TIP3   OH281781   4.919   1.857  15.678  0.4190 -0.0890 -0.3240
20097TIP3    H181782   4.921   1.765  15.704 -1.4968 -0.2010 -0.5562
20097TIP3    H281783   4.958   1.903  15.753 -2.2224 -0.7282  1.5290
20098TIP3   OH281784   1.097   3.510   3.365 -0.1811  0.3662  0.2331
20098TIP3    H181785   1.119   3.558   3.285  0.1393  0.3746  0.3265
20098TIP3    H281786   1.155   3.547   3.431 -0.7820  0.6951  0.5796
20099TIP3   OH281787   4.533   0.483  12.790 -0.1188  0.8908 -0.4062
20099TIP3    H181788   4.526   0.551  12.723 -0.3391 -0.1110 -1.4164
20099TIP3    H281789   4.510   0.402  12.745 -2.2740  0.4552  1.3481
20100TIP3   OH281790   1.170   0.569   2.575  0.5432 -0.1296 -0.6082
20100TIP3    H181791   1.114   0.540   2.503  1.0181  1.0275 -1.4573
20100TIP3    H281792   1.196   0.658   2.551  0.8812  0.1841  0.8933
20101TIP3   OH281793   3.916   0.119  11.481  0.2943  0.7155  0.0883
20101TIP3    H181794   3.904   0.194  11.539  2.4551  0.6381  0.7076
20101TIP3    H281795   3.991   0.144  11.426  1.7752 -1.4086  1.0725
20102TIP3   OH281796   5.469   2.206  14.642 -0.2587  0.7974  0.0435
20102TIP3    H181797   5.486   2.174  14.730  4.2995 -0.7208 -1.2267
20102TIP3    H281798   5.466   2.301  14.650  1.3033  0.7179  1.6491
20103TIP3   OH281799   5.716   4.324  13.726  0.9405  0.0778  0.0254
20103TIP3    H181800   5.766   4.383  13.669  1.8671 -0.3867  0.3421
20103TIP3    H281801   5.741   4.350  13.815 -0.0661  0.4252  0.2181
20104TIP3   OH281802   0.602   1.018   2.502  0.2903 -0.3451 -0.2203
20104TIP3    H181803   0.568   0.944   2.552  1.8299 -0.8008  0.1873
20104TIP3    H281804   0.536   1.035   2.435 -1.1194 -0.6508  1.0793
20105TIP3   OH281805   1.450   3.094   5.149 -0.5514 -0.3305 -0.2181
20105TIP3    H181806   1.381   3.030   5.130 -0.2256 -0.4612 -0.9775
20105TIP3    H281807   1.444   3.157   5.077  0.7576 -0.8672 -0.8045
20106TIP3   OH281808   1.398   0.194  11.557  0.4804 -0.4530  0.6346
20106TIP3    H181809   1.451   0.269  11.585  1.0368 -0.2360 -0.9557
20106TIP3    H281810   1.365   0.219  11.471 -1.2098 -1.1110  1.0584
20107TIP3   OH281811   4.183   1.671  13.941 -0.3778 -0.0615  0.5409
20107TIP3    H181812   4.229   1.728  14.003 -0.9830 -1.6269  2.4647
20107TIP3    H281813   4.173   1.588  13.988 -2.3488 -0.7355 -1.0336
20108TIP3   OH281814   0.944   0.807  14.953  0.5644 -0.0814  0.0017
20108TIP3    H181815   0.944   0.871  15.025  3.8464  2.0662 -1.7674
20108TIP3    H281816   0.895   0.850  14.883  1.9101  0.1321 -0.8388
20109TIP3   OH281817   2.155   0.678  14.110 -0.4933  0.2091 -0.5953
20109TIP3    H181818   2.246   0.648  14.106 -0.4694  0.2708 -0.5197
20109TIP3    H281819   2.112   0.634  14.037 -0.2767  0.6238 -0.9762
20110TIP3   OH281820   0.920   0.125  15.862 -0.0932 -0.2916  0.1215
20110TIP3    H181821   0.902   0.079  15.944 -1.7856  2.4200  1.3106
20110TIP3    H281822   0.879   0.070  15.795  0.0511 -1.7766  1.2109
20111TIP3   OH281823   0.327   0.209  16.703 -0.0635  0.0365  0.4272
20111TIP3    H181824   0.365   0.246  16.624  1.7753  1.6238  2.0145
20111TIP3    H281825   0.269   0.139  16.672 -0.1757  1.3372 -2.3560
20112TIP3   OH281826   6.245   0.148   0.336 -0.2527 -0.0601  0.1794
20112TIP3    H181827   6.314   0.122   0.397  0.2919  0.7755 -0.0816
20112TIP3    H281828   6.260   0.094   0.258 -0.5239 -0.6179  0.5071
20113TIP3   OH281829   6.559   2.576  16.706  0.6507 -0.2495 -0.1549
20113TIP3    H181830   6.489   2.565  16.642  1.4407  0.2339 -1.1144
20113TIP3    H281831   6.608   2.652  16.676  0.9323  0.1013  1.1245
20114TIP3   OH281832   1.070   1.539  10.951  0.0045  0.1094 -0.2273
20114TIP3    H181833   1.054   1.445  10.941  0.5302 -0.1038  0.8545
20114TIP3    H281834   1.014   1.580  10.885 -0.4075 -0.9487 -0.5493
20115TIP3   OH281835   4.178   3.880  12.004 -0.3765 -0.0055 -0.1760
20115TIP3    H181836   4.115   3.826  12.052 -1.8604 -0.3899 -2.4394
20115TIP3    H281837   4.252   3.822  11.987 -1.5263 -1.0572 -1.7094
20116TIP3   OH281838   5.395   3.049  13.678  0.3909  1.0401  0.4097
20116TIP3    H181839   5.372   2.971  13.728  3.1058 -0.0396  0.0587
20116TIP3    H281840   5.374   3.025  13.587  1.6286  0.5468  0.2499
20117TIP3   OH281841   6.382   3.901  15.634  0.4233 -0.1445  0.2433
20117TIP3    H181842   6.463   3.888  15.585 -0.5369 -0.2282 -1.3565
20117TIP3    H281843   6.344   3.814  15.642 -0.8704  0.2323 -1.4509
20118TIP3   OH281844   5.874   4.717  13.124  0.0460 -0.4566  0.5597
20118TIP3    H181845   5.936   4.716  13.197  1.8749 -0.7276 -0.9465
20118TIP3    H281846   5.903   4.645  13.067 -0.5652  0.5342 -1.0620
20119TIP3   OH281847   3.748   3.311  12.743  0.1329  0.2793  0.1597
20119TIP3    H181848   3.828   3.319  12.794 -1.0696  0.3586  2.0524
20119TIP3    H281849   3.771   3.346  12.657  1.6895  1.7049  1.1418
20120TIP3   OH281850   5.865   2.607   4.615  0.4298  0.1129 -0.4854
20120TIP3    H181851   5.948   2.576   4.580  1.5527  2.1126  0.2893
20120TIP3    H281852   5.888   2.650   4.697 -1.4162  0.3529 -0.0650
20121TIP3   OH281853   0.209   5.092  14.837 -0.8838  0.1618 -0.2448
20121TIP3    H181854   0.174   5.140  14.912 -1.5228 -0.2086 -0.3049
20121TIP3    H281855   0.132   5.051  14.796 -0.4332 -0.3485 -0.5942
20122TIP3   OH281856   3.066   2.847   0.714 -0.5453 -0.3797  0.6943
20122TIP3    H181857   3.151   2.891   0.702  0.3682 -2.1128  0.7350
20122TIP3    H281858   3.009   2.889   0.649  1.0157 -0.9419 -1.0894
20123TIP3   OH281859   2.544   6.794  13.004 -0.1353  0.0927  0.2551
20123TIP3    H181860   2.540   6.839  12.919 -0.2450 -0.1501  0.1310
20123TIP3    H281861   2.617   6.732  12.995 -0.2391 -0.0348  0.2884
20124TIP3   OH281862   4.821   5.584  12.128  0.2801  0.1028 -0.1542
20124TIP3    H181863   4.850   5.675  12.129  0.2005  0.1212  0.3980
20124TIP3    H281864   4.748   5.580  12.190 -1.1888  0.1375 -1.8465
20125TIP3   OH281865   4.516   1.180  12.081  0.2232  0.0209 -0.4034
20125TIP3    H181866   4.591   1.142  12.125  1.1369  0.3839 -1.6164
20125TIP3    H281867   4.525   1.152  11.990 -0.3603  1.1868 -0.8346
20126TIP3   OH281868   5.702   0.550  13.912  0.0287  0.1274 -0.3173
20126TIP3    H181869   5.646   0.587  13.844  1.0886  0.3039 -1.0994
20126TIP3    H281870   5.772   0.614  13.923  0.1725 -0.1695  0.5445
20127TIP3   OH281871   0.680   6.725  12.509 -0.7221 -0.4880  0.0438
20127TIP3    H181872   0.730   6.696  12.433 -2.1685 -0.7786 -0.8075
20127TIP3    H281873   0.618   6.789  12.474 -2.2087 -1.5076  0.7558
20128TIP3   OH281874   5.870   3.152  17.130 -0.0008  0.1720 -0.0550
20128TIP3    H181875   5.861   3.241  17.164  0.3934  0.3864 -0.5005
20128TIP3    H281876   5.915   3.104  17.199 -0.2777  0.2996  0.2182
20129TIP3   OH281877   4.697   2.761   1.023 -0.6743 -0.2369 -0.5642
20129TIP3    H181878   4.714   2.854   1.010  0.1405 -0.5215 -1.5871
20129TIP3    H281879   4.756   2.735   1.094 -1.2376  0.1152  0.0452
20130TIP3   OH281880   1.962   2.142   1.367 -0.2236 -0.3407 -0.1337
20130TIP3    H181881   1.937   2.087   1.442 -0.6721 -0.0314 -0.0507
20130TIP3    H281882   2.052   2.168   1.385 -0.5771  0.3507  0.6778
20131TIP3   OH281883   2.431   1.177   0.671  0.7093 -0.1507  0.2084
20131TIP3    H181884   2.343   1.210   0.652  1.1915  0.8056 -0.3753
20131TIP3    H281885   2.428   1.085   0.646  0.5067  0.3903 -1.8514
20132TIP3   OH281886   5.011   4.969  12.180 -0.4805 -0.3362  0.3032
20132TIP3    H181887   5.047   4.888  12.216 -0.6421 -0.2343  0.6965
20132TIP3    H281888   4.932   4.985  12.231 -1.6869 -1.1526 -1.2801
20133TIP3   OH281889   1.605   2.800   3.536  0.1056 -0.2251 -0.6504
20133TIP3    H181890   1.686   2.772   3.579  0.5456  1.1105 -0.5690
20133TIP3    H281891   1.635   2.853   3.462 -0.7036  1.4561  0.2004
20134TIP3   OH281892   4.694   4.409  14.627  0.1283 -0.0075 -0.1372
20134TIP3    H181893   4.781   4.396  14.588  0.2846  0.3764  0.0729
20134TIP3    H281894   4.634   4.361  14.569  0.3813  0.3728 -0.7241
20135TIP3   OH281895   4.331   1.676   3.439  0.2171  0.1601 -0.0524
20135TIP3    H181896   4.263   1.740   3.420 -0.2744 -1.1651 -3.0496
20135TIP3    H281897   4.367   1.653   3.353  1.7376 -2.1035  1.1282
20136TIP3   OH281898   6.780   6.612  16.439  0.7156 -0.2281 -0.2721
20136TIP3    H181899   6.730   6.543  16.482  0.1709 -0.1614 -0.7878
20136TIP3    H281900   6.846   6.637  16.503  2.0721 -2.4709 -0.7540
20137TIP3   OH281901   0.229   4.479   6.626  0.1990 -0.2149 -0.6716
20137TIP3    H181902   0.185   4.500   6.544 -0.7090  0.2131 -0.0776
20137TIP3    H281903   0.280   4.557   6.646  1.1189 -0.6432 -1.2643
20138TIP3   OH281904   3.232   3.302   6.309 -0.1439  0.4613 -0.7520
20138TIP3    H181905   3.321   3.317   6.342  0.6527 -2.2983 -1.5961
20138TIP3    H281906   3.182   3.276   6.387  0.4801 -0.8677 -0.7966
20139TIP3   OH281907   2.533   4.413  16.536  0.2267 -0.3064 -0.2089
20139TIP3    H181908   2.490   4.328  16.538  1.8896 -1.1617  1.0768
20139TIP3    H281909   2.601   4.407  16.604 -0.9186  2.7381  1.3358
20140TIP3   OH281910   1.347   4.324   5.858  0.4572  0.1530 -0.5164
20140TIP3    H181911   1.347   4.415   5.827  1.0382  0.0348 -0.8777
20140TIP3    H281912   1.287   4.324   5.932 -0.2964  0.6269 -1.1171
20141TIP3   OH281913   5.010   4.313   5.007  0.1321  0.4969  0.1602
20141TIP3    H181914   5.054   4.344   5.086  3.5775 -1.6219 -0.8177
20141TIP3    H281915   5.042   4.371   4.937  2.1577 -1.5487 -0.6914
20142TIP3   OH281916   6.441   1.942  12.366  0.3025  0.6581  0.1441
20142TIP3    H181917   6.531   1.930  12.338  0.4882  0.9495  0.6084
20142TIP3    H281918   6.447   1.996  12.445 -0.1680 -0.6632  1.1051
20143TIP3   OH281919   2.436   3.541  15.211 -0.2827 -0.3040 -0.1555
20143TIP3    H181920   2.436   3.598  15.134 -0.3630  0.4652  0.4105
20143TIP3    H281921   2.343   3.526  15.228 -0.2848  0.2757  0.3429
20144TIP3   OH281922   6.368   3.053  12.339  0.3272  0.4264  0.1431
20144TIP3    H181923   6.337   2.999  12.411 -1.8281  1.5343  0.0902
20144TIP3    H281924   6.379   3.140  12.377  3.5359  0.0572  0.1778
20145TIP3   OH281925   6.170   3.656  15.026 -0.3939  0.2985  0.2493
20145TIP3    H181926   6.077   3.632  15.021 -0.0004 -0.8883 -2.1516
20145TIP3    H281927   6.214   3.574  15.050  0.3435  0.0561 -1.8615
20146TIP3   OH281928   6.274   3.986  14.685  0.1298  0.2038  0.7879
20146TIP3    H181929   6.336   3.930  14.732 -2.6129 -1.9089  2.0105
20146TIP3    H281930   6.284   4.072  14.725  1.0152 -0.5204  2.1772
20147TIP3   OH281931   4.477   0.784   0.678 -0.8161 -0.0385 -0.2049
20147TIP3    H181932   4.423   0.852   0.717  1.8170  1.0735  1.6889
20147TIP3    H281933   4.564   0.799   0.715  0.0687 -3.7949 -0.6082
20148TIP3   OH281934   6.496   0.540   2.262  0.4693 -0.3065 -0.6447
20148TIP3    H181935   6.441   0.498   2.328 -0.9924  1.3686 -0.7359
20148TIP3    H281936   6.475   0.634   2.270  2.0558  0.1756 -1.8456
20149TIP3   OH281937   6.065   1.511   0.103  0.2481  0.0495 -0.1933
20149TIP3    H181938   6.159   1.502   0.088  0.3306 -1.8321  1.3897
20149TIP3    H281939   6.044   1.598   0.068  2.4394  0.2363 -1.1286
20150TIP3   OH281940   3.538   4.374   1.935 -0.3237 -0.5122 -0.0132
20150TIP3    H181941   3.450   4.342   1.956  0.4805 -2.4257  0.6153
20150TIP3    H281942   3.538   4.383   1.839 -0.9890 -1.1919 -0.0868
20151TIP3   OH281943   6.562   4.752  15.018  0.1520  0.3430  0.2310
20151TIP3    H181944   6.587   4.729  14.929  0.3156  1.1236  0.0693
20151TIP3    H281945   6.472   4.783  15.010  0.3289  0.8777  0.2507
20152TIP3   OH281946   6.661   2.126   0.767  0.5922  0.5692 -0.3968
20152TIP3    H181947   6.626   2.205   0.808  0.4042  0.4290 -0.2830
20152TIP3    H281948   6.641   2.056   0.830  0.0134  0.3050 -0.8714
20153TIP3   OH281949   5.259   4.137   5.965  0.0866 -0.2733 -0.4429
20153TIP3    H181950   5.187   4.129   6.028  1.1769 -1.1656  0.7157
20153TIP3    H281951   5.273   4.232   5.958 -3.0940  0.0910 -2.9242
20154TIP3   OH281952   2.149   2.802   0.162 -0.1005  0.5106 -0.0254
20154TIP3    H181953   2.059   2.772   0.147 -0.5711  2.1565 -0.6777
20154TIP3    H281954   2.139   2.886   0.206  1.1927 -0.6061  2.4850
20155TIP3   OH281955   2.469   2.661  17.002  0.2728 -0.0689 -0.2848
20155TIP3    H181956   2.412   2.708  17.062  1.3123  0.8652 -0.0296
20155TIP3    H281957   2.514   2.596  17.056 -0.0105 -0.3255 -0.3556
20156TIP3   OH281958   1.667   4.635   3.853  0.2598 -0.3315 -0.3847
20156TIP3    H181959   1.711   4.569   3.801  0.7144  1.5351 -2.4467
20156TIP3    H281960   1.578   4.641   3.816  0.5020  0.8151 -0.8200
20157TIP3   OH281961   3.748   4.921   0.304 -0.9539 -0.0413 -0.3529
20157TIP3    H181962   3.724   4.840   0.348 -1.0839 -0.0692 -0.4710
20157TIP3    H281963   3.774   4.894   0.216 -3.3935  0.2601 -1.2331
20158TIP3   OH281964   4.604   1.392  12.903  0.5490 -0.4870  0.0516
20158TIP3    H181965   4.656   1.386  12.823 -0.8648 -1.2676 -0.8131
20158TIP3    H281966   4.604   1.486  12.924  0.3839 -0.1904 -1.2331
20159TIP3   OH281967   1.966   4.969  11.856 -0.5943 -0.1998  0.2606
20159TIP3    H181968   2.027   4.909  11.899 -1.0105  0.3158  1.6047
20159TIP3    H281969   1.880   4.944  11.890 -0.6416  2.0230  1.9116
20160TIP3   OH281970   3.060   3.949   4.505  0.0169 -0.3760  0.4729
20160TIP3    H181971   3.069   3.916   4.594  0.8566 -2.6599 -0.4209
20160TIP3    H281972   3.146   3.936   4.466  0.0344  1.8536 -0.2841
20161TIP3   OH281973   0.343   5.055   1.889 -0.3070  0.6163  0.4910
20161TIP3    H181974   0.391   5.137   1.903  0.4855 -0.0444  1.8277
20161TIP3    H281975   0.377   4.996   1.957 -3.1100  0.1681  1.5766
20162TIP3   OH281976   5.654   2.000  11.450 -0.4406 -0.2018 -0.7822
20162TIP3    H181977   5.642   1.906  11.440 -1.3921 -0.2190  0.4757
20162TIP3    H281978   5.614   2.038  11.372 -1.3597 -0.7411 -0.5708
20163TIP3   OH281979   5.153   3.848   1.666  0.1961 -0.0401 -0.6110
20163TIP3    H181980   5.066   3.821   1.696  0.5859  0.6005  1.1585
20163TIP3    H281981   5.135   3.910   1.594 -0.7622 -1.1103 -1.3035
20164TIP3   OH281982   4.694   0.923  11.971 -0.0398  0.1794 -0.5937
20164TIP3    H181983   4.766   0.865  11.994  0.5556  1.4211  0.7436
20164TIP3    H281984   4.615   0.877  11.999  0.2800 -0.8732 -1.4119
20165TIP3   OH281985   0.356   1.048  16.878  0.1702 -0.3255 -0.5613
20165TIP3    H181986   0.263   1.052  16.857  0.4372 -1.6363 -2.0759
20165TIP3    H281987   0.371   0.957  16.902  1.2643 -0.3496 -1.3082
20166TIP3   OH281988   0.539   2.621  11.446  0.0838 -0.2361  0.5061
20166TIP3    H181989   0.479   2.618  11.371 -1.5259 -1.2798  1.7999
20166TIP3    H281990   0.523   2.706  11.486  1.5391  0.6768 -0.7580
20167TIP3   OH281991   2.142   2.827   1.213 -0.0007 -0.1878 -0.4351
20167TIP3    H181992   2.116   2.919   1.213  2.9094  0.6837  1.4461
20167TIP3    H281993   2.153   2.805   1.120 -1.1861  1.1648 -0.9169
20168TIP3   OH281994   5.206   3.678  13.864  0.7799  0.2610 -0.0062
20168TIP3    H181995   5.213   3.712  13.953 -0.8586  2.5121 -0.7148
20168TIP3    H281996   5.197   3.583  13.875  0.2246  0.5589  2.2356
20169TIP3   OH281997   2.491   6.758   0.417  0.3144  0.0527  0.8463
20169TIP3    H181998   2.402   6.746   0.383  0.5302  1.3249 -0.2130
20169TIP3    H281999   2.484   6.739   0.510 -0.6766 -1.6994  0.4415
20170TIP3   OH282000   3.056   4.493  12.890 -0.5271 -0.6134  0.1511
20170TIP3    H182001   3.114   4.418  12.905  0.8362  0.3643 -0.1570
20170TIP3    H282002   3.097   4.542  12.819 -0.9695  0.8754  0.8990
20171TIP3   OH282003   4.194   4.081  14.098  0.1119 -0.1542  0.2140
20171TIP3    H182004   4.287   4.099  14.109  0.0281  1.1343 -1.0136
20171TIP3    H282005   4.187   4.043  14.010 -0.4742 -0.5912  0.4487
20172TIP3   OH282006   2.723   0.919  16.585  0.6878  0.2295 -0.2964
20172TIP3    H182007   2.636   0.954  16.607  0.9701 -0.7436  2.5866
20172TIP3    H282008   2.746   0.961  16.502 -1.1806  2.9175  0.4904
20173TIP3   OH282009   3.690   2.782   0.900  0.0996 -0.1414  0.3864
20173TIP3    H182010   3.669   2.849   0.835  0.7459 -0.6215 -0.3297
20173TIP3    H282011   3.761   2.820   0.952 -1.2233  0.7239  1.5930
20174TIP3   OH282012   5.759   2.575  15.219 -0.3580 -0.2004 -0.2498
20174TIP3    H182013   5.735   2.500  15.274 -0.8998 -0.5904 -1.0058
20174TIP3    H282014   5.762   2.649  15.280 -1.0275 -0.6112  0.2906
20175TIP3   OH282015   5.483   6.460   3.285  0.1217  0.5716  0.0078
20175TIP3    H182016   5.413   6.456   3.350  0.6574 -0.6589  0.5269
20175TIP3    H282017   5.439   6.484   3.204 -1.0774 -1.2178  0.1010
20176TIP3   OH282018   4.849   0.602  14.784  0.3793  0.5089 -0.2143
20176TIP3    H182019   4.933   0.621  14.826  1.3843 -1.2330 -1.3794
20176TIP3    H282020   4.862   0.625  14.693 -0.7253  1.1328 -0.2193
20177TIP3   OH282021   4.607   6.110   2.998  0.0245  0.0880  0.1080
20177TIP3    H182022   4.655   6.137   3.077  0.5813 -1.2850  0.2434
20177TIP3    H282023   4.654   6.153   2.926  0.5117  0.0198  0.3806
20178TIP3   OH282024   0.919   6.355   5.974 -0.3649  0.3469 -0.5589
20178TIP3    H182025   0.961   6.278   6.011 -1.8172 -0.4429 -0.5122
20178TIP3    H282026   0.948   6.427   6.030 -0.5977 -0.4721  0.6248
20179TIP3   OH282027   2.059   5.596   0.592 -0.2093  0.2021 -0.4119
20179TIP3    H182028   2.025   5.528   0.534 -1.5883  0.3299  0.2440
20179TIP3    H282029   2.119   5.646   0.536 -2.2105  0.8936 -2.0030
20180TIP3   OH282030   1.636   3.341  10.828 -0.3426  0.2643  0.3395
20180TIP3    H182031   1.699   3.358  10.759  0.8132  0.7006  1.4817
20180TIP3    H282032   1.619   3.247  10.824  2.2962 -0.2997  1.6210
20181TIP3   OH282033   3.734   6.482   5.816 -0.6644 -0.3821  0.2561
20181TIP3    H182034   3.705   6.554   5.873  1.9965  2.5692 -1.9349
20181TIP3    H282035   3.652   6.440   5.789 -2.3442  1.8852  1.5337
20182TIP3   OH282036   5.550   2.173  11.271  0.1627  0.2026  0.5058
20182TIP3    H182037   5.545   2.239  11.202  1.8583 -0.3466 -0.1784
20182TIP3    H282038   5.468   2.125  11.264 -0.6754  1.6195  0.3853
20183TIP3   OH282039   5.939   4.346   0.813 -0.0501  0.7293 -0.0139
20183TIP3    H182040   6.002   4.391   0.869  1.4306  0.0728 -1.1042
20183TIP3    H282041   5.993   4.286   0.761 -1.5198  0.5592 -1.3639
20184TIP3   OH282042   5.333   3.388  14.633  0.0962 -0.4743 -1.1384
20184TIP3    H182043   5.420   3.426  14.643  0.1681 -0.6838 -0.9636
20184TIP3    H282044   5.273   3.457  14.662  0.2032 -0.3167 -1.2961
20185TIP3   OH282045   1.537   1.868  14.567 -0.2537 -0.2202  0.3410
20185TIP3    H182046   1.458   1.879  14.621  0.7657  0.9980  1.6228
20185TIP3    H282047   1.586   1.798  14.610  0.1927  0.2255  0.5637
20186TIP3   OH282048   1.790   4.060  14.067 -0.1498  0.5591 -0.1678
20186TIP3    H182049   1.840   4.038  14.145  1.3962 -0.1675 -1.3347
20186TIP3    H282050   1.843   4.028  13.994 -2.7514 -1.1005 -1.4243
20187TIP3   OH282051   1.138   3.509  14.736 -0.0713  0.3055 -0.2475
20187TIP3    H182052   1.062   3.515  14.678 -0.0350  1.8613 -0.1582
20187TIP3    H282053   1.212   3.492  14.677 -0.0867  1.5127 -0.6152
20188TIP3   OH282054   5.134   1.524   4.459 -0.0126  0.3852 -0.3476
20188TIP3    H182055   5.137   1.548   4.366 -3.0852  0.5404 -0.4792
20188TIP3    H282056   5.078   1.592   4.498  2.2633  1.0390  1.8790
20189TIP3   OH282057   0.506   6.789  11.862  0.7969  0.4339 -0.2588
20189TIP3    H182058   0.556   6.709  11.848 -0.1260 -0.1224 -0.4412
20189TIP3    H282059   0.514   6.837  11.780  2.4620  1.1638  0.3167
20190TIP3   OH282060   1.197   6.423   1.472  0.0168  0.5605 -0.7347
20190TIP3    H182061   1.246   6.490   1.425  0.6487  0.9763  0.5056
20190TIP3    H282062   1.202   6.346   1.416  1.0009  0.9721 -1.2260
20191TIP3   OH282063   4.310   5.482  13.233 -0.8359 -0.4444  0.3175
20191TIP3    H182064   4.312   5.548  13.164 -1.1516 -0.1154  0.6192
20191TIP3    H282065   4.288   5.531  13.312 -0.3608 -0.7971  0.6733
20192TIP3   OH282066   4.717   2.800   2.429  0.2265  0.5945 -0.0640
20192TIP3    H182067   4.661   2.766   2.498  0.9485  0.0788  0.2808
20192TIP3    H282068   4.685   2.888   2.412 -2.1119 -0.4827 -1.4432
20193TIP3   OH282069   2.711   4.176   2.499 -0.1659  0.4670 -0.5912
20193TIP3    H182070   2.654   4.116   2.546 -0.6528  1.5657  0.2258
20193TIP3    H282071   2.758   4.120   2.436 -1.2626 -0.6191 -0.4583
20194TIP3   OH282072   4.710   6.736  16.020 -0.2507 -0.4341  0.2064
20194TIP3    H182073   4.707   6.788  15.939 -0.7166 -0.6316  0.0982
20194TIP3    H282074   4.628   6.756  16.064  0.8862  1.2422  1.6123
20195TIP3   OH282075   1.405   3.684  14.671  0.1383 -0.2204 -0.2454
20195TIP3    H182076   1.335   3.678  14.735 -0.7524  1.0943 -1.0760
20195TIP3    H282077   1.438   3.774  14.680  1.1379 -0.5533 -0.4671
20196TIP3   OH282078   2.395   0.946   1.035 -0.2922 -0.3423  0.9896
20196TIP3    H182079   2.448   1.020   1.007 -2.1647  0.4085 -0.7121
20196TIP3    H282080   2.456   0.872   1.036  1.0461  0.7231  0.2788
20197TIP3   OH282081   2.824   0.429  14.724 -0.4250  0.5308  0.3316
20197TIP3    H182082   2.903   0.375  14.720  0.5706  2.0234 -0.3441
20197TIP3    H282083   2.752   0.365  14.722  0.6732 -0.7022 -2.4882
20198TIP3   OH282084   5.975   5.166  14.474  0.2204  0.2461 -0.1555
20198TIP3    H182085   6.026   5.242  14.443  0.7938  0.7736  2.0332
20198TIP3    H282086   6.029   5.126  14.541 -1.0175 -0.8812  0.1948
20199TIP3   OH282087   4.182   5.997  14.627  0.3263  0.3167  0.0252
20199TIP3    H182088   4.097   5.991  14.583 -0.0825 -0.4667  0.8897
20199TIP3    H282089   4.241   5.946  14.573  0.3739  1.2851 -0.8558
20200TIP3   OH282090   0.314   5.255   3.479  0.0908  0.2200  0.0172
20200TIP3    H182091   0.390   5.313   3.485  0.7641 -0.4880 -1.1593
20200TIP3    H282092   0.250   5.305   3.428  0.9283 -0.2831 -1.5953
20201TIP3   OH282093   3.987   0.332   5.243  0.0492  0.4662  0.2490
20201TIP3    H182094   3.904   0.329   5.195 -0.0638 -1.1909  0.5338
20201TIP3    H282095   3.976   0.270   5.315  0.9489  1.4513  1.2776
20202TIP3   OH282096   1.389   4.096  15.327  0.3279 -0.1712 -0.5525
20202TIP3    H182097   1.442   4.068  15.402  1.5208 -0.6918 -1.5811
20202TIP3    H282098   1.369   4.188  15.345 -1.2065 -0.8359  1.4534
20203TIP3   OH282099   2.962   6.442  12.885  0.4594  0.1821 -0.0153
20203TIP3    H182100   2.973   6.440  12.790  1.6319 -1.5156  0.1436
20203TIP3    H282101   3.033   6.498  12.916  1.8783 -1.6185  0.0744
20204TIP3   OH282102   3.203   6.460   2.253  0.1144  0.4059  0.0370
20204TIP3    H182103   3.122   6.423   2.216 -0.6431  1.6977  0.3690
20204TIP3    H282104   3.213   6.415   2.336 -0.8405  0.9681  0.4717
20205TIP3   OH282105   5.071   6.521   5.515 -0.1174 -0.3446 -0.5831
20205TIP3    H182106   5.008   6.544   5.583 -0.5125 -0.3012 -0.9632
20205TIP3    H282107   5.138   6.589   5.521 -0.6232  0.1831 -0.8460
20206TIP3   OH282108   4.978   1.600  13.654  0.2899  0.1657  0.5194
20206TIP3    H182109   4.902   1.654  13.676  0.1322 -0.0394  0.4790
20206TIP3    H282110   4.941   1.524  13.610  0.6507  1.0503 -1.3975
20207TIP3   OH282111   4.979   3.145  15.286  0.5702 -0.4463 -0.0789
20207TIP3    H182112   4.984   3.227  15.238  0.5596  0.3497  1.2628
20207TIP3    H282113   5.049   3.091  15.249  0.0869 -0.1292 -1.4800
20208TIP3   OH282114   4.991   0.988   6.130  0.0006 -0.3365  0.0355
20208TIP3    H182115   4.936   0.916   6.162  0.1581 -0.0437  0.9976
20208TIP3    H282116   5.023   1.031   6.210  1.3115 -0.2648 -0.5086
20209TIP3   OH282117   0.668   4.659  15.377 -0.3450  0.6156  0.0587
20209TIP3    H182118   0.634   4.598  15.311 -1.2100  1.1234  0.0316
20209TIP3    H282119   0.604   4.656  15.448 -1.2737  2.7159 -0.6489
20210TIP3   OH282120   1.558   0.198  13.298  0.1778 -0.6976  0.1483
20210TIP3    H182121   1.528   0.287  13.314 -1.0265 -1.1343  0.3670
20210TIP3    H282122   1.592   0.199  13.208  2.5827  0.6043  1.0324
20211TIP3   OH282123   5.219   4.354  12.619 -0.5055  0.2609 -0.6396
20211TIP3    H182124   5.138   4.401  12.600  0.4562  1.7032 -1.2601
20211TIP3    H282125   5.227   4.358  12.715  0.0264  2.1771 -0.7488
20212TIP3   OH282126   2.732   3.507   4.475  0.3516 -0.3096  0.3998
20212TIP3    H182127   2.814   3.468   4.443 -0.0220 -0.3404 -0.5403
20212TIP3    H282128   2.755   3.599   4.492  0.4031 -0.1396 -0.5589
20213TIP3   OH282129   6.107   3.658   3.947  0.4364  0.5354  0.0620
20213TIP3    H182130   6.119   3.739   3.996  1.8487  1.4807 -1.8057
20213TIP3    H282131   6.026   3.673   3.898  0.6480  0.7763 -0.2135
20214TIP3   OH282132   1.662   0.131  13.984 -0.4778 -0.8515  0.0129
20214TIP3    H182133   1.752   0.108  14.007 -0.5005 -1.3581 -0.3925
20214TIP3    H282134   1.640   0.203  14.043  0.0685 -0.9638  0.3590
20215TIP3   OH282135   5.270   2.100  11.219  0.4463 -0.0019 -0.1019
20215TIP3    H182136   5.238   2.186  11.245 -0.7900 -0.3647 -0.3900
20215TIP3    H282137   5.242   2.090  11.128 -0.3791 -1.1601  0.2644
20216TIP3   OH282138   1.300   5.359   1.847  0.0896 -0.5760  0.5475
20216TIP3    H182139   1.330   5.417   1.777  1.0549 -0.2051  1.2543
20216TIP3    H282140   1.358   5.378   1.920 -1.0279 -0.8129  1.5210
20217TIP3   OH282141   3.818   5.650  12.362  0.7865 -0.6996  0.6004
20217TIP3    H182142   3.766   5.636  12.441 -1.7694  1.7661 -0.5365
20217TIP3    H282143   3.811   5.744  12.345 -0.6355 -1.4834 -3.7541
20218TIP3   OH282144   3.913   6.036   4.453  0.3526 -0.3207  0.0954
20218TIP3    H182145   3.926   5.981   4.530  0.8879  0.1187  0.3288
20218TIP3    H282146   3.819   6.051   4.449  0.2200 -1.1142  0.1182
20219TIP3   OH282147   2.050   3.636  11.049  0.2784  0.3311  0.4111
20219TIP3    H182148   1.979   3.693  11.019 -0.1710 -0.5705 -0.2624
20219TIP3    H282149   2.090   3.684  11.122 -1.2003  0.7151  0.9820
20220TIP3   OH282150   4.258   0.084  13.640 -0.2327 -0.0144  0.1829
20220TIP3    H182151   4.226   0.128  13.719 -0.6417 -1.9894  1.1543
20220TIP3    H282152   4.338   0.039  13.668  1.6540  2.2302 -1.4492
20221TIP3   OH282153   1.298   1.347  15.133  0.3085  0.5320 -0.1859
20221TIP3    H182154   1.299   1.299  15.050  0.2701  0.3000 -0.0529
20221TIP3    H282155   1.207   1.374  15.145  0.3326  0.6466 -0.2661
20222TIP3   OH282156   5.036   0.558  13.828 -0.0026  0.6452 -0.0514
20222TIP3    H182157   4.942   0.541  13.823  0.0958 -0.0761  0.5544
20222TIP3    H282158   5.049   0.638  13.775 -0.5738 -0.6813 -2.2563
20223TIP3   OH282159   5.540   5.063  14.304  0.0432  0.1590 -0.2254
20223TIP3    H182160   5.615   5.089  14.251  0.1653  0.3802  0.0598
20223TIP3    H282161   5.570   4.985  14.351  0.5397  1.0067  0.8950
20224TIP3   OH282162   3.170   1.513  11.992 -0.2458  0.0239  0.6597
20224TIP3    H182163   3.233   1.562  12.046  0.3589  1.1020 -0.9704
20224TIP3    H282164   3.208   1.426  11.984  0.5708  0.3881  0.4849
20225TIP3   OH282165   3.166   2.212  16.510 -0.0637 -0.8942  0.6539
20225TIP3    H182166   3.073   2.194  16.508 -0.0564 -0.8067 -0.3865
20225TIP3    H282167   3.172   2.307  16.524 -0.1220 -1.0174  1.5380
20226TIP3   OH282168   2.094   5.926  12.720 -0.2410  0.4359 -0.5674
20226TIP3    H182169   2.136   5.993  12.774 -1.4637  1.2334 -0.5689
20226TIP3    H282170   2.155   5.853  12.719  0.7544  1.2483  0.1124
20227TIP3   OH282171   4.073   4.852  15.025 -0.5007 -0.4988  0.4385
20227TIP3    H182172   4.104   4.777  14.974 -1.5711 -0.7488  0.1439
20227TIP3    H282173   4.151   4.905  15.040 -0.5120  0.8619 -3.5915
20228TIP3   OH282174   3.349   5.224  14.526  0.2937 -0.0922 -0.2453
20228TIP3    H182175   3.381   5.135  14.545 -0.0362 -0.2465 -0.4082
20228TIP3    H282176   3.416   5.261  14.468  1.1573  0.2728  0.9700
20229TIP3   OH282177   1.053   2.342   4.092 -0.3883  0.4458 -0.1126
20229TIP3    H182178   1.089   2.430   4.102 -0.5180  0.5194 -0.2950
20229TIP3    H282179   0.967   2.346   4.133  0.7458 -0.3576  2.4687
20230TIP3   OH282180   4.604   2.566   2.014 -0.1352  0.1397  0.3532
20230TIP3    H182181   4.687   2.544   2.056  0.4352 -0.7344 -1.2057
20230TIP3    H282182   4.623   2.645   1.963 -0.3009  0.0355  0.1303
20231TIP3   OH282183   3.653   3.362  13.144  0.6263 -0.2427  0.1005
20231TIP3    H182184   3.593   3.427  13.179  2.0209 -0.2389  2.6471
20231TIP3    H282185   3.597   3.296  13.103 -0.9530  1.0120  0.2000
20232TIP3   OH282186   4.114   5.475   3.557 -0.5209  0.0088 -0.0971
20232TIP3    H182187   4.141   5.520   3.637  0.1105 -0.3554 -0.1040
20232TIP3    H282188   4.161   5.521   3.487 -1.0762  0.3310 -0.2640
20233TIP3   OH282189   4.352   1.901  11.287 -0.3059  0.1623 -0.1230
20233TIP3    H182190   4.344   1.851  11.368 -0.2297  2.7907  1.5600
20233TIP3    H282191   4.261   1.908  11.255 -0.3088 -1.0691 -0.4281
20234TIP3   OH282192   4.527   3.301   5.520 -0.0926  0.3795  0.4437
20234TIP3    H182193   4.587   3.262   5.456 -1.2735  0.3129 -0.6632
20234TIP3    H282194   4.579   3.366   5.566  1.2306 -0.7627  0.5738
20235TIP3   OH282195   2.457   2.914   2.078 -0.1597  0.2682 -0.6026
20235TIP3    H182196   2.389   2.847   2.090  0.3803 -0.3473 -0.9261
20235TIP3    H282197   2.536   2.873   2.112 -0.2317  1.5401  1.1768
20236TIP3   OH282198   2.000   0.571  13.840  0.3179  0.4802 -0.0516
20236TIP3    H182199   1.919   0.543  13.797 -0.1903  1.5709  0.1618
20236TIP3    H282200   2.040   0.631  13.778 -0.1662  1.6706  0.7550
20237TIP3   OH282201   1.828   5.778   0.531 -0.0483  0.3685 -0.6412
20237TIP3    H182202   1.919   5.767   0.558 -0.3540  1.2165  0.7938
20237TIP3    H282203   1.788   5.692   0.542  0.7692 -0.2247 -2.1038
20238TIP3   OH282204   0.700   5.359   4.061  0.3277 -0.2410 -0.1985
20238TIP3    H182205   0.678   5.376   4.153 -2.0385 -0.7156 -0.6477
20238TIP3    H282206   0.632   5.405   4.011  0.4987 -1.5606 -1.6796
20239TIP3   OH282207   3.122   3.147   2.800  0.3206 -0.1402 -0.0786
20239TIP3    H182208   3.217   3.145   2.782  0.6349  0.0007  1.4998
20239TIP3    H282209   3.091   3.226   2.755  1.1637  0.4596  0.3757
20240TIP3   OH282210   0.031   2.645   3.203 -0.1655  0.2739 -0.2058
20240TIP3    H182211   0.023   2.554   3.232  0.6601  0.5925  1.0426
20240TIP3    H282212   0.072   2.690   3.276 -0.3508  1.6147 -0.9135
20241TIP3   OH282213   1.848   2.241  15.766  0.2191 -0.2466  0.2182
20241TIP3    H182214   1.849   2.148  15.786  1.8017 -0.8195 -2.4170
20241TIP3    H282215   1.755   2.264  15.765 -0.1873 -1.8388  0.5248
20242TIP3   OH282216   2.695   4.893  14.437  0.2684 -0.3028 -0.2941
20242TIP3    H182217   2.624   4.846  14.480  0.1223  1.7246  1.7489
20242TIP3    H282218   2.665   4.904  14.347 -1.0952 -1.2287  0.0296
20243CLA    CLA82219   2.454   3.207   4.141 -0.6118 -0.0736  0.1817
20244LIG     O182220   3.418   3.891  16.255 -0.0468 -0.0049  0.0100
20244LIG     O282221   3.336   3.638  16.355 -0.6935 -0.8285 -0.1069
20244LIG     O382222   3.613   3.802  16.174  0.5270  0.3512  0.3056
20244LIG     O482223   3.241   3.674  16.104 -0.8166  0.1019  0.0530
20244LIG     O582224   3.135   4.074  16.615  0.1790  0.3106  1.2221
20244LIG      N82225   3.445   4.224  16.364 -0.9022  0.1231  0.0260
20244LIG     C182226   3.386   4.121  16.273 -0.5568  0.1208 -0.3074
20244LIG     C282227   3.587   4.177  16.381  1.1265  0.1018 -0.0535
20244LIG     C382228   3.486   4.016  16.239 -0.5659 -0.6320  0.3577
20244LIG     C482229   3.583   4.028  16.356 -0.1557 -0.1223 -0.1119
20244LIG     C582230   3.448   4.357  16.296 -0.3473 -0.6749 -0.2429
20244LIG     C682231   3.370   4.240  16.491 -0.1605  0.4467 -0.0164
20244LIG     C782232   3.497   3.788  16.216 -0.0352 -0.3006 -0.8230
20244LIG     C882233   3.440   3.648  16.252 -0.2466  0.3373 -0.2987
20244LIG     C982234   3.541   3.532  16.279 -0.2310 -0.5558 -0.1378
20244LIG    C1082235   3.370   3.628  16.116 -0.0540  0.2320 -0.2629
20244LIG    C1182236   3.394   3.661  16.483  0.7118  0.9292 -0.2517
20244LIG    C1282237   3.506   3.394  16.276  0.2391  0.8389  0.2134
20244LIG    C1382238   3.674   3.562  16.313 -0.0459  0.8314  0.2138
20244LIG    C1482239   3.413   3.583  15.991  0.0381 -0.1027  0.4341
20244LIG    C1582240   3.278   3.720  16.573 -0.1466 -0.0543  0.4182
20244LIG    C1682241   3.261   3.871  16.544  0.1105 -0.9543  0.1560
20244LIG    C1782242   3.302   3.585  15.912 -0.4329  0.0608  0.4276
20244LIG    C1882243   3.599   3.298  16.311  0.3778 -0.0806  0.3857
20244LIG    C1982244   3.768   3.465  16.356  0.1018 -0.3115  0.2666
20244LIG    C2082245   3.201   3.639  15.976  0.2569  0.5769  0.0088
20244LIG    C2182246   3.732   3.330  16.343 -0.3959 -0.0402  0.4620
20244LIG    C2282247   3.152   3.933  16.636  0.3690 -1.2486  0.2187
20244LIG     H182248   3.355   4.167  16.177  2.1726 -1.0022 -1.7922
20244LIG     H282249   3.299   4.078  16.328 -0.3406 -0.6631 -0.5709
20244LIG     H382250   3.626   4.199  16.483 -1.2374  1.6607  0.5650
20244LIG     H482251   3.655   4.231  16.311  0.5300  1.7133  0.5913
20244LIG     H582252   3.524   4.035  16.137  0.2049  2.0558  1.1290
20244LIG     H682253   3.563   3.966  16.445 -0.8104 -0.8296 -0.7409
20244LIG     H782254   3.685   4.006  16.322 -0.9400 -0.2813 -2.4280
20244LIG     H882255   3.350   4.383  16.258  0.2096  2.5584  0.4209
20244LIG     H982256   3.510   4.364  16.208 -0.4097 -0.0218 -0.2367
20244LIG    H1082257   3.483   4.429  16.368  3.0751 -1.3739 -1.1219
20244LIG    H1182258   3.396   4.165  16.564  1.5602  0.7224 -0.3303
20244LIG    H1282259   3.264   4.221  16.480 -0.1207  0.6425 -0.7856
20244LIG    H1382260   3.390   4.331  16.544  0.2792  1.9672 -2.7353
20244LIG    H1482261   3.472   3.740  16.481  2.5195 -0.8289 -1.2614
20244LIG    H1582262   3.422   3.560  16.520  0.1504  0.5538 -0.8349
20244LIG    H1682263   3.405   3.363  16.253  0.1346  1.6567 -0.4638
20244LIG    H1782264   3.698   3.666  16.328  0.5680  0.4915  1.6458
20244LIG    H1882265   3.507   3.536  15.969  0.8320  0.6620  2.1148
20244LIG    H1982266   3.319   3.711  16.676  0.3278 -1.0078  0.1488
20244LIG    H2082267   3.180   3.668  16.568 -0.8909  0.9925  3.3277
20244LIG    H2182268   3.236   3.891  16.437 -0.7838 -0.9283  0.3615
20244LIG    H2282269   3.352   3.930  16.569  0.0726 -0.8844  0.1306
20244LIG    H2382270   3.308   3.563  15.807  2.2216  0.7405  0.4202
20244LIG    H2482271   3.576   3.192  16.313  0.5047 -0.1638 -1.2910
20244LIG    H2582272   3.868   3.489  16.389  0.6452 -0.3991 -1.2920
20244LIG    H2682273   3.099   3.663  15.948  0.5507  0.8857 -0.8289
20244LIG    H2782274   3.801   3.248  16.355 -2.2244 -1.7482 -0.5405
20244LIG    H2882275   3.056   3.878  16.632 -1.1079  1.3450 -1.3136
20244LIG    H2982276   3.191   3.921  16.739  1.9660  1.3107 -0.0255
20244LIG    H3082277   3.064   4.099  16.675 -1.8949  2.0913 -1.8838
   6.82013   6.82013  17.29240
